
*************** JDFTx 1.6.0  ***************

Start date and time: Mon Dec  6 17:18:58 2021
Executable /projects/musgravc/apps/jdftx-1.6.1/build/jdftx with command-line: -i in
Running on hosts (process indices):  shas0213.rc.int.colorado.edu (0-23)
Divided in process groups (process indices):  0 (0)  1 (1)  2 (2)  3 (3)  4 (4)  5 (5)  6 (6)  7 (7)  8 (8)  9 (9)  10 (10)  11 (11)  12 (12)  13 (13)  14 (14)  15 (15)  16 (16)  17 (17)  18 (18)  19 (19)  20 (20)  21 (21)  22 (22)  23 (23)
Resource initialization completed at t[s]:      0.00
Run totals: 24 processes, 24 threads, 0 GPUs


Input parsed successfully to the following command list (including defaults):

basis kpoint-dependent
converge-empty-states yes
coords-type Cartesian
core-overlap-check none
coulomb-interaction Periodic
davidson-band-ratio 1.1
density-of-states Etol 1.000000e-06 Esigma 1.000000e-03 \
		Complete \
	Total \
	OrthoOrbital Ag 1   s \
	OrthoOrbital Ag 1   p \
	OrthoOrbital Ag 1   px \
	OrthoOrbital Ag 1   py \
	OrthoOrbital Ag 1   pz \
	OrthoOrbital Ag 1   d \
	OrthoOrbital Ag 1   dxy \
	OrthoOrbital Ag 1   dyz \
	OrthoOrbital Ag 1   dz2 \
	OrthoOrbital Ag 1   dxz \
	OrthoOrbital Ag 1   dx2-y2 \
	OrthoOrbital Ag 2   s \
	OrthoOrbital Ag 2   p \
	OrthoOrbital Ag 2   px \
	OrthoOrbital Ag 2   py \
	OrthoOrbital Ag 2   pz \
	OrthoOrbital Ag 2   d \
	OrthoOrbital Ag 2   dxy \
	OrthoOrbital Ag 2   dyz \
	OrthoOrbital Ag 2   dz2 \
	OrthoOrbital Ag 2   dxz \
	OrthoOrbital Ag 2   dx2-y2 \
	OrthoOrbital Ag 3   s \
	OrthoOrbital Ag 3   p \
	OrthoOrbital Ag 3   px \
	OrthoOrbital Ag 3   py \
	OrthoOrbital Ag 3   pz \
	OrthoOrbital Ag 3   d \
	OrthoOrbital Ag 3   dxy \
	OrthoOrbital Ag 3   dyz \
	OrthoOrbital Ag 3   dz2 \
	OrthoOrbital Ag 3   dxz \
	OrthoOrbital Ag 3   dx2-y2 \
	OrthoOrbital Ag 4   s \
	OrthoOrbital Ag 4   p \
	OrthoOrbital Ag 4   px \
	OrthoOrbital Ag 4   py \
	OrthoOrbital Ag 4   pz \
	OrthoOrbital Ag 4   d \
	OrthoOrbital Ag 4   dxy \
	OrthoOrbital Ag 4   dyz \
	OrthoOrbital Ag 4   dz2 \
	OrthoOrbital Ag 4   dxz \
	OrthoOrbital Ag 4   dx2-y2 \
	OrthoOrbital Ag 5   s \
	OrthoOrbital Ag 5   p \
	OrthoOrbital Ag 5   px \
	OrthoOrbital Ag 5   py \
	OrthoOrbital Ag 5   pz \
	OrthoOrbital Ag 5   d \
	OrthoOrbital Ag 5   dxy \
	OrthoOrbital Ag 5   dyz \
	OrthoOrbital Ag 5   dz2 \
	OrthoOrbital Ag 5   dxz \
	OrthoOrbital Ag 5   dx2-y2 \
	OrthoOrbital Ag 6   s \
	OrthoOrbital Ag 6   p \
	OrthoOrbital Ag 6   px \
	OrthoOrbital Ag 6   py \
	OrthoOrbital Ag 6   pz \
	OrthoOrbital Ag 6   d \
	OrthoOrbital Ag 6   dxy \
	OrthoOrbital Ag 6   dyz \
	OrthoOrbital Ag 6   dz2 \
	OrthoOrbital Ag 6   dxz \
	OrthoOrbital Ag 6   dx2-y2 \
	OrthoOrbital Ag 7   s \
	OrthoOrbital Ag 7   p \
	OrthoOrbital Ag 7   px \
	OrthoOrbital Ag 7   py \
	OrthoOrbital Ag 7   pz \
	OrthoOrbital Ag 7   d \
	OrthoOrbital Ag 7   dxy \
	OrthoOrbital Ag 7   dyz \
	OrthoOrbital Ag 7   dz2 \
	OrthoOrbital Ag 7   dxz \
	OrthoOrbital Ag 7   dx2-y2 \
	OrthoOrbital Ag 8   s \
	OrthoOrbital Ag 8   p \
	OrthoOrbital Ag 8   px \
	OrthoOrbital Ag 8   py \
	OrthoOrbital Ag 8   pz \
	OrthoOrbital Ag 8   d \
	OrthoOrbital Ag 8   dxy \
	OrthoOrbital Ag 8   dyz \
	OrthoOrbital Ag 8   dz2 \
	OrthoOrbital Ag 8   dxz \
	OrthoOrbital Ag 8   dx2-y2 \
	OrthoOrbital Ag 9   s \
	OrthoOrbital Ag 9   p \
	OrthoOrbital Ag 9   px \
	OrthoOrbital Ag 9   py \
	OrthoOrbital Ag 9   pz \
	OrthoOrbital Ag 9   d \
	OrthoOrbital Ag 9   dxy \
	OrthoOrbital Ag 9   dyz \
	OrthoOrbital Ag 9   dz2 \
	OrthoOrbital Ag 9   dxz \
	OrthoOrbital Ag 9   dx2-y2 \
	OrthoOrbital Ag 10   s \
	OrthoOrbital Ag 10   p \
	OrthoOrbital Ag 10   px \
	OrthoOrbital Ag 10   py \
	OrthoOrbital Ag 10   pz \
	OrthoOrbital Ag 10   d \
	OrthoOrbital Ag 10   dxy \
	OrthoOrbital Ag 10   dyz \
	OrthoOrbital Ag 10   dz2 \
	OrthoOrbital Ag 10   dxz \
	OrthoOrbital Ag 10   dx2-y2 \
	OrthoOrbital Ag 11   s \
	OrthoOrbital Ag 11   p \
	OrthoOrbital Ag 11   px \
	OrthoOrbital Ag 11   py \
	OrthoOrbital Ag 11   pz \
	OrthoOrbital Ag 11   d \
	OrthoOrbital Ag 11   dxy \
	OrthoOrbital Ag 11   dyz \
	OrthoOrbital Ag 11   dz2 \
	OrthoOrbital Ag 11   dxz \
	OrthoOrbital Ag 11   dx2-y2 \
	OrthoOrbital Ag 12   s \
	OrthoOrbital Ag 12   p \
	OrthoOrbital Ag 12   px \
	OrthoOrbital Ag 12   py \
	OrthoOrbital Ag 12   pz \
	OrthoOrbital Ag 12   d \
	OrthoOrbital Ag 12   dxy \
	OrthoOrbital Ag 12   dyz \
	OrthoOrbital Ag 12   dz2 \
	OrthoOrbital Ag 12   dxz \
	OrthoOrbital Ag 12   dx2-y2
dump End ElecDensity KEdensity BandEigs EigStats RhoAtom DOS Kpoints
dump Ionic State IonicPositions Lattice EigStats Ecomponents
dump 
dump 
dump 
dump 
dump 
dump 
dump 
dump 
dump-name jdft.$VAR
elec-cutoff 20
elec-eigen-algo Davidson
elec-ex-corr gga-PBE
elec-initial-magnetization 0.000000 no
elec-n-bands 137
elec-smearing Fermi 0.001
electronic-minimize  \
	dirUpdateScheme      FletcherReeves \
	linminMethod         DirUpdateRecommended \
	nIterations          100 \
	history              15 \
	knormThreshold       0 \
	energyDiffThreshold  1e-07 \
	nEnergyDiff          2 \
	alphaTstart          1 \
	alphaTmin            1e-10 \
	updateTestStepSize   yes \
	alphaTreduceFactor   0.1 \
	alphaTincreaseFactor 3 \
	nAlphaAdjustMax      3 \
	wolfeEnergy          0.0001 \
	wolfeGradient        0.9 \
	fdTest               no
exchange-regularization WignerSeitzTruncated
fluid LinearPCM 298.000000 1.013250
fluid-anion F- 0.5 MeanFieldLJ \
	epsBulk 1 \
	pMol 0 \
	epsInf 1 \
	Pvap 0 \
	sigmaBulk 0 \
	Rvdw 2.24877 \
	Res 0 \
	tauNuc 343133
fluid-cation Na+ 0.5 MeanFieldLJ \
	epsBulk 1 \
	pMol 0 \
	epsInf 1 \
	Pvap 0 \
	sigmaBulk 0 \
	Rvdw 2.19208 \
	Res 0 \
	tauNuc 343133
fluid-ex-corr lda-TF lda-PZ
fluid-gummel-loop 10 1.000000e-05
fluid-minimize  \
	dirUpdateScheme      PolakRibiere \
	linminMethod         DirUpdateRecommended \
	nIterations          400 \
	history              15 \
	knormThreshold       1e-11 \
	energyDiffThreshold  0 \
	nEnergyDiff          2 \
	alphaTstart          1 \
	alphaTmin            1e-10 \
	updateTestStepSize   yes \
	alphaTreduceFactor   0.1 \
	alphaTincreaseFactor 3 \
	nAlphaAdjustMax      6 \
	wolfeEnergy          0.0001 \
	wolfeGradient        0.9 \
	fdTest               no
fluid-solvent H2O 55.338 ScalarEOS \
	epsBulk 78.4 \
	pMol 0.92466 \
	epsInf 1.77 \
	Pvap 1.06736e-10 \
	sigmaBulk 4.62e-05 \
	Rvdw 2.61727 \
	Res 1.42 \
	tauNuc 343133 \
	poleEl 15 7 1
forces-output-coords Positions
ion Ag   0.000000000000000   0.000000000000000  17.994577000000000 1
ion Ag   0.000000000000000   4.425771000000000   2.347141000000000 1
ion Ag   0.000000000000000   8.851556000000000   5.476605000000000 1
ion Ag   0.000000000000000   0.000000000000000   8.606126000000000 1
ion Ag   0.000000000000000   4.425771000000000  11.735590999999999 1
ion Ag   5.420447000000000   8.851556000000000  14.865112000000002 1
ion Ag   2.710223000000000   0.000000000000000   3.911845000000000 1
ion Ag   2.710223000000000   4.425771000000000   7.041366000000001 1
ion Ag   2.710223000000000   8.851556000000000  10.170887000000002 1
ion Ag   2.710223000000000   0.000000000000000  13.300352000000000 1
ion Ag   2.710223000000000   4.425771000000000  16.429873000000004 1
ion Ag   2.710223000000000   8.851556000000000   0.782380000000000 1
ion-species /projects/musgravc/apps/jdftx-1.6.0/build/pseudopotentials/GBRV_v1.5/$ID_pbe_v1.uspp
ion-species /projects/musgravc/apps/jdftx-1.6.0/build/pseudopotentials/GBRV_v1.5/$ID_pbe_v1.2.uspp
ion-species /projects/musgravc/apps/jdftx-1.6.0/build/pseudopotentials/GBRV_v1.5/$ID_pbe_v1.4.uspp
ion-species /projects/musgravc/apps/jdftx-1.6.0/build/pseudopotentials/GBRV_v1.5/$ID_pbe_v1.5.uspp
ion-width Ecut
ionic-minimize  \
	dirUpdateScheme      L-BFGS \
	linminMethod         DirUpdateRecommended \
	nIterations          100 \
	history              15 \
	knormThreshold       0.0001 \
	energyDiffThreshold  1e-06 \
	nEnergyDiff          2 \
	alphaTstart          1 \
	alphaTmin            1e-10 \
	updateTestStepSize   yes \
	alphaTreduceFactor   0.1 \
	alphaTincreaseFactor 3 \
	nAlphaAdjustMax      3 \
	wolfeEnergy          0.0001 \
	wolfeGradient        0.9 \
	fdTest               no
kpoint   0.000000000000   0.000000000000   0.000000000000  1.00000000000000
kpoint-folding 12 5 1 
latt-move-scale 0 0 0
latt-scale 1 1 1 
lattice  \
	   5.420447000000000   -0.000000000000000    0.000000000000000  \
	   0.000000000000000   13.277327000000000    0.000000000000000  \
	   0.000000000000000    0.000000000000000   56.330927000000003 
lattice-minimize  \
	dirUpdateScheme      L-BFGS \
	linminMethod         DirUpdateRecommended \
	nIterations          0 \
	history              15 \
	knormThreshold       0 \
	energyDiffThreshold  1e-06 \
	nEnergyDiff          2 \
	alphaTstart          1 \
	alphaTmin            1e-10 \
	updateTestStepSize   yes \
	alphaTreduceFactor   0.1 \
	alphaTincreaseFactor 3 \
	nAlphaAdjustMax      3 \
	wolfeEnergy          0.0001 \
	wolfeGradient        0.9 \
	fdTest               no
lcao-params 30 1e-06 0.001
pcm-variant CANDLE
spintype z-spin
subspace-rotation-factor 1 yes
symmetries none
symmetry-threshold 0.0001
target-mu -0.1713 no

van-der-waals D3


Applied RMS atom displacement 0 bohrs to make symmetries exact.

---------- Initializing the Grid ----------
R = 
[      5.42045            0            0  ]
[            0      13.2773            0  ]
[            0            0      56.3309  ]
unit cell volume = 4054.08
G =
[    1.15916          0         -0  ]
[          0   0.473227          0  ]
[          0         -0   0.111541  ]
Minimum fftbox size, Smin = [  24  56  228  ]
Chosen fftbox size, S = [  24  56  240  ]

---------- Exchange Correlation functional ----------
Initalized PBE GGA exchange.
Initalized PBE GGA correlation.

---------- Setting up pseudopotentials ----------
Width of ionic core gaussian charges (only for fluid interactions / plotting) set to 0.397384

Reading pseudopotential file '/projects/musgravc/apps/jdftx-1.6.0/build/pseudopotentials/GBRV_v1.5/ag_pbe_v1.4.uspp':
  Title: Ag.  Created by USPP 7.3.6 on 1-4-15
  Reference state energy: -147.606242.  19 valence electrons in orbitals:
    |400>  occupation: 2  eigenvalue: -3.637437
    |410>  occupation: 6  eigenvalue: -2.297267
    |420>  occupation: 10  eigenvalue: -0.417763
    |500>  occupation: 0.5  eigenvalue: -0.283525
    |510>  occupation: 0  eigenvalue: -0.122889
  lMax: 2  lLocal: 0  QijEcut: 5.5
  6 projectors sampled on a log grid with 717 points:
    l: 0  eig: -0.283528  rCut: 1.5
    l: 0  eig: -3.637440  rCut: 1.5
    l: 1  eig: -0.122892  rCut: 1.5
    l: 1  eig: -2.297267  rCut: 1.5
    l: 2  eig: -0.417762  rCut: 1.7
    l: 2  eig: -1.000000  rCut: 1.7
  Partial core density with radius 1.2
  Transforming core density to a uniform radial grid of dG=0.02 with 1176 points.
  Transforming local potential to a uniform radial grid of dG=0.02 with 1176 points.
  Transforming nonlocal projectors to a uniform radial grid of dG=0.02 with 432 points.
  Transforming density augmentations to a uniform radial grid of dG=0.02 with 1176 points.
  Transforming atomic orbitals to a uniform radial grid of dG=0.02 with 432 points.
  Core radius for overlap checks: 1.70 bohrs.

Initialized 1 species with 12 total atoms.

Folded 1 k-points by 12x5x1 to 60 k-points.

---------- Setting up k-points, bands, fillings ----------
No reducable k-points. 
Computing the number of bands and number of electrons
Calculating initial fillings.
nElectrons: 228.000000   nBands: 137   nStates: 120

----- Setting up reduced wavefunction bases (one per k-point) -----
average nbasis = 17322.383 , ideal nbasis = 17319.352

----- Initializing Supercell corresponding to k-point mesh -----
Lattice vector linear combinations in supercell:
[  12   0   0  ]
[   0   5   0  ]
[   0   0   1  ]
Supercell lattice vectors:
[  65.0454  0  0  ]
[  0  66.3866  0  ]
[  0  0  56.3309  ]

Initializing DFT-D3 calculator:
	Parameters set for gga-PBE functional
	s6:  1.000  s_r6:  1.217
	s8:  0.722  s_r8:  1.000
	Per-atom parameters loaded for:
	Ag:  sqrtQ[a0]:  5.443  Rcov[a0]:  2.173  CN: [ 0.00 0.97 ]

Initializing DFT-D2 calculator for fluid / solvation:
	Ag:  C6:  427.91 Eh-a0^6  R0: 3.097 a0

---------- Setting up ewald sum ----------
Optimum gaussian width for ewald sums = 4.204142 bohr.
Real space sum over 1045 unit cells with max indices [  9  5  2  ]
Reciprocal space sum over 4095 terms with max indices [  3  6  22  ]

Computing DFT-D3 correction:
# coordination-number Ag 5.359 6.871 9.174 9.203 9.199 7.666 7.666 9.199 9.203 9.174 6.871 5.359
# diagonal-C6 Ag 268.61 268.61 268.61 268.61 268.61 268.61 268.61 268.61 268.61 268.61 268.61 268.61
EvdW_6 =   -0.068574
EvdW_8 =   -0.096173

---------- Allocating electronic variables ----------
Initializing wave functions:  linear combination of atomic orbitals
Ag pseudo-atom occupations:   s ( 2 1 )  p ( 6 0 )  d ( 10 )
	FillingsUpdate:  mu: -0.171300000  nElectrons: 228.000000  magneticMoment: [ Abs: 0.00091  Tot: -0.00005 ]
LCAOMinimize: Iter:   0  G: -1732.0131033947156993  |grad|_K:  7.029e-04  alpha:  1.000e+00
	FillingsUpdate:  mu: -0.171300000  nElectrons: 228.000000  magneticMoment: [ Abs: 0.00072  Tot: -0.00003 ]
LCAOMinimize: Iter:   1  G: -1732.0420801781965565  |grad|_K:  8.757e-04  alpha:  2.548e-01  linmin:  5.993e-02  cgtest: -6.817e-01  t[s]:     81.05
	FillingsUpdate:  mu: -0.171300000  nElectrons: 228.000000  magneticMoment: [ Abs: 0.00067  Tot: -0.00004 ]
LCAOMinimize: Iter:   2  G: -1732.0436120407557610  |grad|_K:  9.151e-04  alpha:  3.544e-02  linmin:  2.738e-03  cgtest:  1.008e+00  t[s]:    114.24
	FillingsUpdate:  mu: -0.171300000  nElectrons: 228.000000  magneticMoment: [ Abs: 0.00068  Tot: -0.00006 ]
LCAOMinimize: Iter:   3  G: -1732.1650010238740833  |grad|_K:  1.115e-04  alpha:  9.442e-02  linmin: -1.212e-01  cgtest:  5.714e-01  t[s]:    147.50
LCAOMinimize: Encountered beta<0, resetting CG.
LCAOMinimize: 	Predicted alpha/alphaT>3.000000, increasing alphaT to 2.832495e-01.
	FillingsUpdate:  mu: -0.171300000  nElectrons: 228.000000  magneticMoment: [ Abs: 0.00066  Tot: -0.00007 ]
LCAOMinimize: Iter:   4  G: -1732.1702787342310330  |grad|_K:  1.083e-04  alpha:  2.873e-01  linmin:  1.373e-03  cgtest:  1.144e-02  t[s]:    189.70
	FillingsUpdate:  mu: -0.171300000  nElectrons: 228.000000  magneticMoment: [ Abs: 0.00063  Tot: -0.00008 ]
LCAOMinimize: Iter:   5  G: -1732.1733486623236331  |grad|_K:  2.361e-05  alpha:  1.827e-01  linmin:  4.831e-03  cgtest: -3.140e-02  t[s]:    222.71
	FillingsUpdate:  mu: -0.171300000  nElectrons: 228.000000  magneticMoment: [ Abs: 0.00063  Tot: -0.00008 ]
LCAOMinimize: Iter:   6  G: -1732.1734722833948581  |grad|_K:  2.960e-05  alpha:  1.508e-01  linmin:  2.654e-03  cgtest: -1.534e-02  t[s]:    255.49
	FillingsUpdate:  mu: -0.171300000  nElectrons: 228.000000  magneticMoment: [ Abs: 0.00063  Tot: -0.00008 ]
LCAOMinimize: Iter:   7  G: -1732.1735654925396375  |grad|_K:  2.023e-06  alpha:  7.263e-02  linmin:  3.429e-02  cgtest:  1.927e-01  t[s]:    288.57
LCAOMinimize: Encountered beta<0, resetting CG.
	FillingsUpdate:  mu: -0.171300000  nElectrons: 228.000000  magneticMoment: [ Abs: 0.00063  Tot: -0.00008 ]
LCAOMinimize: Iter:   8  G: -1732.1735662232294999  |grad|_K:  1.869e-06  alpha:  1.037e-01  linmin: -7.508e-02  cgtest:  5.916e-01  t[s]:    321.52
	FillingsUpdate:  mu: -0.171300000  nElectrons: 228.000000  magneticMoment: [ Abs: 0.00063  Tot: -0.00008 ]
LCAOMinimize: Iter:   9  G: -1732.1735667299822126  |grad|_K:  1.637e-06  alpha:  8.783e-02  linmin: -4.826e-02  cgtest:  2.187e-01  t[s]:    354.48
LCAOMinimize: Converged (|Delta G|<1.000000e-06 for 2 iters).
----- createFluidSolver() ----- (Fluid-side solver setup)
   Initializing fluid molecule 'H2O'
     Initializing site 'O'
       Electron density: proportional to exp(-r/0.36935)*erfc((r-0.51523)/0.36823) with norm 6.826
       Charge density: gaussian nuclear width 0.478731 with net site charge 0.826
       Polarizability: cuspless exponential with width 0.32 and norm 3.73
       Hard sphere radius: 2.57003 bohrs
       Positions in reference frame:
         [ +0.000000 +0.000000 +0.000000 ]
     Initializing site 'H'
       Electron density: proportional to exp(-r/0.34641)*erfc((r-0)/0.390882) with norm 0.587
       Charge density: gaussian nuclear width 0.377945 with net site charge -0.413
       Polarizability: cuspless exponential with width 0.39 and norm 3.3
       Positions in reference frame:
         [ +0.000000 -1.441945 +1.122523 ]
         [ +0.000000 +1.441945 +1.122523 ]
     Net charge: 0   dipole magnitude: 0.927204
     Initializing spherical shell mfKernel with radius 2.61727 Bohr
     deltaS corrections:
       site 'O': -7.54299
       site 'H': -6.83917
   Initializing fluid molecule 'Na+'
     Initializing site 'Na'
       Electron density: proportional to exp(-r/0.19682)*erfc((r-0.71491)/0.41314) with norm 8.1383
       Charge density: gaussian nuclear width 0.365347 with net site charge -1
       Hard sphere radius: 1.86327 bohrs
       Positions in reference frame:
         [ +0.000000 +0.000000 +0.000000 ]
     Net charge: -1   dipole magnitude: 0
     Initializing gaussian mfKernel with width: 1.55004 Bohr
     deltaS corrections:
       site 'Na': -22.3555
   Initializing fluid molecule 'F-'
     Initializing site 'F'
       Electron density: proportional to exp(-r/0.38886)*erfc((r-0)/0.438782) with norm 8
       Charge density: gaussian nuclear width 0.374796 with net site charge 1
       Hard sphere radius: 2.39995 bohrs
       Positions in reference frame:
         [ +0.000000 +0.000000 +0.000000 ]
     Net charge: 1   dipole magnitude: 0
     Initializing gaussian mfKernel with width: 1.59012 Bohr
     deltaS corrections:
       site 'F': -9.04335

Correction to mu due to finite nuclear width = -0.055801
   Cavity determined by nc: 0.00142 and sigma: 0.707107
   Nonlocal vdW cavity from gaussian model electron density with norm = 8 and sigma = 0.993594 bohr
   Charge asymmetry in cavity with sensitivity pCavity = 36.5 e-bohr/Eh
   Electrostatic cavity expanded by eta = 1.46 bohrs
   Weighted density cavitation model constrained by Nbulk: 0.0049383 bohr^-3, Pvap: 3.14029 kPa, Rvdw: 2.61727 bohr and sigmaBulk: 4.62e-05 Eh/bohr^2 at T: 298 K.
   Weighted density dispersion model using vdW pair potentials with single solvent site with sqrtC6eff: 0.77 SI.


---- Citations for features of the code used in this run ----

   Software package:
      R. Sundararaman, K. Letchworth-Weaver, K.A. Schwarz, D. Gunceler, Y. Ozhabes and T.A. Arias, 'JDFTx: software for joint density-functional theory', SoftwareX 6, 278 (2017)

   gga-PBE exchange-correlation functional:
      J.P. Perdew, K. Burke and M. Ernzerhof, Phys. Rev. Lett. 77, 3865 (1996)

   Pseudopotentials:
      KF Garrity, JW Bennett, KM Rabe and D Vanderbilt, Comput. Mater. Sci. 81, 446 (2014)

   DFT-D3 dispersion correction:
      S. Grimme, J. Antony, S. Ehrlich and H. Krieg, J. Chem. Phys. 132, 154104 (2010)

   DFT-D2 dispersion correction:
      S. Grimme, J. Comput. Chem. 27, 1787 (2006)

   Charge-asymmetric nonlocally-determined local-electric (CANDLE) solvation model:
      R. Sundararaman and W.A. Goddard III, J. Chem. Phys. 142, 064107 (2015)

   Total energy minimization with Auxiliary Hamiltonian:
      C. Freysoldt, S. Boeck, and J. Neugebauer, Phys. Rev. B 79, 241103(R) (2009)

   Grand-canonical (fixed-potential) DFT:
      R. Sundararaman, W. A. Goddard III and T. A. Arias, J. Chem. Phys. 146, 114104 (2017)

   Linear-tetrahedron sampling for density of states:
      G. Lehmann and M. Taut, Phys. status solidi (b) 54, 469 (1972)

This list may not be complete. Please suggest additional citations or
report any other bugs at https://github.com/shankar1729/jdftx/issues

Initialization completed successfully at t[s]:    361.43


Computing DFT-D3 correction:
# coordination-number Ag 5.359 6.871 9.174 9.203 9.199 7.666 7.666 9.199 9.203 9.174 6.871 5.359
# diagonal-C6 Ag 268.61 268.61 268.61 268.61 268.61 268.61 268.61 268.61 268.61 268.61 268.61 268.61
EvdW_6 =   -0.068574
EvdW_8 =   -0.096173
Fluid solver invoked on fresh (random / LCAO) wavefunctions
Running a vacuum solve first:

-------- Initial electronic minimization -----------
	FillingsUpdate:  mu: +0.107501826  nElectrons: 228.000000  magneticMoment: [ Abs: 0.00063  Tot: -0.00008 ]
ElecMinimize: Iter:   0  G: -1732.173919049728056  |grad|_K:  2.007e-05  alpha:  1.000e+00
	FillingsUpdate:  mu: +0.116189272  nElectrons: 228.000000  magneticMoment: [ Abs: 0.00049  Tot: -0.00008 ]
	SubspaceRotationAdjust: set factor to 1
ElecMinimize: Iter:   1  G: -1732.225368951424571  |grad|_K:  1.410e-05  alpha:  4.479e-01  linmin:  2.527e-05  t[s]:    433.46
	FillingsUpdate:  mu: +0.106345131  nElectrons: 228.000000  magneticMoment: [ Abs: 0.00039  Tot: -0.00008 ]
	SubspaceRotationAdjust: set factor to 0.892
ElecMinimize: Iter:   2  G: -1732.240778132707646  |grad|_K:  8.950e-06  alpha:  2.705e-01  linmin: -2.671e-05  t[s]:    477.67
	FillingsUpdate:  mu: +0.109914858  nElectrons: 228.000000  magneticMoment: [ Abs: 0.00036  Tot: -0.00008 ]
	SubspaceRotationAdjust: set factor to 0.574
ElecMinimize: Iter:   3  G: -1732.242564144756216  |grad|_K:  8.246e-06  alpha:  7.866e-02  linmin:  6.766e-05  t[s]:    522.86
	FillingsUpdate:  mu: +0.121046644  nElectrons: 228.000000  magneticMoment: [ Abs: 0.00028  Tot: -0.00007 ]
	SubspaceRotationAdjust: set factor to 0.544
ElecMinimize: Iter:   4  G: -1732.246236875746263  |grad|_K:  4.705e-06  alpha:  1.903e-01  linmin: -2.113e-05  t[s]:    567.05
	FillingsUpdate:  mu: +0.111822570  nElectrons: 228.000000  magneticMoment: [ Abs: 0.00023  Tot: -0.00007 ]
	SubspaceRotationAdjust: set factor to 0.473
ElecMinimize: Iter:   5  G: -1732.247646274031695  |grad|_K:  3.954e-06  alpha:  2.226e-01  linmin:  8.365e-05  t[s]:    611.18
	FillingsUpdate:  mu: +0.109294957  nElectrons: 228.000000  magneticMoment: [ Abs: 0.00020  Tot: -0.00007 ]
	SubspaceRotationAdjust: set factor to 0.337
ElecMinimize: Iter:   6  G: -1732.248218063135255  |grad|_K:  2.985e-06  alpha:  1.284e-01  linmin: -1.124e-05  t[s]:    655.27
	FillingsUpdate:  mu: +0.113547453  nElectrons: 228.000000  magneticMoment: [ Abs: 0.00015  Tot: -0.00006 ]
	SubspaceRotationAdjust: set factor to 0.52
ElecMinimize: Iter:   7  G: -1732.248919566212862  |grad|_K:  1.915e-06  alpha:  2.753e-01  linmin:  1.463e-05  t[s]:    699.72
	FillingsUpdate:  mu: +0.115766503  nElectrons: 228.000000  magneticMoment: [ Abs: 0.00013  Tot: -0.00005 ]
	SubspaceRotationAdjust: set factor to 0.407
ElecMinimize: Iter:   8  G: -1732.249157715900537  |grad|_K:  1.861e-06  alpha:  2.276e-01  linmin: -6.487e-06  t[s]:    743.93
	FillingsUpdate:  mu: +0.115952188  nElectrons: 228.000000  magneticMoment: [ Abs: 0.00011  Tot: -0.00005 ]
	SubspaceRotationAdjust: set factor to 0.293
ElecMinimize: Iter:   9  G: -1732.249311859761519  |grad|_K:  1.011e-06  alpha:  1.555e-01  linmin: -7.111e-07  t[s]:    788.62
	FillingsUpdate:  mu: +0.114073191  nElectrons: 228.000000  magneticMoment: [ Abs: 0.00009  Tot: -0.00004 ]
	SubspaceRotationAdjust: set factor to 0.264
ElecMinimize: Iter:  10  G: -1732.249413119951896  |grad|_K:  6.981e-07  alpha:  3.475e-01  linmin:  5.014e-05  t[s]:    832.68
	FillingsUpdate:  mu: +0.115225403  nElectrons: 228.000000  magneticMoment: [ Abs: 0.00008  Tot: -0.00003 ]
	SubspaceRotationAdjust: set factor to 0.305
ElecMinimize: Iter:  11  G: -1732.249473032095693  |grad|_K:  4.779e-07  alpha:  4.334e-01  linmin:  1.794e-05  t[s]:    876.88
	FillingsUpdate:  mu: +0.115875221  nElectrons: 228.000000  magneticMoment: [ Abs: 0.00006  Tot: -0.00002 ]
	SubspaceRotationAdjust: set factor to 0.285
ElecMinimize: Iter:  12  G: -1732.249494461338827  |grad|_K:  3.731e-07  alpha:  3.289e-01  linmin:  1.010e-06  t[s]:    920.97
	FillingsUpdate:  mu: +0.115729022  nElectrons: 228.000000  magneticMoment: [ Abs: 0.00005  Tot: -0.00002 ]
	SubspaceRotationAdjust: set factor to 0.238
ElecMinimize: Iter:  13  G: -1732.249506942983999  |grad|_K:  2.807e-07  alpha:  3.136e-01  linmin:  5.953e-06  t[s]:    965.03
	FillingsUpdate:  mu: +0.115517503  nElectrons: 228.000000  magneticMoment: [ Abs: 0.00005  Tot: -0.00002 ]
	SubspaceRotationAdjust: set factor to 0.208
ElecMinimize: Iter:  14  G: -1732.249513542265049  |grad|_K:  2.080e-07  alpha:  2.934e-01  linmin:  3.658e-06  t[s]:   1008.98
	FillingsUpdate:  mu: +0.115625252  nElectrons: 228.000000  magneticMoment: [ Abs: 0.00004  Tot: -0.00001 ]
	SubspaceRotationAdjust: set factor to 0.254
ElecMinimize: Iter:  15  G: -1732.249518293628626  |grad|_K:  1.398e-07  alpha:  3.849e-01  linmin:  5.274e-06  t[s]:   1053.23
	FillingsUpdate:  mu: +0.115790883  nElectrons: 228.000000  magneticMoment: [ Abs: 0.00003  Tot: -0.00001 ]
	SubspaceRotationAdjust: set factor to 0.247
ElecMinimize: Iter:  16  G: -1732.249520584760148  |grad|_K:  1.208e-07  alpha:  4.111e-01  linmin:  2.115e-06  t[s]:   1098.19
	FillingsUpdate:  mu: +0.115806443  nElectrons: 228.000000  magneticMoment: [ Abs: 0.00003  Tot: -0.00001 ]
	SubspaceRotationAdjust: set factor to 0.209
ElecMinimize: Iter:  17  G: -1732.249521802324125  |grad|_K:  8.623e-08  alpha:  2.920e-01  linmin:  3.683e-07  t[s]:   1142.48
	FillingsUpdate:  mu: +0.115735845  nElectrons: 228.000000  magneticMoment: [ Abs: 0.00002  Tot: -0.00001 ]
	SubspaceRotationAdjust: set factor to 0.221
ElecMinimize: Iter:  18  G: -1732.249522578949154  |grad|_K:  5.969e-08  alpha:  3.656e-01  linmin:  1.557e-06  t[s]:   1186.55
	FillingsUpdate:  mu: +0.115740068  nElectrons: 228.000000  magneticMoment: [ Abs: 0.00002  Tot: -0.00000 ]
	SubspaceRotationAdjust: set factor to 0.243
ElecMinimize: Iter:  19  G: -1732.249522968623296  |grad|_K:  4.703e-08  alpha:  3.830e-01  linmin:  8.741e-07  t[s]:   1230.73
	FillingsUpdate:  mu: +0.115779378  nElectrons: 228.000000  magneticMoment: [ Abs: 0.00001  Tot: -0.00000 ]
	SubspaceRotationAdjust: set factor to 0.225
ElecMinimize: Iter:  20  G: -1732.249523184327245  |grad|_K:  3.385e-08  alpha:  3.414e-01  linmin: -1.929e-07  t[s]:   1274.97
	FillingsUpdate:  mu: +0.115786481  nElectrons: 228.000000  magneticMoment: [ Abs: 0.00001  Tot: -0.00000 ]
	SubspaceRotationAdjust: set factor to 0.213
ElecMinimize: Iter:  21  G: -1732.249523299981547  |grad|_K:  2.651e-08  alpha:  3.524e-01  linmin: -1.074e-06  t[s]:   1319.31
	FillingsUpdate:  mu: +0.115769518  nElectrons: 228.000000  magneticMoment: [ Abs: 0.00001  Tot: -0.00000 ]
	SubspaceRotationAdjust: set factor to 0.233
ElecMinimize: Iter:  22  G: -1732.249523369486951  |grad|_K:  1.811e-08  alpha:  3.449e-01  linmin:  4.106e-07  t[s]:   1363.57
	FillingsUpdate:  mu: +0.115767291  nElectrons: 228.000000  magneticMoment: [ Abs: 0.00001  Tot: -0.00000 ]
	SubspaceRotationAdjust: set factor to 0.253
ElecMinimize: Iter:  23  G: -1732.249523407567722  |grad|_K:  1.393e-08  alpha:  4.071e-01  linmin:  7.437e-07  t[s]:   1408.89
ElecMinimize: Converged (|Delta G|<1.000000e-07 for 2 iters).
Setting wave functions to eigenvectors of Hamiltonian
Converging empty states (this may take a while): |deigs|: 1.449e-02
Vacuum energy after initial minimize, F = -1732.249523407567722

Shifting auxilliary hamiltonian by -0.287067 to set nElectrons=228.000000

-------- Electronic minimization -----------
	Linear fluid (dielectric constant: 78.4, screening length: 8.12261 Bohr) occupying 0.516696 of unit cell:	Completed after 20 iterations at t[s]:   1563.08
	FillingsUpdate:  mu: -0.171300000  nElectrons: 228.000000  magneticMoment: [ Abs: 0.00000  Tot: -0.00000 ]
ElecMinimize: Iter:   0  G: -1732.250297969037092  |grad|_K:  4.735e-06  alpha:  1.000e+00
	Linear fluid (dielectric constant: 78.4, screening length: 8.12261 Bohr) occupying 0.519008 of unit cell:	Completed after 20 iterations at t[s]:   1600.11
	Linear fluid (dielectric constant: 78.4, screening length: 8.12261 Bohr) occupying 0.516993 of unit cell:	Completed after 20 iterations at t[s]:   1613.57
	FillingsUpdate:  mu: -0.171300000  nElectrons: 227.919569  magneticMoment: [ Abs: 0.00000  Tot: -0.00000 ]
	SubspaceRotationAdjust: set factor to 0.149
ElecMinimize: Iter:   1  G: -1732.250685855605980  |grad|_K:  4.276e-06  alpha:  1.346e-01  linmin:  2.154e-02  t[s]:   1632.83
	Linear fluid (dielectric constant: 78.4, screening length: 8.12261 Bohr) occupying 0.517616 of unit cell:	Completed after 15 iterations at t[s]:   1648.32
ElecMinimize: 	Predicted alpha/alphaT>3.000000, increasing alphaT to 4.039425e-01.
	Linear fluid (dielectric constant: 78.4, screening length: 8.12261 Bohr) occupying 0.518810 of unit cell:	Completed after 15 iterations at t[s]:   1661.50
	Linear fluid (dielectric constant: 78.4, screening length: 8.12261 Bohr) occupying 0.518932 of unit cell:	Completed after 11 iterations at t[s]:   1674.21
	FillingsUpdate:  mu: -0.171300000  nElectrons: 227.877750  magneticMoment: [ Abs: 0.00000  Tot: -0.00000 ]
	SubspaceRotationAdjust: set factor to 0.132
ElecMinimize: Iter:   2  G: -1732.251821239069841  |grad|_K:  1.759e-06  alpha:  4.322e-01  linmin:  7.630e-04  t[s]:   1693.60
	Linear fluid (dielectric constant: 78.4, screening length: 8.12261 Bohr) occupying 0.519767 of unit cell:	Completed after 15 iterations at t[s]:   1709.15
	Linear fluid (dielectric constant: 78.4, screening length: 8.12261 Bohr) occupying 0.519786 of unit cell:	Completed after 8 iterations at t[s]:   1721.75
	FillingsUpdate:  mu: -0.171300000  nElectrons: 227.859836  magneticMoment: [ Abs: 0.00001  Tot: -0.00000 ]
	SubspaceRotationAdjust: set factor to 0.13
ElecMinimize: Iter:   3  G: -1732.252207353590848  |grad|_K:  1.531e-06  alpha:  4.422e-01  linmin: -2.728e-05  t[s]:   1741.01
	Linear fluid (dielectric constant: 78.4, screening length: 8.12261 Bohr) occupying 0.520893 of unit cell:	Completed after 15 iterations at t[s]:   1756.70
	Linear fluid (dielectric constant: 78.4, screening length: 8.12261 Bohr) occupying 0.520762 of unit cell:	Completed after 11 iterations at t[s]:   1769.44
	FillingsUpdate:  mu: -0.171300000  nElectrons: 227.872244  magneticMoment: [ Abs: 0.00001  Tot: -0.00000 ]
	SubspaceRotationAdjust: set factor to 0.097
ElecMinimize: Iter:   4  G: -1732.252468092555091  |grad|_K:  1.232e-06  alpha:  3.890e-01  linmin: -1.726e-05  t[s]:   1788.58
	Linear fluid (dielectric constant: 78.4, screening length: 8.12261 Bohr) occupying 0.521669 of unit cell:	Completed after 15 iterations at t[s]:   1804.16
	Linear fluid (dielectric constant: 78.4, screening length: 8.12261 Bohr) occupying 0.522306 of unit cell:	Completed after 14 iterations at t[s]:   1817.19
	FillingsUpdate:  mu: -0.171300000  nElectrons: 227.834655  magneticMoment: [ Abs: 0.00001  Tot: -0.00000 ]
	SubspaceRotationAdjust: set factor to 0.0748
ElecMinimize: Iter:   5  G: -1732.252758437769444  |grad|_K:  1.183e-06  alpha:  6.698e-01  linmin:  9.567e-05  t[s]:   1836.43
	Linear fluid (dielectric constant: 78.4, screening length: 8.12261 Bohr) occupying 0.523945 of unit cell:	Completed after 15 iterations at t[s]:   1851.91
	Linear fluid (dielectric constant: 78.4, screening length: 8.12261 Bohr) occupying 0.523627 of unit cell:	Completed after 11 iterations at t[s]:   1864.66
	FillingsUpdate:  mu: -0.171300000  nElectrons: 227.825158  magneticMoment: [ Abs: 0.00002  Tot: -0.00000 ]
	SubspaceRotationAdjust: set factor to 0.068
ElecMinimize: Iter:   6  G: -1732.252970363473651  |grad|_K:  9.291e-07  alpha:  5.360e-01  linmin: -8.673e-05  t[s]:   1883.96
	Linear fluid (dielectric constant: 78.4, screening length: 8.12261 Bohr) occupying 0.524474 of unit cell:	Completed after 12 iterations at t[s]:   1899.35
	Linear fluid (dielectric constant: 78.4, screening length: 8.12261 Bohr) occupying 0.524446 of unit cell:	Completed after 6 iterations at t[s]:   1911.70
	FillingsUpdate:  mu: -0.171300000  nElectrons: 227.809411  magneticMoment: [ Abs: 0.00002  Tot: -0.00000 ]
	SubspaceRotationAdjust: set factor to 0.0745
ElecMinimize: Iter:   7  G: -1732.253098930940268  |grad|_K:  6.830e-07  alpha:  5.179e-01  linmin:  4.120e-05  t[s]:   1930.94
	Linear fluid (dielectric constant: 78.4, screening length: 8.12261 Bohr) occupying 0.524888 of unit cell:	Completed after 12 iterations at t[s]:   1946.18
	Linear fluid (dielectric constant: 78.4, screening length: 8.12261 Bohr) occupying 0.524827 of unit cell:	Completed after 9 iterations at t[s]:   1958.81
	FillingsUpdate:  mu: -0.171300000  nElectrons: 227.801200  magneticMoment: [ Abs: 0.00001  Tot: -0.00000 ]
	SubspaceRotationAdjust: set factor to 0.0817
ElecMinimize: Iter:   8  G: -1732.253158083490007  |grad|_K:  5.523e-07  alpha:  4.444e-01  linmin:  2.449e-05  t[s]:   1978.93
	Linear fluid (dielectric constant: 78.4, screening length: 8.12261 Bohr) occupying 0.525083 of unit cell:	Completed after 12 iterations at t[s]:   1994.70
	Linear fluid (dielectric constant: 78.4, screening length: 8.12261 Bohr) occupying 0.525089 of unit cell:	Completed after 2 iterations at t[s]:   2006.71
	FillingsUpdate:  mu: -0.171300000  nElectrons: 227.799863  magneticMoment: [ Abs: 0.00001  Tot: -0.00000 ]
	SubspaceRotationAdjust: set factor to 0.0861
ElecMinimize: Iter:   9  G: -1732.253197601705551  |grad|_K:  4.080e-07  alpha:  4.538e-01  linmin: -3.921e-05  t[s]:   2025.88
	Linear fluid (dielectric constant: 78.4, screening length: 8.12261 Bohr) occupying 0.525251 of unit cell:	Completed after 11 iterations at t[s]:   2041.09
	Linear fluid (dielectric constant: 78.4, screening length: 8.12261 Bohr) occupying 0.525329 of unit cell:	Completed after 10 iterations at t[s]:   2053.91
	FillingsUpdate:  mu: -0.171300000  nElectrons: 227.794836  magneticMoment: [ Abs: 0.00001  Tot: -0.00000 ]
	SubspaceRotationAdjust: set factor to 0.0956
ElecMinimize: Iter:  10  G: -1732.253229778182458  |grad|_K:  3.526e-07  alpha:  6.757e-01  linmin:  5.409e-05  t[s]:   2073.37
	Linear fluid (dielectric constant: 78.4, screening length: 8.12261 Bohr) occupying 0.525560 of unit cell:	Completed after 11 iterations at t[s]:   2088.63
	Linear fluid (dielectric constant: 78.4, screening length: 8.12261 Bohr) occupying 0.525547 of unit cell:	Completed after 3 iterations at t[s]:   2100.77
	FillingsUpdate:  mu: -0.171300000  nElectrons: 227.794277  magneticMoment: [ Abs: 0.00001  Tot: -0.00000 ]
	SubspaceRotationAdjust: set factor to 0.104
ElecMinimize: Iter:  11  G: -1732.253252333660612  |grad|_K:  3.220e-07  alpha:  6.363e-01  linmin: -3.741e-06  t[s]:   2119.96
	Linear fluid (dielectric constant: 78.4, screening length: 8.12261 Bohr) occupying 0.525785 of unit cell:	Completed after 11 iterations at t[s]:   2135.13
	Linear fluid (dielectric constant: 78.4, screening length: 8.12261 Bohr) occupying 0.525739 of unit cell:	Completed after 3 iterations at t[s]:   2147.29
	FillingsUpdate:  mu: -0.171300000  nElectrons: 227.791845  magneticMoment: [ Abs: 0.00000  Tot: -0.00000 ]
	SubspaceRotationAdjust: set factor to 0.116
ElecMinimize: Iter:  12  G: -1732.253267550394185  |grad|_K:  2.750e-07  alpha:  5.132e-01  linmin:  3.419e-06  t[s]:   2166.49
	Linear fluid (dielectric constant: 78.4, screening length: 8.12261 Bohr) occupying 0.525927 of unit cell:	Completed after 9 iterations at t[s]:   2181.50
	Linear fluid (dielectric constant: 78.4, screening length: 8.12261 Bohr) occupying 0.525928 of unit cell:	Completed after 0 iterations at t[s]:   2193.40
	FillingsUpdate:  mu: -0.171300000  nElectrons: 227.790243  magneticMoment: [ Abs: 0.00000  Tot: -0.00000 ]
	SubspaceRotationAdjust: set factor to 0.128
ElecMinimize: Iter:  13  G: -1732.253278722346522  |grad|_K:  2.225e-07  alpha:  5.169e-01  linmin: -2.401e-05  t[s]:   2212.72
	Linear fluid (dielectric constant: 78.4, screening length: 8.12261 Bohr) occupying 0.526094 of unit cell:	Completed after 8 iterations at t[s]:   2227.69
	Linear fluid (dielectric constant: 78.4, screening length: 8.12261 Bohr) occupying 0.526096 of unit cell:	Completed after 0 iterations at t[s]:   2239.44
	FillingsUpdate:  mu: -0.171300000  nElectrons: 227.788804  magneticMoment: [ Abs: 0.00000  Tot: -0.00000 ]
	SubspaceRotationAdjust: set factor to 0.143
ElecMinimize: Iter:  14  G: -1732.253286141205535  |grad|_K:  1.748e-07  alpha:  5.232e-01  linmin: -2.275e-05  t[s]:   2258.59
	Linear fluid (dielectric constant: 78.4, screening length: 8.12261 Bohr) occupying 0.526234 of unit cell:	Completed after 11 iterations at t[s]:   2273.77
	Linear fluid (dielectric constant: 78.4, screening length: 8.12261 Bohr) occupying 0.526225 of unit cell:	Completed after 2 iterations at t[s]:   2286.82
	FillingsUpdate:  mu: -0.171300000  nElectrons: 227.786147  magneticMoment: [ Abs: 0.00000  Tot: -0.00000 ]
	SubspaceRotationAdjust: set factor to 0.139
ElecMinimize: Iter:  15  G: -1732.253290390787470  |grad|_K:  1.513e-07  alpha:  4.855e-01  linmin:  6.601e-05  t[s]:   2306.09
	Linear fluid (dielectric constant: 78.4, screening length: 8.12261 Bohr) occupying 0.526346 of unit cell:	Completed after 10 iterations at t[s]:   2321.31
	Linear fluid (dielectric constant: 78.4, screening length: 8.12261 Bohr) occupying 0.526313 of unit cell:	Completed after 9 iterations at t[s]:   2333.82
	FillingsUpdate:  mu: -0.171300000  nElectrons: 227.786693  magneticMoment: [ Abs: 0.00000  Tot: -0.00000 ]
	SubspaceRotationAdjust: set factor to 0.106
ElecMinimize: Iter:  16  G: -1732.253292667575579  |grad|_K:  1.231e-07  alpha:  3.513e-01  linmin: -6.759e-05  t[s]:   2353.11
	Linear fluid (dielectric constant: 78.4, screening length: 8.12261 Bohr) occupying 0.526384 of unit cell:	Completed after 11 iterations at t[s]:   2368.31
	Linear fluid (dielectric constant: 78.4, screening length: 8.12261 Bohr) occupying 0.526378 of unit cell:	Completed after 2 iterations at t[s]:   2380.46
	FillingsUpdate:  mu: -0.171300000  nElectrons: 227.784602  magneticMoment: [ Abs: 0.00000  Tot: -0.00000 ]
	SubspaceRotationAdjust: set factor to 0.0802
ElecMinimize: Iter:  17  G: -1732.253294067140359  |grad|_K:  9.189e-08  alpha:  3.216e-01  linmin:  2.143e-04  t[s]:   2399.73
	Linear fluid (dielectric constant: 78.4, screening length: 8.12261 Bohr) occupying 0.526422 of unit cell:	Completed after 8 iterations at t[s]:   2414.83
	Linear fluid (dielectric constant: 78.4, screening length: 8.12261 Bohr) occupying 0.526436 of unit cell:	Completed after 2 iterations at t[s]:   2426.87
	FillingsUpdate:  mu: -0.171300000  nElectrons: 227.784122  magneticMoment: [ Abs: 0.00000  Tot: -0.00000 ]
	SubspaceRotationAdjust: set factor to 0.102
ElecMinimize: Iter:  18  G: -1732.253295090251186  |grad|_K:  6.358e-08  alpha:  4.278e-01  linmin: -2.294e-04  t[s]:   2446.20
	Linear fluid (dielectric constant: 78.4, screening length: 8.12261 Bohr) occupying 0.526469 of unit cell:	Completed after 8 iterations at t[s]:   2461.18
	Linear fluid (dielectric constant: 78.4, screening length: 8.12261 Bohr) occupying 0.526470 of unit cell:	Completed after 0 iterations at t[s]:   2473.13
	FillingsUpdate:  mu: -0.171300000  nElectrons: 227.784125  magneticMoment: [ Abs: 0.00000  Tot: -0.00000 ]
	SubspaceRotationAdjust: set factor to 0.102
ElecMinimize: Iter:  19  G: -1732.253295608428971  |grad|_K:  4.995e-08  alpha:  4.424e-01  linmin: -4.066e-04  t[s]:   2492.51
	Linear fluid (dielectric constant: 78.4, screening length: 8.12261 Bohr) occupying 0.526496 of unit cell:	Completed after 10 iterations at t[s]:   2507.71
	Linear fluid (dielectric constant: 78.4, screening length: 8.12261 Bohr) occupying 0.526496 of unit cell:	Completed after 0 iterations at t[s]:   2519.50
	FillingsUpdate:  mu: -0.171300000  nElectrons: 227.783268  magneticMoment: [ Abs: 0.00000  Tot: -0.00000 ]
	SubspaceRotationAdjust: set factor to 0.0865
ElecMinimize: Iter:  20  G: -1732.253295925580460  |grad|_K:  4.274e-08  alpha:  4.360e-01  linmin:  2.283e-04  t[s]:   2538.61
	Linear fluid (dielectric constant: 78.4, screening length: 8.12261 Bohr) occupying 0.526519 of unit cell:	Completed after 8 iterations at t[s]:   2553.61
	Linear fluid (dielectric constant: 78.4, screening length: 8.12261 Bohr) occupying 0.526519 of unit cell:	Completed after 0 iterations at t[s]:   2565.56
	FillingsUpdate:  mu: -0.171300000  nElectrons: 227.783279  magneticMoment: [ Abs: 0.00000  Tot: -0.00000 ]
	SubspaceRotationAdjust: set factor to 0.0895
ElecMinimize: Iter:  21  G: -1732.253296157697605  |grad|_K:  3.451e-08  alpha:  4.501e-01  linmin: -1.898e-04  t[s]:   2585.40
	Linear fluid (dielectric constant: 78.4, screening length: 8.12261 Bohr) occupying 0.526538 of unit cell:	Completed after 2 iterations at t[s]:   2599.92
	Linear fluid (dielectric constant: 78.4, screening length: 8.12261 Bohr) occupying 0.526539 of unit cell:	Completed after 0 iterations at t[s]:   2611.71
	FillingsUpdate:  mu: -0.171300000  nElectrons: 227.783078  magneticMoment: [ Abs: 0.00000  Tot: -0.00000 ]
	SubspaceRotationAdjust: set factor to 0.103
ElecMinimize: Iter:  22  G: -1732.253296323912764  |grad|_K:  2.733e-08  alpha:  4.815e-01  linmin:  7.505e-06  t[s]:   2630.94
	Linear fluid (dielectric constant: 78.4, screening length: 8.12261 Bohr) occupying 0.526554 of unit cell:	Completed after 3 iterations at t[s]:   2645.60
	Linear fluid (dielectric constant: 78.4, screening length: 8.12261 Bohr) occupying 0.526555 of unit cell:	Completed after 3 iterations at t[s]:   2657.71
	FillingsUpdate:  mu: -0.171300000  nElectrons: 227.782652  magneticMoment: [ Abs: 0.00000  Tot: -0.00000 ]
	SubspaceRotationAdjust: set factor to 0.106
ElecMinimize: Iter:  23  G: -1732.253296431773606  |grad|_K:  2.272e-08  alpha:  5.153e-01  linmin:  2.968e-04  t[s]:   2677.07
	Linear fluid (dielectric constant: 78.4, screening length: 8.12261 Bohr) occupying 0.526569 of unit cell:	Completed after 2 iterations at t[s]:   2691.59
	Linear fluid (dielectric constant: 78.4, screening length: 8.12261 Bohr) occupying 0.526569 of unit cell:	Completed after 0 iterations at t[s]:   2703.38
	FillingsUpdate:  mu: -0.171300000  nElectrons: 227.782557  magneticMoment: [ Abs: 0.00000  Tot: -0.00000 ]
	SubspaceRotationAdjust: set factor to 0.119
ElecMinimize: Iter:  24  G: -1732.253296504925856  |grad|_K:  1.846e-08  alpha:  5.091e-01  linmin: -2.409e-05  t[s]:   2722.61
	Linear fluid (dielectric constant: 78.4, screening length: 8.12261 Bohr) occupying 0.526581 of unit cell:	Completed after 2 iterations at t[s]:   2737.14
	Linear fluid (dielectric constant: 78.4, screening length: 8.12261 Bohr) occupying 0.526578 of unit cell:	Completed after 2 iterations at t[s]:   2749.12
	FillingsUpdate:  mu: -0.171300000  nElectrons: 227.782496  magneticMoment: [ Abs: 0.00000  Tot: -0.00000 ]
	SubspaceRotationAdjust: set factor to 0.132
ElecMinimize: Iter:  25  G: -1732.253296544037539  |grad|_K:  1.558e-08  alpha:  4.147e-01  linmin: -1.830e-04  t[s]:   2768.35
ElecMinimize: Converged (|Delta G|<1.000000e-07 for 2 iters).
Setting wave functions to eigenvectors of Hamiltonian
Converging empty states (this may take a while): |deigs|: 4.377e-04
Single-point solvation energy estimate, DeltaG = -0.003773136469817

Computing DFT-D3 correction:
# coordination-number Ag 5.359 6.871 9.174 9.203 9.199 7.666 7.666 9.199 9.203 9.174 6.871 5.359
# diagonal-C6 Ag 268.61 268.61 268.61 268.61 268.61 268.61 268.61 268.61 268.61 268.61 268.61 268.61
EvdW_6 =   -0.068574
EvdW_8 =   -0.096173

# Ionic positions in cartesian coordinates:
ion Ag   0.000000000000000   0.000000000000000  17.994577000000000 1
ion Ag   0.000000000000000   4.425771000000000   2.347141000000000 1
ion Ag   0.000000000000000   8.851556000000000   5.476605000000000 1
ion Ag   0.000000000000000   0.000000000000000   8.606126000000000 1
ion Ag   0.000000000000000   4.425771000000000  11.735590999999999 1
ion Ag   5.420447000000000   8.851556000000000  14.865112000000002 1
ion Ag   2.710223000000000   0.000000000000000   3.911845000000000 1
ion Ag   2.710223000000000   4.425771000000000   7.041366000000001 1
ion Ag   2.710223000000000   8.851556000000000  10.170887000000002 1
ion Ag   2.710223000000000   0.000000000000000  13.300352000000000 1
ion Ag   2.710223000000000   4.425771000000000  16.429873000000004 1
ion Ag   2.710223000000000   8.851556000000000   0.782380000000000 1

# Forces in Cartesian coordinates:
force Ag  -0.000012542024934  -0.001600789046867  -0.001089321052075 1
force Ag  -0.000000477370056  -0.002486687861912  -0.003271359082659 1
force Ag   0.000013446140434   0.001875015808267  -0.000007634077714 1
force Ag  -0.000014638540384  -0.000209813602404   0.002306441948337 1
force Ag   0.000001379808511   0.000904550165429  -0.002025751332951 1
force Ag   0.000008926721689  -0.001127608058955   0.005138195574809 1
force Ag  -0.000009511664458   0.001067944270594  -0.005132401350521 1
force Ag   0.000000116496629  -0.000773583250758   0.002029578208018 1
force Ag   0.000015230169237   0.000162811877964  -0.002301023052621 1
force Ag  -0.000011244370411  -0.001926598024823   0.000020052604859 1
force Ag   0.000002411871823   0.002634574457116   0.003270653680572 1
force Ag   0.000017843190603   0.001480980595522   0.001098331054495 1

# Energy components:
   A_diel =        0.0400782101497541
   Eewald =     8246.2563877566681185
       EH =     9839.1585016539029311
     Eloc =   -20135.0894545640476281
      Enl =       47.3508031917587218
     EvdW =       -0.1647472392836835
      Exc =     -173.8389074078792760
 Exc_core =        2.4980491912248959
       KE =      402.5050784067025234
  MuShift =        0.0121369364647598
-------------------------------------
     Etot =    -1771.2720738643392906
       TS =        0.0003642411747439
-------------------------------------
        F =    -1771.2724381055140839
      muN =      -39.0191415614766512
-------------------------------------
        G =    -1732.2532965440375392


Dumping 'jdft.fillings' ... done
Dumping 'jdft.wfns' ... done
Dumping 'jdft.fluidState' ... done
Dumping 'jdft.ionpos' ... done
Dumping 'jdft.lattice' ... done
Dumping 'jdft.eigenvals' ... done
Dumping 'jdft.eigStats' ... 
	eMin: -3.554370 at state 0 ( [ +0.000000 +0.000000 +0.000000 ] spin 1 )
	HOMO: -0.171642 at state 60 ( [ +0.000000 +0.000000 +0.000000 ] spin -1 )
	mu  : -0.171300
	LUMO: -0.171050 at state 105 ( [ -0.250000 +0.000000 +0.000000 ] spin -1 )
	eMax: +0.164848 at state 91 ( [ +0.500000 +0.200000 +0.000000 ] spin -1 )
	HOMO-LUMO gap: +0.000592
	Optical gap  : +0.002373 at state 20 ( [ +0.333333 +0.000000 +0.000000 ] spin 1 )
Dumping 'jdft.Ecomponents' ... done
IonicMinimize: Iter:   0  G: -1732.253296544037539  |grad|_K:  1.859e-03  t[s]:   2896.74

#--- Lowdin population analysis ---
# oxidation-state Ag +0.163 +0.042 -0.036 -0.004 -0.004 -0.015 -0.015 -0.004 -0.004 -0.036 +0.042 +0.163
# magnetic-moments Ag -0.000 +0.000 +0.000 -0.000 +0.000 -0.000 -0.000 -0.000 -0.000 -0.000 -0.000 +0.000


Computing DFT-D3 correction:
# coordination-number Ag 5.360 6.864 9.170 9.201 9.194 7.662 7.662 9.194 9.202 9.169 6.864 5.360
# diagonal-C6 Ag 268.61 268.61 268.61 268.61 268.61 268.61 268.61 268.61 268.61 268.61 268.61 268.61
EvdW_6 =   -0.068567
EvdW_8 =   -0.096158
Shifting auxilliary hamiltonian by -0.000040 to set nElectrons=227.782496

-------- Electronic minimization -----------
	Linear fluid (dielectric constant: 78.4, screening length: 8.12261 Bohr) occupying 0.526519 of unit cell:	Completed after 12 iterations at t[s]:   2913.54
	FillingsUpdate:  mu: -0.171300000  nElectrons: 227.782496  magneticMoment: [ Abs: 0.00001  Tot: -0.00000 ]
ElecMinimize: Iter:   0  G: -1732.253393258148208  |grad|_K:  1.658e-07  alpha:  1.000e+00
	Linear fluid (dielectric constant: 78.4, screening length: 8.12261 Bohr) occupying 0.526530 of unit cell:	Completed after 12 iterations at t[s]:   2950.14
	Linear fluid (dielectric constant: 78.4, screening length: 8.12261 Bohr) occupying 0.526526 of unit cell:	Completed after 10 iterations at t[s]:   2962.76
	FillingsUpdate:  mu: -0.171300000  nElectrons: 227.783435  magneticMoment: [ Abs: 0.00001  Tot: -0.00000 ]
	SubspaceRotationAdjust: set factor to 0.134
ElecMinimize: Iter:   1  G: -1732.253398294040608  |grad|_K:  1.604e-07  alpha:  6.397e-01  linmin:  2.976e-05  t[s]:   2981.88
	Linear fluid (dielectric constant: 78.4, screening length: 8.12261 Bohr) occupying 0.526536 of unit cell:	Completed after 11 iterations at t[s]:   2997.12
	Linear fluid (dielectric constant: 78.4, screening length: 8.12261 Bohr) occupying 0.526535 of unit cell:	Completed after 7 iterations at t[s]:   3009.72
	FillingsUpdate:  mu: -0.171300000  nElectrons: 227.781196  magneticMoment: [ Abs: 0.00001  Tot: -0.00000 ]
	SubspaceRotationAdjust: set factor to 0.117
ElecMinimize: Iter:   2  G: -1732.253402543949505  |grad|_K:  2.131e-07  alpha:  5.777e-01  linmin:  3.330e-05  t[s]:   3028.95
	Linear fluid (dielectric constant: 78.4, screening length: 8.12261 Bohr) occupying 0.526556 of unit cell:	Completed after 12 iterations at t[s]:   3044.45
	Linear fluid (dielectric constant: 78.4, screening length: 8.12261 Bohr) occupying 0.526551 of unit cell:	Completed after 9 iterations at t[s]:   3057.00
	FillingsUpdate:  mu: -0.171300000  nElectrons: 227.783568  magneticMoment: [ Abs: 0.00001  Tot: -0.00000 ]
	SubspaceRotationAdjust: set factor to 0.0966
ElecMinimize: Iter:   3  G: -1732.253408439653640  |grad|_K:  1.905e-07  alpha:  4.555e-01  linmin: -1.201e-05  t[s]:   3076.19
	Linear fluid (dielectric constant: 78.4, screening length: 8.12261 Bohr) occupying 0.526565 of unit cell:	Completed after 11 iterations at t[s]:   3091.43
	Linear fluid (dielectric constant: 78.4, screening length: 8.12261 Bohr) occupying 0.526566 of unit cell:	Completed after 2 iterations at t[s]:   3103.50
	FillingsUpdate:  mu: -0.171300000  nElectrons: 227.782570  magneticMoment: [ Abs: 0.00000  Tot: -0.00000 ]
	SubspaceRotationAdjust: set factor to 0.1
ElecMinimize: Iter:   4  G: -1732.253413528142573  |grad|_K:  1.587e-07  alpha:  4.901e-01  linmin: -1.853e-05  t[s]:   3122.81
	Linear fluid (dielectric constant: 78.4, screening length: 8.12261 Bohr) occupying 0.526575 of unit cell:	Completed after 8 iterations at t[s]:   3137.81
	Linear fluid (dielectric constant: 78.4, screening length: 8.12261 Bohr) occupying 0.526574 of unit cell:	Completed after 2 iterations at t[s]:   3149.82
	FillingsUpdate:  mu: -0.171300000  nElectrons: 227.782174  magneticMoment: [ Abs: 0.00000  Tot: -0.00000 ]
	SubspaceRotationAdjust: set factor to 0.105
ElecMinimize: Iter:   5  G: -1732.253416438408294  |grad|_K:  1.073e-07  alpha:  4.035e-01  linmin: -1.777e-06  t[s]:   3169.06
	Linear fluid (dielectric constant: 78.4, screening length: 8.12261 Bohr) occupying 0.526577 of unit cell:	Completed after 9 iterations at t[s]:   3184.94
	Linear fluid (dielectric constant: 78.4, screening length: 8.12261 Bohr) occupying 0.526577 of unit cell:	Completed after 2 iterations at t[s]:   3196.94
	FillingsUpdate:  mu: -0.171300000  nElectrons: 227.782899  magneticMoment: [ Abs: 0.00000  Tot: -0.00000 ]
	SubspaceRotationAdjust: set factor to 0.0852
ElecMinimize: Iter:   6  G: -1732.253417662374886  |grad|_K:  7.621e-08  alpha:  3.721e-01  linmin:  4.178e-05  t[s]:   3216.19
	Linear fluid (dielectric constant: 78.4, screening length: 8.12261 Bohr) occupying 0.526577 of unit cell:	Completed after 9 iterations at t[s]:   3231.28
	Linear fluid (dielectric constant: 78.4, screening length: 8.12261 Bohr) occupying 0.526577 of unit cell:	Completed after 3 iterations at t[s]:   3243.46
	FillingsUpdate:  mu: -0.171300000  nElectrons: 227.782231  magneticMoment: [ Abs: 0.00000  Tot: -0.00000 ]
	SubspaceRotationAdjust: set factor to 0.064
ElecMinimize: Iter:   7  G: -1732.253418201642944  |grad|_K:  4.549e-08  alpha:  3.263e-01  linmin:  7.797e-06  t[s]:   3262.95
	Linear fluid (dielectric constant: 78.4, screening length: 8.12261 Bohr) occupying 0.526578 of unit cell:	Completed after 6 iterations at t[s]:   3277.80
	Linear fluid (dielectric constant: 78.4, screening length: 8.12261 Bohr) occupying 0.526578 of unit cell:	Completed after 0 iterations at t[s]:   3289.65
	FillingsUpdate:  mu: -0.171300000  nElectrons: 227.782330  magneticMoment: [ Abs: 0.00000  Tot: -0.00000 ]
	SubspaceRotationAdjust: set factor to 0.0688
ElecMinimize: Iter:   8  G: -1732.253418422292725  |grad|_K:  2.993e-08  alpha:  3.715e-01  linmin: -1.271e-03  t[s]:   3308.95
	Linear fluid (dielectric constant: 78.4, screening length: 8.12261 Bohr) occupying 0.526578 of unit cell:	Completed after 2 iterations at t[s]:   3323.52
	Linear fluid (dielectric constant: 78.4, screening length: 8.12261 Bohr) occupying 0.526578 of unit cell:	Completed after 0 iterations at t[s]:   3335.36
	FillingsUpdate:  mu: -0.171300000  nElectrons: 227.782438  magneticMoment: [ Abs: 0.00000  Tot: -0.00000 ]
	SubspaceRotationAdjust: set factor to 0.0685
ElecMinimize: Iter:   9  G: -1732.253418518561602  |grad|_K:  1.756e-08  alpha:  3.648e-01  linmin:  9.341e-04  t[s]:   3354.62
	Linear fluid (dielectric constant: 78.4, screening length: 8.12261 Bohr) occupying 0.526578 of unit cell:	Completed after 2 iterations at t[s]:   3369.21
	Linear fluid (dielectric constant: 78.4, screening length: 8.12261 Bohr) occupying 0.526578 of unit cell:	Completed after 0 iterations at t[s]:   3380.98
	FillingsUpdate:  mu: -0.171300000  nElectrons: 227.782423  magneticMoment: [ Abs: 0.00000  Tot: -0.00000 ]
	SubspaceRotationAdjust: set factor to 0.0746
ElecMinimize: Iter:  10  G: -1732.253418555503913  |grad|_K:  1.077e-08  alpha:  4.202e-01  linmin: -3.910e-03  t[s]:   3400.16
ElecMinimize: Converged (|Delta G|<1.000000e-07 for 2 iters).
Setting wave functions to eigenvectors of Hamiltonian
Converging empty states (this may take a while): |deigs|: 3.101e-08

Computing DFT-D3 correction:
# coordination-number Ag 5.360 6.864 9.170 9.201 9.194 7.662 7.662 9.194 9.202 9.169 6.864 5.360
# diagonal-C6 Ag 268.61 268.61 268.61 268.61 268.61 268.61 268.61 268.61 268.61 268.61 268.61 268.61
EvdW_6 =   -0.068567
EvdW_8 =   -0.096158
IonicMinimize: 	Wolfe criterion not satisfied: alpha: 1  (E-E0)/|gdotd0|: -0.980953  gdotd/gdotd0: 0.952683 (taking cubic step)

Computing DFT-D3 correction:
# coordination-number Ag 5.362 6.849 9.162 9.197 9.184 7.655 7.654 9.184 9.198 9.161 6.849 5.363
# diagonal-C6 Ag 268.61 268.61 268.61 268.61 268.61 268.61 268.61 268.61 268.61 268.61 268.61 268.61
EvdW_6 =   -0.068551
EvdW_8 =   -0.096131
Shifting auxilliary hamiltonian by -0.000015 to set nElectrons=227.782423

-------- Electronic minimization -----------
	Linear fluid (dielectric constant: 78.4, screening length: 8.12261 Bohr) occupying 0.526414 of unit cell:	Completed after 14 iterations at t[s]:   3462.42
	FillingsUpdate:  mu: -0.171300000  nElectrons: 227.782423  magneticMoment: [ Abs: 0.00001  Tot: -0.00000 ]
ElecMinimize: Iter:   0  G: -1732.253537816967992  |grad|_K:  3.006e-07  alpha:  1.000e+00
	Linear fluid (dielectric constant: 78.4, screening length: 8.12261 Bohr) occupying 0.526429 of unit cell:	Completed after 12 iterations at t[s]:   3499.58
	Linear fluid (dielectric constant: 78.4, screening length: 8.12261 Bohr) occupying 0.526422 of unit cell:	Completed after 10 iterations at t[s]:   3512.38
	FillingsUpdate:  mu: -0.171300000  nElectrons: 227.782350  magneticMoment: [ Abs: 0.00001  Tot: -0.00000 ]
	SubspaceRotationAdjust: set factor to 0.0922
ElecMinimize: Iter:   1  G: -1732.253552473971922  |grad|_K:  2.392e-07  alpha:  5.669e-01  linmin:  8.789e-06  t[s]:   3531.49
	Linear fluid (dielectric constant: 78.4, screening length: 8.12261 Bohr) occupying 0.526433 of unit cell:	Completed after 11 iterations at t[s]:   3546.71
	Linear fluid (dielectric constant: 78.4, screening length: 8.12261 Bohr) occupying 0.526437 of unit cell:	Completed after 9 iterations at t[s]:   3559.24
	FillingsUpdate:  mu: -0.171300000  nElectrons: 227.784294  magneticMoment: [ Abs: 0.00001  Tot: -0.00000 ]
	SubspaceRotationAdjust: set factor to 0.109
ElecMinimize: Iter:   2  G: -1732.253565176675920  |grad|_K:  3.093e-07  alpha:  7.767e-01  linmin: -1.392e-05  t[s]:   3578.54
	Linear fluid (dielectric constant: 78.4, screening length: 8.12261 Bohr) occupying 0.526465 of unit cell:	Completed after 12 iterations at t[s]:   3593.80
	Linear fluid (dielectric constant: 78.4, screening length: 8.12261 Bohr) occupying 0.526462 of unit cell:	Completed after 5 iterations at t[s]:   3606.02
	FillingsUpdate:  mu: -0.171300000  nElectrons: 227.782915  magneticMoment: [ Abs: 0.00001  Tot: -0.00000 ]
	SubspaceRotationAdjust: set factor to 0.119
ElecMinimize: Iter:   3  G: -1732.253584523321479  |grad|_K:  3.503e-07  alpha:  7.068e-01  linmin:  4.501e-06  t[s]:   3625.30
	Linear fluid (dielectric constant: 78.4, screening length: 8.12261 Bohr) occupying 0.526495 of unit cell:	Completed after 12 iterations at t[s]:   3640.68
	Linear fluid (dielectric constant: 78.4, screening length: 8.12261 Bohr) occupying 0.526495 of unit cell:	Completed after 2 iterations at t[s]:   3652.71
	FillingsUpdate:  mu: -0.171300000  nElectrons: 227.785068  magneticMoment: [ Abs: 0.00001  Tot: -0.00000 ]
	SubspaceRotationAdjust: set factor to 0.122
ElecMinimize: Iter:   4  G: -1732.253608665279899  |grad|_K:  3.408e-07  alpha:  6.885e-01  linmin: -1.052e-05  t[s]:   3671.83
	Linear fluid (dielectric constant: 78.4, screening length: 8.12261 Bohr) occupying 0.526517 of unit cell:	Completed after 12 iterations at t[s]:   3687.10
	Linear fluid (dielectric constant: 78.4, screening length: 8.12261 Bohr) occupying 0.526510 of unit cell:	Completed after 9 iterations at t[s]:   3699.74
	FillingsUpdate:  mu: -0.171300000  nElectrons: 227.783411  magneticMoment: [ Abs: 0.00001  Tot: -0.00000 ]
	SubspaceRotationAdjust: set factor to 0.119
ElecMinimize: Iter:   5  G: -1732.253624193245741  |grad|_K:  2.651e-07  alpha:  4.673e-01  linmin: -2.483e-06  t[s]:   3719.15
	Linear fluid (dielectric constant: 78.4, screening length: 8.12261 Bohr) occupying 0.526515 of unit cell:	Completed after 11 iterations at t[s]:   3734.45
	Linear fluid (dielectric constant: 78.4, screening length: 8.12261 Bohr) occupying 0.526514 of unit cell:	Completed after 2 iterations at t[s]:   3746.47
	FillingsUpdate:  mu: -0.171300000  nElectrons: 227.784371  magneticMoment: [ Abs: 0.00001  Tot: -0.00000 ]
	SubspaceRotationAdjust: set factor to 0.105
ElecMinimize: Iter:   6  G: -1732.253632982496583  |grad|_K:  1.708e-07  alpha:  4.375e-01  linmin:  2.982e-05  t[s]:   3765.68
	Linear fluid (dielectric constant: 78.4, screening length: 8.12261 Bohr) occupying 0.526512 of unit cell:	Completed after 11 iterations at t[s]:   3780.90
	Linear fluid (dielectric constant: 78.4, screening length: 8.12261 Bohr) occupying 0.526513 of unit cell:	Completed after 7 iterations at t[s]:   3794.26
	FillingsUpdate:  mu: -0.171300000  nElectrons: 227.782647  magneticMoment: [ Abs: 0.00000  Tot: -0.00000 ]
	SubspaceRotationAdjust: set factor to 0.0802
ElecMinimize: Iter:   7  G: -1732.253636142570485  |grad|_K:  1.241e-07  alpha:  3.802e-01  linmin: -8.350e-05  t[s]:   3813.68
	Linear fluid (dielectric constant: 78.4, screening length: 8.12261 Bohr) occupying 0.526511 of unit cell:	Completed after 11 iterations at t[s]:   3828.89
	Linear fluid (dielectric constant: 78.4, screening length: 8.12261 Bohr) occupying 0.526511 of unit cell:	Completed after 2 iterations at t[s]:   3840.85
	FillingsUpdate:  mu: -0.171300000  nElectrons: 227.783427  magneticMoment: [ Abs: 0.00000  Tot: -0.00000 ]
	SubspaceRotationAdjust: set factor to 0.0639
ElecMinimize: Iter:   8  G: -1732.253637688322215  |grad|_K:  7.052e-08  alpha:  3.497e-01  linmin:  2.125e-04  t[s]:   3860.10
	Linear fluid (dielectric constant: 78.4, screening length: 8.12261 Bohr) occupying 0.526511 of unit cell:	Completed after 2 iterations at t[s]:   3874.70
	Linear fluid (dielectric constant: 78.4, screening length: 8.12261 Bohr) occupying 0.526510 of unit cell:	Completed after 5 iterations at t[s]:   3886.97
	FillingsUpdate:  mu: -0.171300000  nElectrons: 227.783223  magneticMoment: [ Abs: 0.00000  Tot: -0.00000 ]
	SubspaceRotationAdjust: set factor to 0.068
ElecMinimize: Iter:   9  G: -1732.253638310743554  |grad|_K:  4.492e-08  alpha:  4.429e-01  linmin:  3.571e-04  t[s]:   3906.30
	Linear fluid (dielectric constant: 78.4, screening length: 8.12261 Bohr) occupying 0.526510 of unit cell:	Completed after 3 iterations at t[s]:   3920.87
	Linear fluid (dielectric constant: 78.4, screening length: 8.12261 Bohr) occupying 0.526510 of unit cell:	Completed after 2 iterations at t[s]:   3932.90
	FillingsUpdate:  mu: -0.171300000  nElectrons: 227.783064  magneticMoment: [ Abs: 0.00000  Tot: -0.00000 ]
	SubspaceRotationAdjust: set factor to 0.0728
ElecMinimize: Iter:  10  G: -1732.253638535588607  |grad|_K:  2.890e-08  alpha:  3.938e-01  linmin: -4.352e-04  t[s]:   3952.20
	Linear fluid (dielectric constant: 78.4, screening length: 8.12261 Bohr) occupying 0.526511 of unit cell:	Completed after 2 iterations at t[s]:   3966.70
	Linear fluid (dielectric constant: 78.4, screening length: 8.12261 Bohr) occupying 0.526511 of unit cell:	Completed after 0 iterations at t[s]:   3978.47
	FillingsUpdate:  mu: -0.171300000  nElectrons: 227.783069  magneticMoment: [ Abs: 0.00000  Tot: -0.00000 ]
	SubspaceRotationAdjust: set factor to 0.0883
ElecMinimize: Iter:  11  G: -1732.253638636886535  |grad|_K:  1.982e-08  alpha:  4.224e-01  linmin: -6.169e-05  t[s]:   3997.75
	Linear fluid (dielectric constant: 78.4, screening length: 8.12261 Bohr) occupying 0.526511 of unit cell:	Completed after 2 iterations at t[s]:   4012.26
	Linear fluid (dielectric constant: 78.4, screening length: 8.12261 Bohr) occupying 0.526512 of unit cell:	Completed after 0 iterations at t[s]:   4024.09
	FillingsUpdate:  mu: -0.171300000  nElectrons: 227.783107  magneticMoment: [ Abs: 0.00000  Tot: -0.00000 ]
	SubspaceRotationAdjust: set factor to 0.112
ElecMinimize: Iter:  12  G: -1732.253638689956460  |grad|_K:  1.576e-08  alpha:  4.708e-01  linmin: -7.468e-04  t[s]:   4043.50
	Linear fluid (dielectric constant: 78.4, screening length: 8.12261 Bohr) occupying 0.526513 of unit cell:	Completed after 0 iterations at t[s]:   4057.83
	Linear fluid (dielectric constant: 78.4, screening length: 8.12261 Bohr) occupying 0.526513 of unit cell:	Completed after 1 iterations at t[s]:   4069.73
	FillingsUpdate:  mu: -0.171300000  nElectrons: 227.783039  magneticMoment: [ Abs: 0.00000  Tot: -0.00000 ]
	SubspaceRotationAdjust: set factor to 0.143
ElecMinimize: Iter:  13  G: -1732.253638732801846  |grad|_K:  1.634e-08  alpha:  6.189e-01  linmin:  8.766e-04  t[s]:   4089.42
ElecMinimize: Converged (|Delta G|<1.000000e-07 for 2 iters).
Setting wave functions to eigenvectors of Hamiltonian
Converging empty states (this may take a while): |deigs|: 2.007e-08

Computing DFT-D3 correction:
# coordination-number Ag 5.362 6.849 9.162 9.197 9.184 7.655 7.654 9.184 9.198 9.161 6.849 5.363
# diagonal-C6 Ag 268.61 268.61 268.61 268.61 268.61 268.61 268.61 268.61 268.61 268.61 268.61 268.61
EvdW_6 =   -0.068551
EvdW_8 =   -0.096131

# Ionic positions in cartesian coordinates:
ion Ag  -0.000040361181972  -0.004802566472895  17.991300096063139 1
ion Ag  -0.000004167217338   4.418310737081971   2.337317981971385 1
ion Ag   0.000037603314132   8.857180848092508   5.476573156986222 1
ion Ag  -0.000046650728323  -0.000629640139504   8.613036385064374 1
ion Ag   0.000001404318361   4.428484451163994  11.729504805220509 1
ion Ag   5.420471045057896   8.848172976490842  14.880517645943792 1
ion Ag   2.710191729899454   0.003203633479488   3.896438855167800 1
ion Ag   2.710220614382717   4.423450050915434   7.047445793843417 1
ion Ag   2.710265955400538   8.852044236301600  10.163974990061503 1
ion Ag   2.710186531781598  -0.005779993406763  13.300403217033940 1
ion Ag   2.710227500508298   4.433674524039056  16.439676020261079 1
ion Ag   2.710273794464639   8.855998742454274   0.785666052382848 1

# Forces in Cartesian coordinates:
force Ag  -0.000012447775203  -0.001263190825187  -0.000941653155385 1
force Ag   0.000001971952738  -0.001942799033960  -0.003064126380721 1
force Ag   0.000012833685313   0.001502433811946  -0.000310003621218 1
force Ag  -0.000012937722232  -0.000172753651084   0.001556512725356 1
force Ag   0.000002565836303   0.000796657279864  -0.001063009398098 1
force Ag   0.000009048668802  -0.001092474694297   0.004520749417780 1
force Ag  -0.000010026901628   0.001048735755645  -0.004514125556332 1
force Ag  -0.000001092699910  -0.000704298554679   0.001063714609392 1
force Ag   0.000013573343563   0.000144477195854  -0.001553634112862 1
force Ag  -0.000011073323325  -0.001520007526591   0.000321653220566 1
force Ag  -0.000000017248657   0.002051122523800   0.003071838882648 1
force Ag   0.000017622556271   0.001183072686045   0.000944217215491 1

# Energy components:
   A_diel =        0.0399740167422570
   Eewald =     8240.1405329404315125
       EH =     9833.0702271397422010
     Eloc =   -20122.8832775977025449
      Enl =       47.3516970159529151
     EvdW =       -0.1646819855546828
      Exc =     -173.8367526893887032
 Exc_core =        2.4980489540762076
       KE =      402.4996069689765363
  MuShift =        0.0121066266776996
-------------------------------------
     Etot =    -1771.2725186100458359
       TS =        0.0003547303932385
-------------------------------------
        F =    -1771.2728733404389914
      muN =      -39.0192346076371166
-------------------------------------
        G =    -1732.2536387328018463


Dumping 'jdft.fillings' ... done
Dumping 'jdft.wfns' ... done
Dumping 'jdft.fluidState' ... done
Dumping 'jdft.ionpos' ... done
Dumping 'jdft.lattice' ... done
Dumping 'jdft.eigenvals' ... done
Dumping 'jdft.eigStats' ... 
	eMin: -3.554286 at state 0 ( [ +0.000000 +0.000000 +0.000000 ] spin 1 )
	HOMO: -0.171941 at state 60 ( [ +0.000000 +0.000000 +0.000000 ] spin -1 )
	mu  : -0.171300
	LUMO: -0.171041 at state 75 ( [ +0.250000 +0.000000 +0.000000 ] spin -1 )
	eMax: +0.164871 at state 91 ( [ +0.500000 +0.200000 +0.000000 ] spin -1 )
	HOMO-LUMO gap: +0.000901
	Optical gap  : +0.002323 at state 40 ( [ -0.333333 +0.000000 +0.000000 ] spin 1 )
Dumping 'jdft.Ecomponents' ... done
IonicMinimize: Iter:   1  G: -1732.253638732801846  |grad|_K:  1.561e-03  alpha:  3.000e+00  linmin: -9.903e-01  t[s]:   4135.47

#--- Lowdin population analysis ---
# oxidation-state Ag +0.162 +0.042 -0.036 -0.004 -0.004 -0.015 -0.015 -0.004 -0.004 -0.036 +0.042 +0.162
# magnetic-moments Ag -0.000 +0.000 +0.000 +0.000 -0.000 -0.000 +0.000 +0.000 -0.000 -0.000 -0.000 +0.000


Computing DFT-D3 correction:
# coordination-number Ag 5.411 6.757 9.070 9.088 9.043 7.586 7.583 9.043 9.090 9.067 6.755 5.414
# diagonal-C6 Ag 268.61 268.61 268.61 268.61 268.61 268.61 268.61 268.61 268.61 268.61 268.61 268.61
EvdW_6 =   -0.068284
EvdW_8 =   -0.095708
Shifting auxilliary hamiltonian by -0.000011 to set nElectrons=227.783039

-------- Electronic minimization -----------
	Linear fluid (dielectric constant: 78.4, screening length: 8.12261 Bohr) occupying 0.526518 of unit cell:	Completed after 20 iterations at t[s]:   4151.28
	FillingsUpdate:  mu: -0.171300000  nElectrons: 227.783039  magneticMoment: [ Abs: 0.00004  Tot: -0.00000 ]
ElecMinimize: Iter:   0  G: -1730.749688587791070  |grad|_K:  1.428e-04  alpha:  1.000e+00
	Linear fluid (dielectric constant: 78.4, screening length: 8.12261 Bohr) occupying 0.525078 of unit cell:	Completed after 23 iterations at t[s]:   4188.69
	Linear fluid (dielectric constant: 78.4, screening length: 8.12261 Bohr) occupying 0.527476 of unit cell:	Completed after 22 iterations at t[s]:   4202.49
	FillingsUpdate:  mu: -0.171300000  nElectrons: 226.660525  magneticMoment: [ Abs: 0.00011  Tot: +0.00000 ]
	SubspaceRotationAdjust: set factor to 0.0862
ElecMinimize: Iter:   1  G: -1731.847499242720914  |grad|_K:  9.476e-05  alpha:  2.453e-01  linmin:  3.400e-02  t[s]:   4221.64
	Linear fluid (dielectric constant: 78.4, screening length: 8.12261 Bohr) occupying 0.531028 of unit cell:	Completed after 22 iterations at t[s]:   4237.74
	Linear fluid (dielectric constant: 78.4, screening length: 8.12261 Bohr) occupying 0.527504 of unit cell:	Completed after 20 iterations at t[s]:   4251.10
	FillingsUpdate:  mu: -0.171300000  nElectrons: 227.692835  magneticMoment: [ Abs: 0.00013  Tot: +0.00000 ]
	SubspaceRotationAdjust: set factor to 0.11
ElecMinimize: Iter:   2  G: -1732.148329967704512  |grad|_K:  3.248e-05  alpha:  1.578e-01  linmin:  3.797e-03  t[s]:   4270.21
	Linear fluid (dielectric constant: 78.4, screening length: 8.12261 Bohr) occupying 0.527677 of unit cell:	Completed after 17 iterations at t[s]:   4285.89
	Linear fluid (dielectric constant: 78.4, screening length: 8.12261 Bohr) occupying 0.527739 of unit cell:	Completed after 15 iterations at t[s]:   4298.88
	FillingsUpdate:  mu: -0.171300000  nElectrons: 227.836924  magneticMoment: [ Abs: 0.00013  Tot: +0.00000 ]
	SubspaceRotationAdjust: set factor to 0.107
ElecMinimize: Iter:   3  G: -1732.208499906655561  |grad|_K:  1.260e-05  alpha:  2.091e-01  linmin: -1.607e-04  t[s]:   4318.03
	Linear fluid (dielectric constant: 78.4, screening length: 8.12261 Bohr) occupying 0.527599 of unit cell:	Completed after 17 iterations at t[s]:   4333.88
	Linear fluid (dielectric constant: 78.4, screening length: 8.12261 Bohr) occupying 0.527562 of unit cell:	Completed after 15 iterations at t[s]:   4346.94
	FillingsUpdate:  mu: -0.171300000  nElectrons: 227.741074  magneticMoment: [ Abs: 0.00014  Tot: +0.00000 ]
	SubspaceRotationAdjust: set factor to 0.112
ElecMinimize: Iter:   4  G: -1732.220656800580855  |grad|_K:  6.875e-06  alpha:  2.675e-01  linmin: -3.286e-05  t[s]:   4366.17
	Linear fluid (dielectric constant: 78.4, screening length: 8.12261 Bohr) occupying 0.527417 of unit cell:	Completed after 14 iterations at t[s]:   4382.82
	Linear fluid (dielectric constant: 78.4, screening length: 8.12261 Bohr) occupying 0.527372 of unit cell:	Completed after 11 iterations at t[s]:   4395.48
	FillingsUpdate:  mu: -0.171300000  nElectrons: 227.739053  magneticMoment: [ Abs: 0.00014  Tot: +0.00000 ]
	SubspaceRotationAdjust: set factor to 0.131
ElecMinimize: Iter:   5  G: -1732.225394851382134  |grad|_K:  5.976e-06  alpha:  3.503e-01  linmin: -2.240e-06  t[s]:   4414.80
	Linear fluid (dielectric constant: 78.4, screening length: 8.12261 Bohr) occupying 0.527141 of unit cell:	Completed after 17 iterations at t[s]:   4430.49
	Linear fluid (dielectric constant: 78.4, screening length: 8.12261 Bohr) occupying 0.526980 of unit cell:	Completed after 15 iterations at t[s]:   4443.49
	FillingsUpdate:  mu: -0.171300000  nElectrons: 227.815748  magneticMoment: [ Abs: 0.00013  Tot: -0.00000 ]
	SubspaceRotationAdjust: set factor to 0.14
ElecMinimize: Iter:   6  G: -1732.231522293409853  |grad|_K:  7.335e-06  alpha:  5.929e-01  linmin: -1.434e-04  t[s]:   4462.83
	Linear fluid (dielectric constant: 78.4, screening length: 8.12261 Bohr) occupying 0.526087 of unit cell:	Completed after 15 iterations at t[s]:   4478.40
	Linear fluid (dielectric constant: 78.4, screening length: 8.12261 Bohr) occupying 0.526339 of unit cell:	Completed after 15 iterations at t[s]:   4491.38
	FillingsUpdate:  mu: -0.171300000  nElectrons: 227.791592  magneticMoment: [ Abs: 0.00012  Tot: -0.00000 ]
	SubspaceRotationAdjust: set factor to 0.156
ElecMinimize: Iter:   7  G: -1732.238325486545818  |grad|_K:  6.840e-06  alpha:  4.304e-01  linmin:  2.289e-06  t[s]:   4510.62
	Linear fluid (dielectric constant: 78.4, screening length: 8.12261 Bohr) occupying 0.525765 of unit cell:	Completed after 14 iterations at t[s]:   4526.08
	Linear fluid (dielectric constant: 78.4, screening length: 8.12261 Bohr) occupying 0.525688 of unit cell:	Completed after 11 iterations at t[s]:   4538.76
	FillingsUpdate:  mu: -0.171300000  nElectrons: 227.783546  magneticMoment: [ Abs: 0.00010  Tot: -0.00000 ]
	SubspaceRotationAdjust: set factor to 0.175
ElecMinimize: Iter:   8  G: -1732.244811477781013  |grad|_K:  6.512e-06  alpha:  4.852e-01  linmin:  2.135e-06  t[s]:   4557.98
	Linear fluid (dielectric constant: 78.4, screening length: 8.12261 Bohr) occupying 0.525222 of unit cell:	Completed after 17 iterations at t[s]:   4573.80
	Linear fluid (dielectric constant: 78.4, screening length: 8.12261 Bohr) occupying 0.525362 of unit cell:	Completed after 14 iterations at t[s]:   4586.73
	FillingsUpdate:  mu: -0.171300000  nElectrons: 227.833940  magneticMoment: [ Abs: 0.00008  Tot: -0.00000 ]
	SubspaceRotationAdjust: set factor to 0.149
ElecMinimize: Iter:   9  G: -1732.249038191700038  |grad|_K:  5.719e-06  alpha:  3.495e-01  linmin: -3.485e-06  t[s]:   4605.93
	Linear fluid (dielectric constant: 78.4, screening length: 8.12261 Bohr) occupying 0.525100 of unit cell:	Completed after 15 iterations at t[s]:   4621.57
	Linear fluid (dielectric constant: 78.4, screening length: 8.12261 Bohr) occupying 0.525127 of unit cell:	Completed after 12 iterations at t[s]:   4634.47
	FillingsUpdate:  mu: -0.171300000  nElectrons: 227.779759  magneticMoment: [ Abs: 0.00006  Tot: -0.00000 ]
	SubspaceRotationAdjust: set factor to 0.127
ElecMinimize: Iter:  10  G: -1732.251997127426876  |grad|_K:  4.056e-06  alpha:  3.156e-01  linmin:  2.594e-05  t[s]:   4653.85
	Linear fluid (dielectric constant: 78.4, screening length: 8.12261 Bohr) occupying 0.525143 of unit cell:	Completed after 13 iterations at t[s]:   4669.21
	Linear fluid (dielectric constant: 78.4, screening length: 8.12261 Bohr) occupying 0.525142 of unit cell:	Completed after 3 iterations at t[s]:   4682.34
	FillingsUpdate:  mu: -0.171300000  nElectrons: 227.776847  magneticMoment: [ Abs: 0.00004  Tot: -0.00000 ]
	SubspaceRotationAdjust: set factor to 0.141
ElecMinimize: Iter:  11  G: -1732.253447115063182  |grad|_K:  2.507e-06  alpha:  3.103e-01  linmin: -3.803e-06  t[s]:   4701.58
	Linear fluid (dielectric constant: 78.4, screening length: 8.12261 Bohr) occupying 0.525273 of unit cell:	Completed after 14 iterations at t[s]:   4716.99
	Linear fluid (dielectric constant: 78.4, screening length: 8.12261 Bohr) occupying 0.525291 of unit cell:	Completed after 11 iterations at t[s]:   4729.73
	FillingsUpdate:  mu: -0.171300000  nElectrons: 227.790623  magneticMoment: [ Abs: 0.00003  Tot: -0.00000 ]
	SubspaceRotationAdjust: set factor to 0.131
ElecMinimize: Iter:  12  G: -1732.254088416972309  |grad|_K:  1.789e-06  alpha:  3.568e-01  linmin:  1.279e-06  t[s]:   4748.99
	Linear fluid (dielectric constant: 78.4, screening length: 8.12261 Bohr) occupying 0.525447 of unit cell:	Completed after 15 iterations at t[s]:   4764.52
	Linear fluid (dielectric constant: 78.4, screening length: 8.12261 Bohr) occupying 0.525420 of unit cell:	Completed after 12 iterations at t[s]:   4777.26
	FillingsUpdate:  mu: -0.171300000  nElectrons: 227.782177  magneticMoment: [ Abs: 0.00002  Tot: -0.00000 ]
	SubspaceRotationAdjust: set factor to 0.117
ElecMinimize: Iter:  13  G: -1732.254355975072713  |grad|_K:  1.198e-06  alpha:  2.922e-01  linmin:  1.141e-06  t[s]:   4796.46
	Linear fluid (dielectric constant: 78.4, screening length: 8.12261 Bohr) occupying 0.525540 of unit cell:	Completed after 11 iterations at t[s]:   4811.78
	Linear fluid (dielectric constant: 78.4, screening length: 8.12261 Bohr) occupying 0.525559 of unit cell:	Completed after 9 iterations at t[s]:   4824.34
	FillingsUpdate:  mu: -0.171300000  nElectrons: 227.786172  magneticMoment: [ Abs: 0.00001  Tot: -0.00000 ]
	SubspaceRotationAdjust: set factor to 0.127
ElecMinimize: Iter:  14  G: -1732.254495004293176  |grad|_K:  7.445e-07  alpha:  3.391e-01  linmin: -4.526e-06  t[s]:   4843.40
	Linear fluid (dielectric constant: 78.4, screening length: 8.12261 Bohr) occupying 0.525655 of unit cell:	Completed after 12 iterations at t[s]:   4858.68
	Linear fluid (dielectric constant: 78.4, screening length: 8.12261 Bohr) occupying 0.525652 of unit cell:	Completed after 2 iterations at t[s]:   4870.81
	FillingsUpdate:  mu: -0.171300000  nElectrons: 227.789658  magneticMoment: [ Abs: 0.00001  Tot: -0.00000 ]
	SubspaceRotationAdjust: set factor to 0.128
ElecMinimize: Iter:  15  G: -1732.254547108633915  |grad|_K:  5.234e-07  alpha:  3.287e-01  linmin:  4.554e-05  t[s]:   4889.92
	Linear fluid (dielectric constant: 78.4, screening length: 8.12261 Bohr) occupying 0.525718 of unit cell:	Completed after 12 iterations at t[s]:   4905.27
	Linear fluid (dielectric constant: 78.4, screening length: 8.12261 Bohr) occupying 0.525718 of unit cell:	Completed after 0 iterations at t[s]:   4917.02
	FillingsUpdate:  mu: -0.171300000  nElectrons: 227.786422  magneticMoment: [ Abs: 0.00001  Tot: -0.00000 ]
	SubspaceRotationAdjust: set factor to 0.128
ElecMinimize: Iter:  16  G: -1732.254573014113021  |grad|_K:  3.838e-07  alpha:  3.311e-01  linmin: -1.546e-04  t[s]:   4936.12
	Linear fluid (dielectric constant: 78.4, screening length: 8.12261 Bohr) occupying 0.525769 of unit cell:	Completed after 9 iterations at t[s]:   4951.13
	Linear fluid (dielectric constant: 78.4, screening length: 8.12261 Bohr) occupying 0.525777 of unit cell:	Completed after 2 iterations at t[s]:   4963.18
	FillingsUpdate:  mu: -0.171300000  nElectrons: 227.786738  magneticMoment: [ Abs: 0.00001  Tot: -0.00000 ]
	SubspaceRotationAdjust: set factor to 0.155
ElecMinimize: Iter:  17  G: -1732.254589265882942  |grad|_K:  2.895e-07  alpha:  3.847e-01  linmin:  2.595e-06  t[s]:   4983.60
	Linear fluid (dielectric constant: 78.4, screening length: 8.12261 Bohr) occupying 0.525817 of unit cell:	Completed after 11 iterations at t[s]:   4998.86
	Linear fluid (dielectric constant: 78.4, screening length: 8.12261 Bohr) occupying 0.525814 of unit cell:	Completed after 2 iterations at t[s]:   5010.82
	FillingsUpdate:  mu: -0.171300000  nElectrons: 227.787818  magneticMoment: [ Abs: 0.00001  Tot: -0.00000 ]
	SubspaceRotationAdjust: set factor to 0.177
ElecMinimize: Iter:  18  G: -1732.254597845202170  |grad|_K:  2.402e-07  alpha:  3.582e-01  linmin: -6.343e-06  t[s]:   5030.08
	Linear fluid (dielectric constant: 78.4, screening length: 8.12261 Bohr) occupying 0.525838 of unit cell:	Completed after 12 iterations at t[s]:   5045.40
	Linear fluid (dielectric constant: 78.4, screening length: 8.12261 Bohr) occupying 0.525838 of unit cell:	Completed after 0 iterations at t[s]:   5057.15
	FillingsUpdate:  mu: -0.171300000  nElectrons: 227.785741  magneticMoment: [ Abs: 0.00000  Tot: -0.00000 ]
	SubspaceRotationAdjust: set factor to 0.178
ElecMinimize: Iter:  19  G: -1732.254603675308999  |grad|_K:  2.336e-07  alpha:  3.533e-01  linmin: -1.228e-06  t[s]:   5076.72
	Linear fluid (dielectric constant: 78.4, screening length: 8.12261 Bohr) occupying 0.525860 of unit cell:	Completed after 10 iterations at t[s]:   5091.95
	Linear fluid (dielectric constant: 78.4, screening length: 8.12261 Bohr) occupying 0.525862 of unit cell:	Completed after 3 iterations at t[s]:   5104.13
	FillingsUpdate:  mu: -0.171300000  nElectrons: 227.787119  magneticMoment: [ Abs: 0.00000  Tot: -0.00000 ]
	SubspaceRotationAdjust: set factor to 0.206
ElecMinimize: Iter:  20  G: -1732.254609782298303  |grad|_K:  1.917e-07  alpha:  3.912e-01  linmin: -3.778e-05  t[s]:   5123.39
	Linear fluid (dielectric constant: 78.4, screening length: 8.12261 Bohr) occupying 0.525873 of unit cell:	Completed after 8 iterations at t[s]:   5138.45
	Linear fluid (dielectric constant: 78.4, screening length: 8.12261 Bohr) occupying 0.525874 of unit cell:	Completed after 2 iterations at t[s]:   5150.43
	FillingsUpdate:  mu: -0.171300000  nElectrons: 227.787142  magneticMoment: [ Abs: 0.00000  Tot: -0.00000 ]
	SubspaceRotationAdjust: set factor to 0.241
ElecMinimize: Iter:  21  G: -1732.254614397302248  |grad|_K:  1.753e-07  alpha:  4.366e-01  linmin: -6.134e-06  t[s]:   5169.62
	Linear fluid (dielectric constant: 78.4, screening length: 8.12261 Bohr) occupying 0.525875 of unit cell:	Completed after 11 iterations at t[s]:   5184.80
	Linear fluid (dielectric constant: 78.4, screening length: 8.12261 Bohr) occupying 0.525875 of unit cell:	Completed after 9 iterations at t[s]:   5197.38
	FillingsUpdate:  mu: -0.171300000  nElectrons: 227.785502  magneticMoment: [ Abs: 0.00000  Tot: -0.00000 ]
	SubspaceRotationAdjust: set factor to 0.225
[...]
	FillingsUpdate:  mu: -0.171300000  nElectrons: 227.784887  magneticMoment: [ Abs: 0.00001  Tot: +0.00000 ]
ElecMinimize: Iter:   0  G: -1732.254863959068416  |grad|_K:  3.122e-07  alpha:  1.000e+00
	Linear fluid (dielectric constant: 78.4, screening length: 8.12261 Bohr) occupying 0.523878 of unit cell:	Completed after 13 iterations at t[s]:  20362.61
	Linear fluid (dielectric constant: 78.4, screening length: 8.12261 Bohr) occupying 0.523873 of unit cell:	Completed after 12 iterations at t[s]:  20375.49
	FillingsUpdate:  mu: -0.171300000  nElectrons: 227.782157  magneticMoment: [ Abs: 0.00001  Tot: -0.00000 ]
	SubspaceRotationAdjust: set factor to 0.0908
ElecMinimize: Iter:   1  G: -1732.254878157851863  |grad|_K:  2.893e-07  alpha:  5.097e-01  linmin:  8.813e-06  t[s]:  20394.67
	Linear fluid (dielectric constant: 78.4, screening length: 8.12261 Bohr) occupying 0.523889 of unit cell:	Completed after 13 iterations at t[s]:  20410.33
	Linear fluid (dielectric constant: 78.4, screening length: 8.12261 Bohr) occupying 0.523889 of unit cell:	Completed after 2 iterations at t[s]:  20422.29
	FillingsUpdate:  mu: -0.171300000  nElectrons: 227.785853  magneticMoment: [ Abs: 0.00001  Tot: -0.00000 ]
	SubspaceRotationAdjust: set factor to 0.0901
ElecMinimize: Iter:   2  G: -1732.254890001084959  |grad|_K:  2.774e-07  alpha:  4.948e-01  linmin:  1.629e-04  t[s]:  20441.57
	Linear fluid (dielectric constant: 78.4, screening length: 8.12261 Bohr) occupying 0.523901 of unit cell:	Completed after 10 iterations at t[s]:  20456.80
	Linear fluid (dielectric constant: 78.4, screening length: 8.12261 Bohr) occupying 0.523911 of unit cell:	Completed after 9 iterations at t[s]:  20469.59
	FillingsUpdate:  mu: -0.171300000  nElectrons: 227.785130  magneticMoment: [ Abs: 0.00001  Tot: -0.00000 ]
	SubspaceRotationAdjust: set factor to 0.102
ElecMinimize: Iter:   3  G: -1732.254910254328024  |grad|_K:  3.062e-07  alpha:  9.249e-01  linmin: -3.282e-05  t[s]:  20488.70
	Linear fluid (dielectric constant: 78.4, screening length: 8.12261 Bohr) occupying 0.523925 of unit cell:	Completed after 11 iterations at t[s]:  20504.06
	Linear fluid (dielectric constant: 78.4, screening length: 8.12261 Bohr) occupying 0.523920 of unit cell:	Completed after 9 iterations at t[s]:  20516.53
	FillingsUpdate:  mu: -0.171300000  nElectrons: 227.784263  magneticMoment: [ Abs: 0.00001  Tot: -0.00000 ]
	SubspaceRotationAdjust: set factor to 0.107
ElecMinimize: Iter:   4  G: -1732.254926171228362  |grad|_K:  2.916e-07  alpha:  5.922e-01  linmin:  2.601e-06  t[s]:  20535.86
	Linear fluid (dielectric constant: 78.4, screening length: 8.12261 Bohr) occupying 0.523921 of unit cell:	Completed after 12 iterations at t[s]:  20551.17
	Linear fluid (dielectric constant: 78.4, screening length: 8.12261 Bohr) occupying 0.523921 of unit cell:	Completed after 10 iterations at t[s]:  20564.02
	FillingsUpdate:  mu: -0.171300000  nElectrons: 227.785597  magneticMoment: [ Abs: 0.00001  Tot: -0.00000 ]
	SubspaceRotationAdjust: set factor to 0.105
ElecMinimize: Iter:   5  G: -1732.254936381012385  |grad|_K:  1.976e-07  alpha:  4.200e-01  linmin:  2.474e-06  t[s]:  20583.94
	Linear fluid (dielectric constant: 78.4, screening length: 8.12261 Bohr) occupying 0.523916 of unit cell:	Completed after 9 iterations at t[s]:  20599.70
	Linear fluid (dielectric constant: 78.4, screening length: 8.12261 Bohr) occupying 0.523915 of unit cell:	Completed after 2 iterations at t[s]:  20611.88
	FillingsUpdate:  mu: -0.171300000  nElectrons: 227.784772  magneticMoment: [ Abs: 0.00000  Tot: -0.00000 ]
	SubspaceRotationAdjust: set factor to 0.109
ElecMinimize: Iter:   6  G: -1732.254941971674725  |grad|_K:  1.252e-07  alpha:  5.008e-01  linmin: -4.137e-05  t[s]:  20630.97
	Linear fluid (dielectric constant: 78.4, screening length: 8.12261 Bohr) occupying 0.523913 of unit cell:	Completed after 7 iterations at t[s]:  20645.95
	Linear fluid (dielectric constant: 78.4, screening length: 8.12261 Bohr) occupying 0.523913 of unit cell:	Completed after 2 iterations at t[s]:  20657.93
	FillingsUpdate:  mu: -0.171300000  nElectrons: 227.784401  magneticMoment: [ Abs: 0.00000  Tot: -0.00000 ]
	SubspaceRotationAdjust: set factor to 0.113
ElecMinimize: Iter:   7  G: -1732.254943909624899  |grad|_K:  8.247e-08  alpha:  4.316e-01  linmin: -3.088e-05  t[s]:  20677.32
	Linear fluid (dielectric constant: 78.4, screening length: 8.12261 Bohr) occupying 0.523916 of unit cell:	Completed after 8 iterations at t[s]:  20692.38
	Linear fluid (dielectric constant: 78.4, screening length: 8.12261 Bohr) occupying 0.523915 of unit cell:	Completed after 0 iterations at t[s]:  20704.14
	FillingsUpdate:  mu: -0.171300000  nElectrons: 227.784634  magneticMoment: [ Abs: 0.00000  Tot: -0.00000 ]
	SubspaceRotationAdjust: set factor to 0.104
ElecMinimize: Iter:   8  G: -1732.254944698091322  |grad|_K:  5.146e-08  alpha:  4.050e-01  linmin:  2.490e-04  t[s]:  20723.25
	Linear fluid (dielectric constant: 78.4, screening length: 8.12261 Bohr) occupying 0.523919 of unit cell:	Completed after 9 iterations at t[s]:  20738.38
	Linear fluid (dielectric constant: 78.4, screening length: 8.12261 Bohr) occupying 0.523919 of unit cell:	Completed after 0 iterations at t[s]:  20750.22
	FillingsUpdate:  mu: -0.171300000  nElectrons: 227.784160  magneticMoment: [ Abs: 0.00000  Tot: -0.00000 ]
	SubspaceRotationAdjust: set factor to 0.0841
ElecMinimize: Iter:   9  G: -1732.254944978928734  |grad|_K:  3.522e-08  alpha:  3.737e-01  linmin:  9.870e-05  t[s]:  20769.78
	Linear fluid (dielectric constant: 78.4, screening length: 8.12261 Bohr) occupying 0.523922 of unit cell:	Completed after 8 iterations at t[s]:  20784.81
	Linear fluid (dielectric constant: 78.4, screening length: 8.12261 Bohr) occupying 0.523922 of unit cell:	Completed after 0 iterations at t[s]:  20796.58
	FillingsUpdate:  mu: -0.171300000  nElectrons: 227.784319  magneticMoment: [ Abs: 0.00000  Tot: -0.00000 ]
	SubspaceRotationAdjust: set factor to 0.0779
ElecMinimize: Iter:  10  G: -1732.254945106502419  |grad|_K:  2.153e-08  alpha:  3.614e-01  linmin: -9.910e-04  t[s]:  20815.75
	Linear fluid (dielectric constant: 78.4, screening length: 8.12261 Bohr) occupying 0.523925 of unit cell:	Completed after 2 iterations at t[s]:  20830.39
	Linear fluid (dielectric constant: 78.4, screening length: 8.12261 Bohr) occupying 0.523925 of unit cell:	Completed after 0 iterations at t[s]:  20842.10
	FillingsUpdate:  mu: -0.171300000  nElectrons: 227.784248  magneticMoment: [ Abs: 0.00000  Tot: -0.00000 ]
	SubspaceRotationAdjust: set factor to 0.0931
ElecMinimize: Iter:  11  G: -1732.254945166575681  |grad|_K:  1.525e-08  alpha:  4.413e-01  linmin: -6.858e-04  t[s]:  20861.25
	Linear fluid (dielectric constant: 78.4, screening length: 8.12261 Bohr) occupying 0.523928 of unit cell:	Completed after 2 iterations at t[s]:  20875.72
	Linear fluid (dielectric constant: 78.4, screening length: 8.12261 Bohr) occupying 0.523928 of unit cell:	Completed after 0 iterations at t[s]:  20888.55
	FillingsUpdate:  mu: -0.171300000  nElectrons: 227.784121  magneticMoment: [ Abs: 0.00000  Tot: -0.00000 ]
	SubspaceRotationAdjust: set factor to 0.105
ElecMinimize: Iter:  12  G: -1732.254945195776372  |grad|_K:  1.188e-08  alpha:  4.326e-01  linmin: -6.489e-04  t[s]:  20907.77
ElecMinimize: Converged (|Delta G|<1.000000e-07 for 2 iters).
Setting wave functions to eigenvectors of Hamiltonian
Converging empty states (this may take a while): |deigs|: 6.958e-08

Computing DFT-D3 correction:
# coordination-number Ag 5.403 6.703 8.964 8.947 8.905 7.501 7.501 8.901 8.950 8.967 6.703 5.403
# diagonal-C6 Ag 268.61 268.61 268.61 268.61 268.61 268.61 268.61 268.61 268.61 268.61 268.61 268.61
EvdW_6 =   -0.067846
EvdW_8 =   -0.095080
IonicMinimize: 	Wolfe criterion not satisfied: alpha: 1  (E-E0)/|gdotd0|: 0.396156  gdotd/gdotd0: -0.305299 (taking cubic step)

Computing DFT-D3 correction:
# coordination-number Ag 5.417 6.700 8.966 8.956 8.907 7.507 7.507 8.903 8.958 8.971 6.702 5.415
# diagonal-C6 Ag 268.61 268.61 268.61 268.61 268.61 268.61 268.61 268.61 268.61 268.61 268.61 268.61
EvdW_6 =   -0.067874
EvdW_8 =   -0.095121
Shifting auxilliary hamiltonian by 0.000011 to set nElectrons=227.784121

-------- Electronic minimization -----------
	Linear fluid (dielectric constant: 78.4, screening length: 8.12261 Bohr) occupying 0.524191 of unit cell:	Completed after 14 iterations at t[s]:  20970.24
	FillingsUpdate:  mu: -0.171300000  nElectrons: 227.784121  magneticMoment: [ Abs: 0.00001  Tot: -0.00000 ]
ElecMinimize: Iter:   0  G: -1732.254897981097201  |grad|_K:  2.397e-07  alpha:  1.000e+00
	Linear fluid (dielectric constant: 78.4, screening length: 8.12261 Bohr) occupying 0.524180 of unit cell:	Completed after 12 iterations at t[s]:  21006.56
	Linear fluid (dielectric constant: 78.4, screening length: 8.12261 Bohr) occupying 0.524185 of unit cell:	Completed after 10 iterations at t[s]:  21019.14
	FillingsUpdate:  mu: -0.171300000  nElectrons: 227.782866  magneticMoment: [ Abs: 0.00001  Tot: -0.00000 ]
	SubspaceRotationAdjust: set factor to 0.106
ElecMinimize: Iter:   1  G: -1732.254907027011996  |grad|_K:  2.082e-07  alpha:  5.501e-01  linmin:  1.241e-05  t[s]:  21038.52
	Linear fluid (dielectric constant: 78.4, screening length: 8.12261 Bohr) occupying 0.524181 of unit cell:	Completed after 12 iterations at t[s]:  21053.84
	Linear fluid (dielectric constant: 78.4, screening length: 8.12261 Bohr) occupying 0.524181 of unit cell:	Completed after 0 iterations at t[s]:  21065.76
	FillingsUpdate:  mu: -0.171300000  nElectrons: 227.785037  magneticMoment: [ Abs: 0.00001  Tot: +0.00000 ]
	SubspaceRotationAdjust: set factor to 0.12
ElecMinimize: Iter:   2  G: -1732.254913972917166  |grad|_K:  2.303e-07  alpha:  5.606e-01  linmin: -1.189e-04  t[s]:  21084.98
	Linear fluid (dielectric constant: 78.4, screening length: 8.12261 Bohr) occupying 0.524172 of unit cell:	Completed after 10 iterations at t[s]:  21100.28
	Linear fluid (dielectric constant: 78.4, screening length: 8.12261 Bohr) occupying 0.524168 of unit cell:	Completed after 7 iterations at t[s]:  21112.59
	FillingsUpdate:  mu: -0.171300000  nElectrons: 227.784391  magneticMoment: [ Abs: 0.00001  Tot: +0.00000 ]
	SubspaceRotationAdjust: set factor to 0.136
ElecMinimize: Iter:   3  G: -1732.254926370176236  |grad|_K:  2.525e-07  alpha:  8.146e-01  linmin:  4.205e-05  t[s]:  21131.76
	Linear fluid (dielectric constant: 78.4, screening length: 8.12261 Bohr) occupying 0.524155 of unit cell:	Completed after 10 iterations at t[s]:  21146.94
	Linear fluid (dielectric constant: 78.4, screening length: 8.12261 Bohr) occupying 0.524158 of unit cell:	Completed after 7 iterations at t[s]:  21159.42
	FillingsUpdate:  mu: -0.171300000  nElectrons: 227.783802  magneticMoment: [ Abs: 0.00001  Tot: +0.00000 ]
	SubspaceRotationAdjust: set factor to 0.145
ElecMinimize: Iter:   4  G: -1732.254937831935422  |grad|_K:  2.282e-07  alpha:  6.308e-01  linmin:  2.917e-06  t[s]:  21178.85
	Linear fluid (dielectric constant: 78.4, screening length: 8.12261 Bohr) occupying 0.524156 of unit cell:	Completed after 11 iterations at t[s]:  21195.33
	Linear fluid (dielectric constant: 78.4, screening length: 8.12261 Bohr) occupying 0.524157 of unit cell:	Completed after 9 iterations at t[s]:  21207.90
	FillingsUpdate:  mu: -0.171300000  nElectrons: 227.785047  magneticMoment: [ Abs: 0.00000  Tot: +0.00000 ]
	SubspaceRotationAdjust: set factor to 0.134
ElecMinimize: Iter:   5  G: -1732.254944137336224  |grad|_K:  1.622e-07  alpha:  4.236e-01  linmin:  2.115e-07  t[s]:  21227.11
	Linear fluid (dielectric constant: 78.4, screening length: 8.12261 Bohr) occupying 0.524155 of unit cell:	Completed after 11 iterations at t[s]:  21242.54
	Linear fluid (dielectric constant: 78.4, screening length: 8.12261 Bohr) occupying 0.524155 of unit cell:	Completed after 2 iterations at t[s]:  21254.53
	FillingsUpdate:  mu: -0.171300000  nElectrons: 227.783539  magneticMoment: [ Abs: 0.00000  Tot: +0.00000 ]
	SubspaceRotationAdjust: set factor to 0.0973
ElecMinimize: Iter:   6  G: -1732.254947168032459  |grad|_K:  1.162e-07  alpha:  4.027e-01  linmin:  1.388e-04  t[s]:  21273.85
	Linear fluid (dielectric constant: 78.4, screening length: 8.12261 Bohr) occupying 0.524156 of unit cell:	Completed after 10 iterations at t[s]:  21288.98
	Linear fluid (dielectric constant: 78.4, screening length: 8.12261 Bohr) occupying 0.524155 of unit cell:	Completed after 8 iterations at t[s]:  21301.51
	FillingsUpdate:  mu: -0.171300000  nElectrons: 227.784630  magneticMoment: [ Abs: 0.00000  Tot: +0.00000 ]
	SubspaceRotationAdjust: set factor to 0.071
ElecMinimize: Iter:   7  G: -1732.254948355935085  |grad|_K:  7.228e-08  alpha:  3.111e-01  linmin: -1.184e-04  t[s]:  21320.59
	Linear fluid (dielectric constant: 78.4, screening length: 8.12261 Bohr) occupying 0.524153 of unit cell:	Completed after 2 iterations at t[s]:  21335.23
	Linear fluid (dielectric constant: 78.4, screening length: 8.12261 Bohr) occupying 0.524153 of unit cell:	Completed after 2 iterations at t[s]:  21347.12
	FillingsUpdate:  mu: -0.171300000  nElectrons: 227.784625  magneticMoment: [ Abs: 0.00000  Tot: +0.00000 ]
	SubspaceRotationAdjust: set factor to 0.08
ElecMinimize: Iter:   8  G: -1732.254948951524511  |grad|_K:  4.759e-08  alpha:  3.974e-01  linmin:  2.699e-05  t[s]:  21366.38
	Linear fluid (dielectric constant: 78.4, screening length: 8.12261 Bohr) occupying 0.524149 of unit cell:	Completed after 9 iterations at t[s]:  21381.39
	Linear fluid (dielectric constant: 78.4, screening length: 8.12261 Bohr) occupying 0.524150 of unit cell:	Completed after 2 iterations at t[s]:  21393.37
	FillingsUpdate:  mu: -0.171300000  nElectrons: 227.784422  magneticMoment: [ Abs: 0.00000  Tot: +0.00000 ]
	SubspaceRotationAdjust: set factor to 0.071
ElecMinimize: Iter:   9  G: -1732.254949160323122  |grad|_K:  2.884e-08  alpha:  3.256e-01  linmin: -7.409e-04  t[s]:  21412.60
	Linear fluid (dielectric constant: 78.4, screening length: 8.12261 Bohr) occupying 0.524147 of unit cell:	Completed after 2 iterations at t[s]:  21427.10
	Linear fluid (dielectric constant: 78.4, screening length: 8.12261 Bohr) occupying 0.524146 of unit cell:	Completed after 3 iterations at t[s]:  21439.15
	FillingsUpdate:  mu: -0.171300000  nElectrons: 227.784574  magneticMoment: [ Abs: 0.00000  Tot: +0.00000 ]
	SubspaceRotationAdjust: set factor to 0.0664
ElecMinimize: Iter:  10  G: -1732.254949255925567  |grad|_K:  1.834e-08  alpha:  4.104e-01  linmin:  1.813e-03  t[s]:  21458.24
	Linear fluid (dielectric constant: 78.4, screening length: 8.12261 Bohr) occupying 0.524144 of unit cell:	Completed after 2 iterations at t[s]:  21472.72
	Linear fluid (dielectric constant: 78.4, screening length: 8.12261 Bohr) occupying 0.524144 of unit cell:	Completed after 0 iterations at t[s]:  21484.91
	FillingsUpdate:  mu: -0.171300000  nElectrons: 227.784578  magneticMoment: [ Abs: 0.00000  Tot: +0.00000 ]
	SubspaceRotationAdjust: set factor to 0.0706
ElecMinimize: Iter:  11  G: -1732.254949289548904  |grad|_K:  1.314e-08  alpha:  3.569e-01  linmin:  1.639e-03  t[s]:  21504.02
ElecMinimize: Converged (|Delta G|<1.000000e-07 for 2 iters).
Setting wave functions to eigenvectors of Hamiltonian
Converging empty states (this may take a while): |deigs|: 1.270e-08

Computing DFT-D3 correction:
# coordination-number Ag 5.417 6.700 8.966 8.956 8.907 7.507 7.507 8.903 8.958 8.971 6.702 5.415
# diagonal-C6 Ag 268.61 268.61 268.61 268.61 268.61 268.61 268.61 268.61 268.61 268.61 268.61 268.61
EvdW_6 =   -0.067874
EvdW_8 =   -0.095121

# Ionic positions in cartesian coordinates:
ion Ag  -0.001213823351379  -0.151543310236956  18.010680224321135 1
ion Ag  -0.000395366379077   4.517872879674331   2.188762944898483 1
ion Ag   0.000725627473691   8.969300191720210   5.443544694364588 1
ion Ag  -0.000820489464761   0.020871148071022   8.610539425412471 1
ion Ag   0.000193579393333   4.388941725464837  11.767261607311434 1
ion Ag   5.421397677992523   8.710334670558909  15.029446715758308 1
ion Ag   2.709151519091792   0.144782598487728   3.747977406839691 1
ion Ag   2.710164078038894   4.461074045033238   7.010694902939668 1
ion Ag   2.711034193495187   8.825149961778269  10.167452479317873 1
ion Ag   2.709520969049666  -0.117781112025150  13.332626577738578 1
ion Ag   2.710595325805599   4.334357374442997  16.587248344605324 1
ion Ag   2.711431708854534   9.005947827030571   0.765619676492461 1

# Forces in Cartesian coordinates:
force Ag   0.000007850393172  -0.000058068801319  -0.000143049415474 1
force Ag  -0.000002666045867   0.000062457546439   0.000081330149443 1
force Ag  -0.000003659644690   0.000025209527407   0.000053903821270 1
force Ag   0.000000541494711  -0.000122257922363   0.000230362457295 1
force Ag   0.000001614888980  -0.000010037927222  -0.000058776711918 1
force Ag   0.000001526229831  -0.000096701889231   0.000032974355787 1
force Ag  -0.000001708570260   0.000050310445464  -0.000029877134623 1
force Ag  -0.000002279651221   0.000032685231827   0.000046465201066 1
force Ag  -0.000000987416093   0.000179681008501  -0.000245669695811 1
force Ag   0.000003443502892   0.000014201732627  -0.000072806781447 1
force Ag   0.000003220362347  -0.000050580869930  -0.000083417028271 1
force Ag  -0.000008001146478  -0.000022988078872   0.000143449460542 1

# Energy components:
   A_diel =        0.0397210522738161
   Eewald =     8119.4450262143982400
       EH =     9712.6723608368101850
     Eloc =   -19881.7642175157161546
      Enl =       47.3637713033121415
     EvdW =       -0.1629951532920140
      Exc =     -173.8064040751345374
 Exc_core =        2.4980501419168344
       KE =      402.4285223018673605
  MuShift =        0.0120207576607641
-------------------------------------
     Etot =    -1771.2741441359037253
       TS =        0.0003033653225292
-------------------------------------
        F =    -1771.2744475012261773
      muN =      -39.0194982116773801
-------------------------------------
        G =    -1732.2549492895489038


Dumping 'jdft.fillings' ... done
Dumping 'jdft.wfns' ... done
Dumping 'jdft.fluidState' ... done
Dumping 'jdft.ionpos' ... done
Dumping 'jdft.lattice' ... done
Dumping 'jdft.eigenvals' ... done
Dumping 'jdft.eigStats' ... 
	eMin: -3.553097 at state 0 ( [ +0.000000 +0.000000 +0.000000 ] spin 1 )
	HOMO: -0.171788 at state 40 ( [ -0.333333 +0.000000 +0.000000 ] spin 1 )
	mu  : -0.171300
	LUMO: -0.170687 at state 75 ( [ +0.250000 +0.000000 +0.000000 ] spin -1 )
	eMax: +0.164390 at state 34 ( [ +0.500000 -0.200000 +0.000000 ] spin 1 )
	HOMO-LUMO gap: +0.001101
	Optical gap  : +0.002235 at state 40 ( [ -0.333333 +0.000000 +0.000000 ] spin 1 )
Dumping 'jdft.Ecomponents' ... done
IonicMinimize: Iter:  15  G: -1732.254949289548904  |grad|_K:  8.422e-05  alpha:  2.064e-01  linmin:  1.699e-01  t[s]:  21550.13
IonicMinimize: Converged (|grad|_K<1.000000e-04).

#--- Lowdin population analysis ---
# oxidation-state Ag +0.155 +0.045 -0.034 -0.003 -0.001 -0.017 -0.017 -0.001 -0.003 -0.034 +0.045 +0.155
# magnetic-moments Ag -0.000 +0.000 +0.000 +0.000 +0.000 +0.000 -0.000 -0.000 -0.000 -0.000 -0.000 +0.000


Dumping 'jdft.n_up' ... done
Dumping 'jdft.n_dn' ... done
Dumping 'jdft.tau_up' ... done
Dumping 'jdft.tau_dn' ... done
Dumping 'jdft.eigenvals' ... done
Dumping 'jdft.eigStats' ... 
	eMin: -3.553097 at state 0 ( [ +0.000000 +0.000000 +0.000000 ] spin 1 )
	HOMO: -0.171788 at state 40 ( [ -0.333333 +0.000000 +0.000000 ] spin 1 )
	mu  : -0.171300
	LUMO: -0.170687 at state 75 ( [ +0.250000 +0.000000 +0.000000 ] spin -1 )
	eMax: +0.164390 at state 34 ( [ +0.500000 -0.200000 +0.000000 ] spin 1 )
	HOMO-LUMO gap: +0.001101
	Optical gap  : +0.002235 at state 40 ( [ -0.333333 +0.000000 +0.000000 ] spin 1 )
Dumping 'jdft.kPts' ... done
Dumping 'jdft.dosUp' ... done.
Dumping 'jdft.dosDn' ... done.
End date and time: Mon Dec  6 23:18:39 2021  (Duration: 0-5:59:40.37)
Done!
