
*************** JDFTx 1.6.0  ***************

Start date and time: Thu Feb 17 15:18:45 2022
Executable /projects/musgravc/apps/jdftx-1.6.1/build/jdftx with command-line: -i in
Running on hosts (process indices):  shas0311.rc.int.colorado.edu (0-23)
Divided in process groups (process indices):  0 (0)  1 (1)  2 (2)  3 (3)  4 (4)  5 (5)  6 (6)  7 (7)  8 (8)  9 (9)  10 (10)  11 (11)  12 (12)  13 (13)  14 (14)  15 (15)  16 (16)  17 (17)  18 (18)  19 (19)  20 (20)  21 (21)  22 (22)  23 (23)
Resource initialization completed at t[s]:      0.00
Run totals: 24 processes, 24 threads, 0 GPUs


Input parsed successfully to the following command list (including defaults):

basis kpoint-dependent
converge-empty-states yes
coords-type Cartesian
core-overlap-check none
coulomb-interaction Periodic
davidson-band-ratio 1.1
density-of-states Etol 1.000000e-06 Esigma 1.000000e-03 \
		Complete \
	Total \
	OrthoOrbital Ag 1   s \
	OrthoOrbital Ag 1   p \
	OrthoOrbital Ag 1   px \
	OrthoOrbital Ag 1   py \
	OrthoOrbital Ag 1   pz \
	OrthoOrbital Ag 1   d \
	OrthoOrbital Ag 1   dxy \
	OrthoOrbital Ag 1   dyz \
	OrthoOrbital Ag 1   dz2 \
	OrthoOrbital Ag 1   dxz \
	OrthoOrbital Ag 1   dx2-y2 \
	OrthoOrbital Ag 2   s \
	OrthoOrbital Ag 2   p \
	OrthoOrbital Ag 2   px \
	OrthoOrbital Ag 2   py \
	OrthoOrbital Ag 2   pz \
	OrthoOrbital Ag 2   d \
	OrthoOrbital Ag 2   dxy \
	OrthoOrbital Ag 2   dyz \
	OrthoOrbital Ag 2   dz2 \
	OrthoOrbital Ag 2   dxz \
	OrthoOrbital Ag 2   dx2-y2 \
	OrthoOrbital Ag 3   s \
	OrthoOrbital Ag 3   p \
	OrthoOrbital Ag 3   px \
	OrthoOrbital Ag 3   py \
	OrthoOrbital Ag 3   pz \
	OrthoOrbital Ag 3   d \
	OrthoOrbital Ag 3   dxy \
	OrthoOrbital Ag 3   dyz \
	OrthoOrbital Ag 3   dz2 \
	OrthoOrbital Ag 3   dxz \
	OrthoOrbital Ag 3   dx2-y2 \
	OrthoOrbital Ag 4   s \
	OrthoOrbital Ag 4   p \
	OrthoOrbital Ag 4   px \
	OrthoOrbital Ag 4   py \
	OrthoOrbital Ag 4   pz \
	OrthoOrbital Ag 4   d \
	OrthoOrbital Ag 4   dxy \
	OrthoOrbital Ag 4   dyz \
	OrthoOrbital Ag 4   dz2 \
	OrthoOrbital Ag 4   dxz \
	OrthoOrbital Ag 4   dx2-y2 \
	OrthoOrbital Ag 5   s \
	OrthoOrbital Ag 5   p \
	OrthoOrbital Ag 5   px \
	OrthoOrbital Ag 5   py \
	OrthoOrbital Ag 5   pz \
	OrthoOrbital Ag 5   d \
	OrthoOrbital Ag 5   dxy \
	OrthoOrbital Ag 5   dyz \
	OrthoOrbital Ag 5   dz2 \
	OrthoOrbital Ag 5   dxz \
	OrthoOrbital Ag 5   dx2-y2 \
	OrthoOrbital Ag 6   s \
	OrthoOrbital Ag 6   p \
	OrthoOrbital Ag 6   px \
	OrthoOrbital Ag 6   py \
	OrthoOrbital Ag 6   pz \
	OrthoOrbital Ag 6   d \
	OrthoOrbital Ag 6   dxy \
	OrthoOrbital Ag 6   dyz \
	OrthoOrbital Ag 6   dz2 \
	OrthoOrbital Ag 6   dxz \
	OrthoOrbital Ag 6   dx2-y2 \
	OrthoOrbital Ag 7   s \
	OrthoOrbital Ag 7   p \
	OrthoOrbital Ag 7   px \
	OrthoOrbital Ag 7   py \
	OrthoOrbital Ag 7   pz \
	OrthoOrbital Ag 7   d \
	OrthoOrbital Ag 7   dxy \
	OrthoOrbital Ag 7   dyz \
	OrthoOrbital Ag 7   dz2 \
	OrthoOrbital Ag 7   dxz \
	OrthoOrbital Ag 7   dx2-y2 \
	OrthoOrbital Ag 8   s \
	OrthoOrbital Ag 8   p \
	OrthoOrbital Ag 8   px \
	OrthoOrbital Ag 8   py \
	OrthoOrbital Ag 8   pz \
	OrthoOrbital Ag 8   d \
	OrthoOrbital Ag 8   dxy \
	OrthoOrbital Ag 8   dyz \
	OrthoOrbital Ag 8   dz2 \
	OrthoOrbital Ag 8   dxz \
	OrthoOrbital Ag 8   dx2-y2 \
	OrthoOrbital Ag 9   s \
	OrthoOrbital Ag 9   p \
	OrthoOrbital Ag 9   px \
	OrthoOrbital Ag 9   py \
	OrthoOrbital Ag 9   pz \
	OrthoOrbital Ag 9   d \
	OrthoOrbital Ag 9   dxy \
	OrthoOrbital Ag 9   dyz \
	OrthoOrbital Ag 9   dz2 \
	OrthoOrbital Ag 9   dxz \
	OrthoOrbital Ag 9   dx2-y2 \
	OrthoOrbital Ag 10   s \
	OrthoOrbital Ag 10   p \
	OrthoOrbital Ag 10   px \
	OrthoOrbital Ag 10   py \
	OrthoOrbital Ag 10   pz \
	OrthoOrbital Ag 10   d \
	OrthoOrbital Ag 10   dxy \
	OrthoOrbital Ag 10   dyz \
	OrthoOrbital Ag 10   dz2 \
	OrthoOrbital Ag 10   dxz \
	OrthoOrbital Ag 10   dx2-y2 \
	OrthoOrbital Ag 11   s \
	OrthoOrbital Ag 11   p \
	OrthoOrbital Ag 11   px \
	OrthoOrbital Ag 11   py \
	OrthoOrbital Ag 11   pz \
	OrthoOrbital Ag 11   d \
	OrthoOrbital Ag 11   dxy \
	OrthoOrbital Ag 11   dyz \
	OrthoOrbital Ag 11   dz2 \
	OrthoOrbital Ag 11   dxz \
	OrthoOrbital Ag 11   dx2-y2 \
	OrthoOrbital Ag 12   s \
	OrthoOrbital Ag 12   p \
	OrthoOrbital Ag 12   px \
	OrthoOrbital Ag 12   py \
	OrthoOrbital Ag 12   pz \
	OrthoOrbital Ag 12   d \
	OrthoOrbital Ag 12   dxy \
	OrthoOrbital Ag 12   dyz \
	OrthoOrbital Ag 12   dz2 \
	OrthoOrbital Ag 12   dxz \
	OrthoOrbital Ag 12   dx2-y2 \
	OrthoOrbital Ag 13   s \
	OrthoOrbital Ag 13   p \
	OrthoOrbital Ag 13   px \
	OrthoOrbital Ag 13   py \
	OrthoOrbital Ag 13   pz \
	OrthoOrbital Ag 13   d \
	OrthoOrbital Ag 13   dxy \
	OrthoOrbital Ag 13   dyz \
	OrthoOrbital Ag 13   dz2 \
	OrthoOrbital Ag 13   dxz \
	OrthoOrbital Ag 13   dx2-y2 \
	OrthoOrbital Ag 14   s \
	OrthoOrbital Ag 14   p \
	OrthoOrbital Ag 14   px \
	OrthoOrbital Ag 14   py \
	OrthoOrbital Ag 14   pz \
	OrthoOrbital Ag 14   d \
	OrthoOrbital Ag 14   dxy \
	OrthoOrbital Ag 14   dyz \
	OrthoOrbital Ag 14   dz2 \
	OrthoOrbital Ag 14   dxz \
	OrthoOrbital Ag 14   dx2-y2 \
	OrthoOrbital Ag 15   s \
	OrthoOrbital Ag 15   p \
	OrthoOrbital Ag 15   px \
	OrthoOrbital Ag 15   py \
	OrthoOrbital Ag 15   pz \
	OrthoOrbital Ag 15   d \
	OrthoOrbital Ag 15   dxy \
	OrthoOrbital Ag 15   dyz \
	OrthoOrbital Ag 15   dz2 \
	OrthoOrbital Ag 15   dxz \
	OrthoOrbital Ag 15   dx2-y2 \
	OrthoOrbital Ag 16   s \
	OrthoOrbital Ag 16   p \
	OrthoOrbital Ag 16   px \
	OrthoOrbital Ag 16   py \
	OrthoOrbital Ag 16   pz \
	OrthoOrbital Ag 16   d \
	OrthoOrbital Ag 16   dxy \
	OrthoOrbital Ag 16   dyz \
	OrthoOrbital Ag 16   dz2 \
	OrthoOrbital Ag 16   dxz \
	OrthoOrbital Ag 16   dx2-y2 \
	OrthoOrbital Ag 17   s \
	OrthoOrbital Ag 17   p \
	OrthoOrbital Ag 17   px \
	OrthoOrbital Ag 17   py \
	OrthoOrbital Ag 17   pz \
	OrthoOrbital Ag 17   d \
	OrthoOrbital Ag 17   dxy \
	OrthoOrbital Ag 17   dyz \
	OrthoOrbital Ag 17   dz2 \
	OrthoOrbital Ag 17   dxz \
	OrthoOrbital Ag 17   dx2-y2 \
	OrthoOrbital Ag 18   s \
	OrthoOrbital Ag 18   p \
	OrthoOrbital Ag 18   px \
	OrthoOrbital Ag 18   py \
	OrthoOrbital Ag 18   pz \
	OrthoOrbital Ag 18   d \
	OrthoOrbital Ag 18   dxy \
	OrthoOrbital Ag 18   dyz \
	OrthoOrbital Ag 18   dz2 \
	OrthoOrbital Ag 18   dxz \
	OrthoOrbital Ag 18   dx2-y2 \
	OrthoOrbital Ag 19   s \
	OrthoOrbital Ag 19   p \
	OrthoOrbital Ag 19   px \
	OrthoOrbital Ag 19   py \
	OrthoOrbital Ag 19   pz \
	OrthoOrbital Ag 19   d \
	OrthoOrbital Ag 19   dxy \
	OrthoOrbital Ag 19   dyz \
	OrthoOrbital Ag 19   dz2 \
	OrthoOrbital Ag 19   dxz \
	OrthoOrbital Ag 19   dx2-y2 \
	OrthoOrbital Ag 20   s \
	OrthoOrbital Ag 20   p \
	OrthoOrbital Ag 20   px \
	OrthoOrbital Ag 20   py \
	OrthoOrbital Ag 20   pz \
	OrthoOrbital Ag 20   d \
	OrthoOrbital Ag 20   dxy \
	OrthoOrbital Ag 20   dyz \
	OrthoOrbital Ag 20   dz2 \
	OrthoOrbital Ag 20   dxz \
	OrthoOrbital Ag 20   dx2-y2 \
	OrthoOrbital Ag 21   s \
	OrthoOrbital Ag 21   p \
	OrthoOrbital Ag 21   px \
	OrthoOrbital Ag 21   py \
	OrthoOrbital Ag 21   pz \
	OrthoOrbital Ag 21   d \
	OrthoOrbital Ag 21   dxy \
	OrthoOrbital Ag 21   dyz \
	OrthoOrbital Ag 21   dz2 \
	OrthoOrbital Ag 21   dxz \
	OrthoOrbital Ag 21   dx2-y2 \
	OrthoOrbital Ag 22   s \
	OrthoOrbital Ag 22   p \
	OrthoOrbital Ag 22   px \
	OrthoOrbital Ag 22   py \
	OrthoOrbital Ag 22   pz \
	OrthoOrbital Ag 22   d \
	OrthoOrbital Ag 22   dxy \
	OrthoOrbital Ag 22   dyz \
	OrthoOrbital Ag 22   dz2 \
	OrthoOrbital Ag 22   dxz \
	OrthoOrbital Ag 22   dx2-y2 \
	OrthoOrbital Ag 23   s \
	OrthoOrbital Ag 23   p \
	OrthoOrbital Ag 23   px \
	OrthoOrbital Ag 23   py \
	OrthoOrbital Ag 23   pz \
	OrthoOrbital Ag 23   d \
	OrthoOrbital Ag 23   dxy \
	OrthoOrbital Ag 23   dyz \
	OrthoOrbital Ag 23   dz2 \
	OrthoOrbital Ag 23   dxz \
	OrthoOrbital Ag 23   dx2-y2 \
	OrthoOrbital Ag 24   s \
	OrthoOrbital Ag 24   p \
	OrthoOrbital Ag 24   px \
	OrthoOrbital Ag 24   py \
	OrthoOrbital Ag 24   pz \
	OrthoOrbital Ag 24   d \
	OrthoOrbital Ag 24   dxy \
	OrthoOrbital Ag 24   dyz \
	OrthoOrbital Ag 24   dz2 \
	OrthoOrbital Ag 24   dxz \
	OrthoOrbital Ag 24   dx2-y2 \
	OrthoOrbital Ag 25   s \
	OrthoOrbital Ag 25   p \
	OrthoOrbital Ag 25   px \
	OrthoOrbital Ag 25   py \
	OrthoOrbital Ag 25   pz \
	OrthoOrbital Ag 25   d \
	OrthoOrbital Ag 25   dxy \
	OrthoOrbital Ag 25   dyz \
	OrthoOrbital Ag 25   dz2 \
	OrthoOrbital Ag 25   dxz \
	OrthoOrbital Ag 25   dx2-y2 \
	OrthoOrbital Ag 26   s \
	OrthoOrbital Ag 26   p \
	OrthoOrbital Ag 26   px \
	OrthoOrbital Ag 26   py \
	OrthoOrbital Ag 26   pz \
	OrthoOrbital Ag 26   d \
	OrthoOrbital Ag 26   dxy \
	OrthoOrbital Ag 26   dyz \
	OrthoOrbital Ag 26   dz2 \
	OrthoOrbital Ag 26   dxz \
	OrthoOrbital Ag 26   dx2-y2 \
	OrthoOrbital Ag 27   s \
	OrthoOrbital Ag 27   p \
	OrthoOrbital Ag 27   px \
	OrthoOrbital Ag 27   py \
	OrthoOrbital Ag 27   pz \
	OrthoOrbital Ag 27   d \
	OrthoOrbital Ag 27   dxy \
	OrthoOrbital Ag 27   dyz \
	OrthoOrbital Ag 27   dz2 \
	OrthoOrbital Ag 27   dxz \
	OrthoOrbital Ag 27   dx2-y2 \
	OrthoOrbital Ag 28   s \
	OrthoOrbital Ag 28   p \
	OrthoOrbital Ag 28   px \
	OrthoOrbital Ag 28   py \
	OrthoOrbital Ag 28   pz \
	OrthoOrbital Ag 28   d \
	OrthoOrbital Ag 28   dxy \
	OrthoOrbital Ag 28   dyz \
	OrthoOrbital Ag 28   dz2 \
	OrthoOrbital Ag 28   dxz \
	OrthoOrbital Ag 28   dx2-y2 \
	OrthoOrbital Ag 29   s \
	OrthoOrbital Ag 29   p \
	OrthoOrbital Ag 29   px \
	OrthoOrbital Ag 29   py \
	OrthoOrbital Ag 29   pz \
	OrthoOrbital Ag 29   d \
	OrthoOrbital Ag 29   dxy \
	OrthoOrbital Ag 29   dyz \
	OrthoOrbital Ag 29   dz2 \
	OrthoOrbital Ag 29   dxz \
	OrthoOrbital Ag 29   dx2-y2 \
	OrthoOrbital Ag 30   s \
	OrthoOrbital Ag 30   p \
	OrthoOrbital Ag 30   px \
	OrthoOrbital Ag 30   py \
	OrthoOrbital Ag 30   pz \
	OrthoOrbital Ag 30   d \
	OrthoOrbital Ag 30   dxy \
	OrthoOrbital Ag 30   dyz \
	OrthoOrbital Ag 30   dz2 \
	OrthoOrbital Ag 30   dxz \
	OrthoOrbital Ag 30   dx2-y2 \
	OrthoOrbital Ag 31   s \
	OrthoOrbital Ag 31   p \
	OrthoOrbital Ag 31   px \
	OrthoOrbital Ag 31   py \
	OrthoOrbital Ag 31   pz \
	OrthoOrbital Ag 31   d \
	OrthoOrbital Ag 31   dxy \
	OrthoOrbital Ag 31   dyz \
	OrthoOrbital Ag 31   dz2 \
	OrthoOrbital Ag 31   dxz \
	OrthoOrbital Ag 31   dx2-y2 \
	OrthoOrbital Ag 32   s \
	OrthoOrbital Ag 32   p \
	OrthoOrbital Ag 32   px \
	OrthoOrbital Ag 32   py \
	OrthoOrbital Ag 32   pz \
	OrthoOrbital Ag 32   d \
	OrthoOrbital Ag 32   dxy \
	OrthoOrbital Ag 32   dyz \
	OrthoOrbital Ag 32   dz2 \
	OrthoOrbital Ag 32   dxz \
	OrthoOrbital Ag 32   dx2-y2 \
	OrthoOrbital C 1   s \
	OrthoOrbital C 1   p \
	OrthoOrbital C 1   px \
	OrthoOrbital C 1   py \
	OrthoOrbital C 1   pz \
	OrthoOrbital O 1   s \
	OrthoOrbital O 1   p \
	OrthoOrbital O 1   px \
	OrthoOrbital O 1   py \
	OrthoOrbital O 1   pz
dump End ElecDensity KEdensity BandEigs EigStats RhoAtom DOS Kpoints
dump Ionic State IonicPositions Lattice EigStats Ecomponents
dump 
dump 
dump 
dump 
dump 
dump 
dump 
dump 
dump-name jdft.$VAR
elec-cutoff 20
elec-eigen-algo Davidson
elec-ex-corr gga-PBE
elec-initial-magnetization 0.000000 no
elec-n-bands 371
elec-smearing Fermi 0.001
electronic-minimize  \
	dirUpdateScheme      FletcherReeves \
	linminMethod         DirUpdateRecommended \
	nIterations          100 \
	history              15 \
	knormThreshold       0 \
	energyDiffThreshold  1e-07 \
	nEnergyDiff          2 \
	alphaTstart          1 \
	alphaTmin            1e-10 \
	updateTestStepSize   yes \
	alphaTreduceFactor   0.1 \
	alphaTincreaseFactor 3 \
	nAlphaAdjustMax      3 \
	wolfeEnergy          0.0001 \
	wolfeGradient        0.9 \
	fdTest               no
exchange-regularization WignerSeitzTruncated
fluid LinearPCM 298.000000 1.013250
fluid-anion F- 0.5 MeanFieldLJ \
	epsBulk 1 \
	pMol 0 \
	epsInf 1 \
	Pvap 0 \
	sigmaBulk 0 \
	Rvdw 2.24877 \
	Res 0 \
	tauNuc 343133
fluid-cation Na+ 0.5 MeanFieldLJ \
	epsBulk 1 \
	pMol 0 \
	epsInf 1 \
	Pvap 0 \
	sigmaBulk 0 \
	Rvdw 2.19208 \
	Res 0 \
	tauNuc 343133
fluid-ex-corr lda-TF lda-PZ
fluid-gummel-loop 10 1.000000e-05
fluid-minimize  \
	dirUpdateScheme      PolakRibiere \
	linminMethod         DirUpdateRecommended \
	nIterations          400 \
	history              15 \
	knormThreshold       1e-11 \
	energyDiffThreshold  0 \
	nEnergyDiff          2 \
	alphaTstart          1 \
	alphaTmin            1e-10 \
	updateTestStepSize   yes \
	alphaTreduceFactor   0.1 \
	alphaTincreaseFactor 3 \
	nAlphaAdjustMax      6 \
	wolfeEnergy          0.0001 \
	wolfeGradient        0.9 \
	fdTest               no
fluid-solvent H2O 55.338 ScalarEOS \
	epsBulk 78.4 \
	pMol 0.92466 \
	epsInf 1.77 \
	Pvap 1.06736e-10 \
	sigmaBulk 4.62e-05 \
	Rvdw 2.61727 \
	Res 1.42 \
	tauNuc 343133 \
	poleEl 15 7 1
forces-output-coords Positions
ion Ag  10.840676999999998  15.331290999999997  50.307104999999993 0
ion Ag  10.840676999999998   7.665621999999998  50.307104999999993 0
ion Ag   5.420229999999999  15.331290999999997  50.307104999999993 0
ion Ag   5.420229999999999   7.665621999999998  50.307104999999993 0
ion Ag   0.000314000000000   0.000015000000000  44.768980999999989 0
ion Ag   0.000314000000000   7.665683999999999  44.768980999999989 0
ion Ag   5.420761000000000   0.000015000000000  44.768980999999989 0
ion Ag   5.420761000000000   7.665683999999999  44.768980999999989 0
ion Ag   2.708977000000000   3.832726999999999  52.922469999999990 0
ion Ag   2.708977000000000  11.498394999999997  52.922469999999990 0
ion Ag   8.129423999999998   3.832726999999999  52.922469999999990 0
ion Ag   8.129423999999998  11.498394999999997  52.922469999999990 0
ion Ag   2.710039000000000   3.832803999999999  47.460936999999987 0
ion Ag   2.710039000000000  11.498471999999996  47.460936999999987 0
ion Ag   8.130485999999999   3.832803999999999  47.460936999999987 0
ion Ag   8.130485999999999  11.498471999999996  47.460936999999987 0
ion Ag   0.000434000000000  15.331320999999997  39.268529999999991 0
ion Ag   0.000434000000000   7.665652999999997  39.268529999999991 0
ion Ag   5.420881000000000  15.331320999999997  39.268529999999991 0
ion Ag   5.420881000000000   7.665652999999997  39.268529999999991 0
ion Ag   0.000802000000000   0.000138000000000  33.789433999999993 0
ion Ag   0.000802000000000   7.665805999999997  33.789433999999993 0
ion Ag   5.421249000000000   0.000138000000000  33.789433999999993 0
ion Ag   5.421249000000000   7.665805999999997  33.789433999999993 0
ion Ag   2.710115000000000   3.832818999999999  41.976150999999994 0
ion Ag   2.710115000000000  11.498486999999997  41.976150999999994 0
ion Ag   8.130561999999999   3.832818999999999  41.976150999999994 0
ion Ag   8.130561999999999  11.498486999999997  41.976150999999994 0
ion Ag   2.710418999999999   3.832879999999999  36.414935999999990 0
ion Ag   2.710418999999999  11.498548999999999  36.414935999999990 0
ion Ag   8.130865999999999   3.832879999999999  36.414935999999990 0
ion Ag   8.130865999999999  11.498548999999999  36.414935999999990 0
ion C   2.708977000000000   7.665560999999998  52.907617999999992 1  Linear 0 0 1
ion O   2.769067999999999   7.665560999999998   0.858490000000000 1  Linear 0 0 1
ion-species /projects/musgravc/apps/jdftx-1.6.0/build/pseudopotentials/GBRV_v1.5/$ID_pbe_v1.uspp
ion-species /projects/musgravc/apps/jdftx-1.6.0/build/pseudopotentials/GBRV_v1.5/$ID_pbe_v1.2.uspp
ion-species /projects/musgravc/apps/jdftx-1.6.0/build/pseudopotentials/GBRV_v1.5/$ID_pbe_v1.4.uspp
ion-species /projects/musgravc/apps/jdftx-1.6.0/build/pseudopotentials/GBRV_v1.5/$ID_pbe_v1.5.uspp
ion-width Ecut
ionic-minimize  \
	dirUpdateScheme      L-BFGS \
	linminMethod         DirUpdateRecommended \
	nIterations          100 \
	history              15 \
	knormThreshold       0.0001 \
	energyDiffThreshold  1e-06 \
	nEnergyDiff          2 \
	alphaTstart          1 \
	alphaTmin            1e-10 \
	updateTestStepSize   yes \
	alphaTreduceFactor   0.1 \
	alphaTincreaseFactor 3 \
	nAlphaAdjustMax      3 \
	wolfeEnergy          0.0001 \
	wolfeGradient        0.9 \
	fdTest               no
kpoint   0.000000000000   0.000000000000   0.000000000000  1.00000000000000
kpoint-folding 5 4 1 
latt-move-scale 0 0 0
latt-scale 1 1 1 
lattice  \
	  10.840894000000000    0.000000000000000    0.000000000000000  \
	   0.000000000000000   15.331337000000000    0.000000000000000  \
	   0.000000000000000    0.000000000000000   54.204459999999997 
lattice-minimize  \
	dirUpdateScheme      L-BFGS \
	linminMethod         DirUpdateRecommended \
	nIterations          0 \
	history              15 \
	knormThreshold       0 \
	energyDiffThreshold  1e-06 \
	nEnergyDiff          2 \
	alphaTstart          1 \
	alphaTmin            1e-10 \
	updateTestStepSize   yes \
	alphaTreduceFactor   0.1 \
	alphaTincreaseFactor 3 \
	nAlphaAdjustMax      3 \
	wolfeEnergy          0.0001 \
	wolfeGradient        0.9 \
	fdTest               no
lcao-params 30 1e-06 0.001
pcm-variant CANDLE
spintype z-spin
subspace-rotation-factor 1 yes
symmetries automatic
symmetry-threshold 0.0001
van-der-waals D3



---------- Setting up symmetries ----------

Found 8 point-group symmetries of the bravais lattice
Found 1 space-group symmetries with basis
Applied RMS atom displacement 0 bohrs to make symmetries exact.

---------- Initializing the Grid ----------
R = 
[      10.8409            0            0  ]
[            0      15.3313            0  ]
[            0            0      54.2045  ]
unit cell volume = 9009.07
G =
[   0.579582          0          0  ]
[          0   0.409826          0  ]
[          0          0   0.115916  ]
Minimum fftbox size, Smin = [  44  64  220  ]
Chosen fftbox size, S = [  48  64  224  ]

---------- Exchange Correlation functional ----------
Initalized PBE GGA exchange.
Initalized PBE GGA correlation.

---------- Setting up pseudopotentials ----------
Width of ionic core gaussian charges (only for fluid interactions / plotting) set to 0.397384

Reading pseudopotential file '/projects/musgravc/apps/jdftx-1.6.0/build/pseudopotentials/GBRV_v1.5/ag_pbe_v1.4.uspp':
  Title: Ag.  Created by USPP 7.3.6 on 1-4-15
  Reference state energy: -147.606242.  19 valence electrons in orbitals:
    |400>  occupation: 2  eigenvalue: -3.637437
    |410>  occupation: 6  eigenvalue: -2.297267
    |420>  occupation: 10  eigenvalue: -0.417763
    |500>  occupation: 0.5  eigenvalue: -0.283525
    |510>  occupation: 0  eigenvalue: -0.122889
  lMax: 2  lLocal: 0  QijEcut: 5.5
  6 projectors sampled on a log grid with 717 points:
    l: 0  eig: -0.283528  rCut: 1.5
    l: 0  eig: -3.637440  rCut: 1.5
    l: 1  eig: -0.122892  rCut: 1.5
    l: 1  eig: -2.297267  rCut: 1.5
    l: 2  eig: -0.417762  rCut: 1.7
    l: 2  eig: -1.000000  rCut: 1.7
  Partial core density with radius 1.2
  Transforming core density to a uniform radial grid of dG=0.02 with 1161 points.
  Transforming local potential to a uniform radial grid of dG=0.02 with 1161 points.
  Transforming nonlocal projectors to a uniform radial grid of dG=0.02 with 432 points.
  Transforming density augmentations to a uniform radial grid of dG=0.02 with 1161 points.
  Transforming atomic orbitals to a uniform radial grid of dG=0.02 with 432 points.
  Core radius for overlap checks: 1.70 bohrs.

Reading pseudopotential file '/projects/musgravc/apps/jdftx-1.6.0/build/pseudopotentials/GBRV_v1.5/c_pbe_v1.2.uspp':
  Title: C.  Created by USPP 7.3.6 on 3-2-2014
  Reference state energy: -5.406344.  4 valence electrons in orbitals:
    |200>  occupation: 2  eigenvalue: -0.504890
    |210>  occupation: 2  eigenvalue: -0.194356
  lMax: 1  lLocal: 2  QijEcut: 5
  4 projectors sampled on a log grid with 503 points:
    l: 0  eig: -0.504890  rCut: 1.3
    l: 0  eig: 0.000000  rCut: 1.3
    l: 1  eig: -0.194357  rCut: 1.3
    l: 1  eig: 0.000000  rCut: 1.3
  Partial core density with radius 1.1
  Transforming core density to a uniform radial grid of dG=0.02 with 1161 points.
  Transforming local potential to a uniform radial grid of dG=0.02 with 1161 points.
  Transforming nonlocal projectors to a uniform radial grid of dG=0.02 with 432 points.
  Transforming density augmentations to a uniform radial grid of dG=0.02 with 1161 points.
  Transforming atomic orbitals to a uniform radial grid of dG=0.02 with 432 points.
  Core radius for overlap checks: 1.30 bohrs.

Reading pseudopotential file '/projects/musgravc/apps/jdftx-1.6.0/build/pseudopotentials/GBRV_v1.5/o_pbe_v1.2.uspp':
  Title: O.  Created by USPP 7.3.6 on 3-2-2014
  Reference state energy: -15.894388.  6 valence electrons in orbitals:
    |200>  occupation: 2  eigenvalue: -0.878823
    |210>  occupation: 4  eigenvalue: -0.332131
  lMax: 2  lLocal: 2  QijEcut: 6
  5 projectors sampled on a log grid with 511 points:
    l: 0  eig: -0.878823  rCut: 1.25
    l: 0  eig: 0.000000  rCut: 1.25
    l: 1  eig: -0.332132  rCut: 1.25
    l: 1  eig: 0.000000  rCut: 1.25
    l: 2  eig: 1.000000  rCut: 1.25
  Partial core density with radius 0.7
  Transforming core density to a uniform radial grid of dG=0.02 with 1161 points.
  Transforming local potential to a uniform radial grid of dG=0.02 with 1161 points.
  Transforming nonlocal projectors to a uniform radial grid of dG=0.02 with 432 points.
  Transforming density augmentations to a uniform radial grid of dG=0.02 with 1161 points.
  Transforming atomic orbitals to a uniform radial grid of dG=0.02 with 432 points.
  Core radius for overlap checks: 1.25 bohrs.

Initialized 3 species with 34 total atoms.

Folded 1 k-points by 5x4x1 to 20 k-points.

---------- Setting up k-points, bands, fillings ----------
Adding inversion symmetry to k-mesh for non-inversion-symmetric unit cell.
Reduced to 11 k-points under symmetry. 
Computing the number of bands and number of electrons
Calculating initial fillings.
nElectrons: 618.000000   nBands: 371   nStates: 22

----- Setting up reduced wavefunction bases (one per k-point) -----
average nbasis = 38477.350 , ideal nbasis = 38487.450

----- Initializing Supercell corresponding to k-point mesh -----
Lattice vector linear combinations in supercell:
[   5   0   0  ]
[   0   4   0  ]
[   0   0   1  ]
Supercell lattice vectors:
[  54.2045  0  0  ]
[  0  61.3253  0  ]
[  0  0  54.2045  ]

Initializing DFT-D3 calculator:
	Parameters set for gga-PBE functional
	s6:  1.000  s_r6:  1.217
	s8:  0.722  s_r8:  1.000
	Per-atom parameters loaded for:
	Ag:  sqrtQ[a0]:  5.443  Rcov[a0]:  2.173  CN: [ 0.00 0.97 ]
	 C:  sqrtQ[a0]:  3.105  Rcov[a0]:  1.417  CN: [ 0.00 0.99 2.00 3.00 3.98 ]
	 O:  sqrtQ[a0]:  2.594  Rcov[a0]:  1.191  CN: [ 0.00 0.99 1.99 ]

Initializing DFT-D2 calculator for fluid / solvation:
	Ag:  C6:  427.91 Eh-a0^6  R0: 3.097 a0
	 C:  C6:   30.35 Eh-a0^6  R0: 2.744 a0
	 O:  C6:   12.14 Eh-a0^6  R0: 2.536 a0

---------- Setting up ewald sum ----------
Optimum gaussian width for ewald sums = 4.612011 bohr.
Real space sum over 585 unit cells with max indices [  6  4  2  ]
Reciprocal space sum over 6435 terms with max indices [  5  7  19  ]

Computing DFT-D3 correction:
# coordination-number Ag 8.259 9.295 8.259 9.301 8.995 8.995 8.995 8.995 7.032 7.032 5.494 5.494 8.992 8.992 8.982 8.982 8.929 8.929 8.929 8.929 5.441 5.441 5.441 5.441 8.970 8.970 8.970 8.970 8.219 8.219 8.219 8.219
# coordination-number C 5.022
# coordination-number O 2.296
# diagonal-C6 Ag 268.61 268.61 268.61 268.61 268.61 268.61 268.61 268.61 268.61 268.61 268.61 268.61 268.61 268.61 268.61 268.61 268.61 268.61 268.61 268.61 268.61 268.61 268.61 268.61 268.61 268.61 268.61 268.61 268.61 268.61 268.61 268.61
# diagonal-C6 C 18.21
# diagonal-C6 O 10.37
EvdW_6 =   -0.197892
EvdW_8 =   -0.272125

---------- Allocating electronic variables ----------
Initializing wave functions:  linear combination of atomic orbitals
Ag pseudo-atom occupations:   s ( 2 1 )  p ( 6 0 )  d ( 10 )
C pseudo-atom occupations:   s ( 2 )  p ( 2 )
O pseudo-atom occupations:   s ( 2 )  p ( 4 )
	FillingsUpdate:  mu: +0.040294414  nElectrons: 618.000000  magneticMoment: [ Abs: 0.00321  Tot: -0.00008 ]
LCAOMinimize: Iter:   0  F: -4743.9445791142261442  |grad|_K:  1.680e-03  alpha:  1.000e+00
	FillingsUpdate:  mu: +0.258415175  nElectrons: 618.000000  magneticMoment: [ Abs: 0.00279  Tot: +0.00005 ]
LCAOMinimize: Iter:   1  F: -4744.3635863002127735  |grad|_K:  1.636e-03  alpha:  1.150e-01  linmin:  3.576e-02  cgtest: -3.898e-01  t[s]:    115.19
	FillingsUpdate:  mu: +0.303534160  nElectrons: 618.000000  magneticMoment: [ Abs: 0.00254  Tot: -0.00012 ]
LCAOMinimize: Iter:   2  F: -4744.4924529658192114  |grad|_K:  1.276e-03  alpha:  4.535e-02  linmin:  8.933e-03  cgtest:  6.616e-01  t[s]:    159.43
	FillingsUpdate:  mu: +0.150719437  nElectrons: 618.000000  magneticMoment: [ Abs: 0.00255  Tot: +0.00004 ]
LCAOMinimize: Iter:   3  F: -4744.7477065533103087  |grad|_K:  4.747e-04  alpha:  8.261e-02  linmin:  2.127e-02  cgtest: -1.884e-01  t[s]:    203.78
	FillingsUpdate:  mu: +0.141360374  nElectrons: 618.000000  magneticMoment: [ Abs: 0.00250  Tot: +0.00002 ]
LCAOMinimize: Iter:   4  F: -4744.7679141180424267  |grad|_K:  4.186e-04  alpha:  4.942e-02  linmin: -2.718e-04  cgtest:  1.911e-01  t[s]:    247.65
	FillingsUpdate:  mu: +0.178259867  nElectrons: 618.000000  magneticMoment: [ Abs: 0.00229  Tot: -0.00001 ]
LCAOMinimize: Iter:   5  F: -4744.8220843613444231  |grad|_K:  1.854e-04  alpha:  1.440e-01  linmin: -3.469e-02  cgtest: -1.427e-01  t[s]:    292.07
	FillingsUpdate:  mu: +0.158927914  nElectrons: 618.000000  magneticMoment: [ Abs: 0.00221  Tot: +0.00002 ]
LCAOMinimize: Iter:   6  F: -4744.8371662381650822  |grad|_K:  1.262e-04  alpha:  1.882e-01  linmin: -1.100e-03  cgtest: -3.097e-01  t[s]:    336.36
	FillingsUpdate:  mu: +0.165020399  nElectrons: 618.000000  magneticMoment: [ Abs: 0.00216  Tot: +0.00001 ]
LCAOMinimize: Iter:   7  F: -4744.8403047136298483  |grad|_K:  8.842e-05  alpha:  1.000e-01  linmin:  7.994e-04  cgtest:  5.137e-02  t[s]:    380.39
	FillingsUpdate:  mu: +0.168671296  nElectrons: 618.000000  magneticMoment: [ Abs: 0.00215  Tot: +0.00001 ]
LCAOMinimize: Iter:   8  F: -4744.8409193389534266  |grad|_K:  2.246e-05  alpha:  3.987e-02  linmin: -3.692e-04  cgtest:  4.705e-02  t[s]:    424.73
LCAOMinimize: 	Predicted alpha/alphaT>3.000000, increasing alphaT to 1.196066e-01.
	FillingsUpdate:  mu: +0.170288595  nElectrons: 618.000000  magneticMoment: [ Abs: 0.00215  Tot: +0.00002 ]
LCAOMinimize: Iter:   9  F: -4744.8411123081023106  |grad|_K:  1.527e-05  alpha:  1.923e-01  linmin: -2.573e-04  cgtest: -2.787e-03  t[s]:    480.64
	FillingsUpdate:  mu: +0.169550004  nElectrons: 618.000000  magneticMoment: [ Abs: 0.00216  Tot: +0.00003 ]
LCAOMinimize: Iter:  10  F: -4744.8411469771772317  |grad|_K:  1.225e-05  alpha:  7.449e-02  linmin: -1.776e-04  cgtest:  7.703e-04  t[s]:    525.04
	FillingsUpdate:  mu: +0.168814128  nElectrons: 618.000000  magneticMoment: [ Abs: 0.00216  Tot: +0.00003 ]
LCAOMinimize: Iter:  11  F: -4744.8411698555537441  |grad|_K:  8.669e-06  alpha:  7.657e-02  linmin: -5.384e-06  cgtest: -2.740e-03  t[s]:    569.12
	FillingsUpdate:  mu: +0.169116341  nElectrons: 618.000000  magneticMoment: [ Abs: 0.00217  Tot: +0.00003 ]
LCAOMinimize: Iter:  12  F: -4744.8411920890903275  |grad|_K:  4.024e-06  alpha:  1.489e-01  linmin:  1.643e-04  cgtest:  3.381e-03  t[s]:    613.61
	FillingsUpdate:  mu: +0.169198640  nElectrons: 618.000000  magneticMoment: [ Abs: 0.00217  Tot: +0.00003 ]
LCAOMinimize: Iter:  13  F: -4744.8411979281445383  |grad|_K:  5.716e-06  alpha:  1.816e-01  linmin: -6.545e-06  cgtest:  4.407e-04  t[s]:    657.81
	FillingsUpdate:  mu: +0.169143374  nElectrons: 618.000000  magneticMoment: [ Abs: 0.00217  Tot: +0.00004 ]
LCAOMinimize: Iter:  14  F: -4744.8412016580905401  |grad|_K:  2.131e-06  alpha:  5.740e-02  linmin: -7.480e-05  cgtest:  1.091e-03  t[s]:    701.94
	FillingsUpdate:  mu: +0.168938528  nElectrons: 618.000000  magneticMoment: [ Abs: 0.00218  Tot: +0.00004 ]
LCAOMinimize: Iter:  15  F: -4744.8412026166024589  |grad|_K:  1.388e-06  alpha:  1.062e-01  linmin:  9.240e-05  cgtest: -1.245e-03  t[s]:    746.28
	FillingsUpdate:  mu: +0.169024056  nElectrons: 618.000000  magneticMoment: [ Abs: 0.00218  Tot: +0.00004 ]
LCAOMinimize: Iter:  16  F: -4744.8412033179856735  |grad|_K:  1.168e-06  alpha:  1.830e-01  linmin: -1.645e-04  cgtest:  3.901e-03  t[s]:    790.50
LCAOMinimize: Converged (|Delta F|<1.000000e-06 for 2 iters).
----- createFluidSolver() ----- (Fluid-side solver setup)
   Initializing fluid molecule 'H2O'
     Initializing site 'O'
       Electron density: proportional to exp(-r/0.36935)*erfc((r-0.51523)/0.36823) with norm 6.826
       Charge density: gaussian nuclear width 0.478731 with net site charge 0.826
       Polarizability: cuspless exponential with width 0.32 and norm 3.73
       Hard sphere radius: 2.57003 bohrs
       Positions in reference frame:
         [ +0.000000 +0.000000 +0.000000 ]
     Initializing site 'H'
       Electron density: proportional to exp(-r/0.34641)*erfc((r-0)/0.390882) with norm 0.587
       Charge density: gaussian nuclear width 0.377945 with net site charge -0.413
       Polarizability: cuspless exponential with width 0.39 and norm 3.3
       Positions in reference frame:
         [ +0.000000 -1.441945 +1.122523 ]
         [ +0.000000 +1.441945 +1.122523 ]
     Net charge: 0   dipole magnitude: 0.927204
     Initializing spherical shell mfKernel with radius 2.61727 Bohr
     deltaS corrections:
       site 'O': -7.54299
       site 'H': -6.83917
   Initializing fluid molecule 'Na+'
     Initializing site 'Na'
       Electron density: proportional to exp(-r/0.19682)*erfc((r-0.71491)/0.41314) with norm 8.1383
       Charge density: gaussian nuclear width 0.365347 with net site charge -1
       Hard sphere radius: 1.86327 bohrs
       Positions in reference frame:
         [ +0.000000 +0.000000 +0.000000 ]
     Net charge: -1   dipole magnitude: 0
     Initializing gaussian mfKernel with width: 1.55004 Bohr
     deltaS corrections:
       site 'Na': -22.3555
   Initializing fluid molecule 'F-'
     Initializing site 'F'
       Electron density: proportional to exp(-r/0.38886)*erfc((r-0)/0.438782) with norm 8
       Charge density: gaussian nuclear width 0.374796 with net site charge 1
       Hard sphere radius: 2.39995 bohrs
       Positions in reference frame:
         [ +0.000000 +0.000000 +0.000000 ]
     Net charge: 1   dipole magnitude: 0
     Initializing gaussian mfKernel with width: 1.59012 Bohr
     deltaS corrections:
       site 'F': -9.04335

Correction to mu due to finite nuclear width = -0.0680625
   Cavity determined by nc: 0.00142 and sigma: 0.707107
   Nonlocal vdW cavity from gaussian model electron density with norm = 8 and sigma = 0.993594 bohr
   Charge asymmetry in cavity with sensitivity pCavity = 36.5 e-bohr/Eh
   Electrostatic cavity expanded by eta = 1.46 bohrs
   Weighted density cavitation model constrained by Nbulk: 0.0049383 bohr^-3, Pvap: 3.14029 kPa, Rvdw: 2.61727 bohr and sigmaBulk: 4.62e-05 Eh/bohr^2 at T: 298 K.
   Weighted density dispersion model using vdW pair potentials with single solvent site with sqrtC6eff: 0.77 SI.


---- Citations for features of the code used in this run ----

   Software package:
      R. Sundararaman, K. Letchworth-Weaver, K.A. Schwarz, D. Gunceler, Y. Ozhabes and T.A. Arias, 'JDFTx: software for joint density-functional theory', SoftwareX 6, 278 (2017)

   gga-PBE exchange-correlation functional:
      J.P. Perdew, K. Burke and M. Ernzerhof, Phys. Rev. Lett. 77, 3865 (1996)

   Pseudopotentials:
      KF Garrity, JW Bennett, KM Rabe and D Vanderbilt, Comput. Mater. Sci. 81, 446 (2014)

   DFT-D3 dispersion correction:
      S. Grimme, J. Antony, S. Ehrlich and H. Krieg, J. Chem. Phys. 132, 154104 (2010)

   DFT-D2 dispersion correction:
      S. Grimme, J. Comput. Chem. 27, 1787 (2006)

   Charge-asymmetric nonlocally-determined local-electric (CANDLE) solvation model:
      R. Sundararaman and W.A. Goddard III, J. Chem. Phys. 142, 064107 (2015)

   Total energy minimization with Auxiliary Hamiltonian:
      C. Freysoldt, S. Boeck, and J. Neugebauer, Phys. Rev. B 79, 241103(R) (2009)

   Linear-tetrahedron sampling for density of states:
      G. Lehmann and M. Taut, Phys. status solidi (b) 54, 469 (1972)

This list may not be complete. Please suggest additional citations or
report any other bugs at https://github.com/shankar1729/jdftx/issues

Initialization completed successfully at t[s]:    805.18


Computing DFT-D3 correction:
# coordination-number Ag 8.259 9.295 8.259 9.301 8.995 8.995 8.995 8.995 7.032 7.032 5.494 5.494 8.992 8.992 8.982 8.982 8.929 8.929 8.929 8.929 5.441 5.441 5.441 5.441 8.970 8.970 8.970 8.970 8.219 8.219 8.219 8.219
# coordination-number C 5.022
# coordination-number O 2.296
# diagonal-C6 Ag 268.61 268.61 268.61 268.61 268.61 268.61 268.61 268.61 268.61 268.61 268.61 268.61 268.61 268.61 268.61 268.61 268.61 268.61 268.61 268.61 268.61 268.61 268.61 268.61 268.61 268.61 268.61 268.61 268.61 268.61 268.61 268.61
# diagonal-C6 C 18.21
# diagonal-C6 O 10.37
EvdW_6 =   -0.197892
EvdW_8 =   -0.272125
Fluid solver invoked on fresh (random / LCAO) wavefunctions
Running a vacuum solve first:

-------- Initial electronic minimization -----------
	FillingsUpdate:  mu: +0.169024056  nElectrons: 618.000000  magneticMoment: [ Abs: 0.00218  Tot: +0.00004 ]
ElecMinimize: Iter:   0  F: -4744.841203317985673  |grad|_K:  4.354e-05  alpha:  1.000e+00
	FillingsUpdate:  mu: +0.178941617  nElectrons: 618.000000  magneticMoment: [ Abs: 0.00170  Tot: +0.00004 ]
	SubspaceRotationAdjust: set factor to 0.999
ElecMinimize: Iter:   1  F: -4745.095327603579790  |grad|_K:  2.568e-05  alpha:  4.295e-01  linmin:  1.463e-04  t[s]:    928.67
	FillingsUpdate:  mu: +0.171509485  nElectrons: 618.000000  magneticMoment: [ Abs: 0.00139  Tot: +0.00004 ]
	SubspaceRotationAdjust: set factor to 0.594
ElecMinimize: Iter:   2  F: -4745.144510171675392  |grad|_K:  3.028e-05  alpha:  2.408e-01  linmin:  3.067e-05  t[s]:   1007.63
	FillingsUpdate:  mu: +0.172460245  nElectrons: 618.000000  magneticMoment: [ Abs: 0.00128  Tot: +0.00004 ]
	SubspaceRotationAdjust: set factor to 0.302
ElecMinimize: Iter:   3  F: -4745.156379818323330  |grad|_K:  1.324e-05  alpha:  4.355e-02  linmin:  5.415e-04  t[s]:   1086.70
ElecMinimize: 	Predicted alpha/alphaT>3.000000, increasing alphaT to 1.306436e-01.
	FillingsUpdate:  mu: +0.171925615  nElectrons: 618.000000  magneticMoment: [ Abs: 0.00094  Tot: +0.00005 ]
	SubspaceRotationAdjust: set factor to 0.287
ElecMinimize: Iter:   4  F: -4745.173573615701571  |grad|_K:  8.759e-06  alpha:  3.272e-01  linmin:  9.389e-06  t[s]:   1186.48
	FillingsUpdate:  mu: +0.174289166  nElectrons: 618.000000  magneticMoment: [ Abs: 0.00082  Tot: +0.00005 ]
	SubspaceRotationAdjust: set factor to 0.184
ElecMinimize: Iter:   5  F: -4745.177258461338170  |grad|_K:  6.074e-06  alpha:  1.515e-01  linmin: -3.421e-05  t[s]:   1265.41
	FillingsUpdate:  mu: +0.175865823  nElectrons: 618.000000  magneticMoment: [ Abs: 0.00063  Tot: +0.00005 ]
	SubspaceRotationAdjust: set factor to 0.278
ElecMinimize: Iter:   6  F: -4745.180852910143585  |grad|_K:  3.734e-06  alpha:  3.079e-01  linmin:  1.186e-05  t[s]:   1344.40
	FillingsUpdate:  mu: +0.175657129  nElectrons: 618.000000  magneticMoment: [ Abs: 0.00053  Tot: +0.00005 ]
	SubspaceRotationAdjust: set factor to 0.235
ElecMinimize: Iter:   7  F: -4745.182222061304856  |grad|_K:  3.359e-06  alpha:  3.115e-01  linmin: -7.735e-06  t[s]:   1423.41
	FillingsUpdate:  mu: +0.176066392  nElectrons: 618.000000  magneticMoment: [ Abs: 0.00045  Tot: +0.00005 ]
	SubspaceRotationAdjust: set factor to 0.178
ElecMinimize: Iter:   8  F: -4745.183014522842313  |grad|_K:  2.079e-06  alpha:  2.224e-01  linmin:  5.117e-07  t[s]:   1503.13
	FillingsUpdate:  mu: +0.176547000  nElectrons: 618.000000  magneticMoment: [ Abs: 0.00038  Tot: +0.00005 ]
	SubspaceRotationAdjust: set factor to 0.231
ElecMinimize: Iter:   9  F: -4745.183553323370688  |grad|_K:  1.539e-06  alpha:  3.958e-01  linmin:  2.563e-05  t[s]:   1582.26
	FillingsUpdate:  mu: +0.177079139  nElectrons: 618.000000  magneticMoment: [ Abs: 0.00032  Tot: +0.00005 ]
	SubspaceRotationAdjust: set factor to 0.229
ElecMinimize: Iter:  10  F: -4745.183863253874733  |grad|_K:  1.316e-06  alpha:  4.159e-01  linmin:  1.419e-05  t[s]:   1661.42
	FillingsUpdate:  mu: +0.177199465  nElectrons: 618.000000  magneticMoment: [ Abs: 0.00028  Tot: +0.00005 ]
	SubspaceRotationAdjust: set factor to 0.178
ElecMinimize: Iter:  11  F: -4745.184024584948929  |grad|_K:  1.079e-06  alpha:  2.953e-01  linmin:  1.147e-06  t[s]:   1740.55
	FillingsUpdate:  mu: +0.177232242  nElectrons: 618.000000  magneticMoment: [ Abs: 0.00024  Tot: +0.00004 ]
	SubspaceRotationAdjust: set factor to 0.189
ElecMinimize: Iter:  12  F: -4745.184152312703191  |grad|_K:  7.601e-07  alpha:  3.483e-01  linmin:  1.358e-05  t[s]:   1820.24
	FillingsUpdate:  mu: +0.177473827  nElectrons: 618.000000  magneticMoment: [ Abs: 0.00020  Tot: +0.00003 ]
	SubspaceRotationAdjust: set factor to 0.22
ElecMinimize: Iter:  13  F: -4745.184234296355498  |grad|_K:  5.836e-07  alpha:  4.515e-01  linmin:  9.747e-06  t[s]:   1899.35
	FillingsUpdate:  mu: +0.177624534  nElectrons: 618.000000  magneticMoment: [ Abs: 0.00017  Tot: +0.00003 ]
	SubspaceRotationAdjust: set factor to 0.194
ElecMinimize: Iter:  14  F: -4745.184273504770317  |grad|_K:  5.061e-07  alpha:  3.658e-01  linmin:  6.491e-07  t[s]:   1978.47
	FillingsUpdate:  mu: +0.177645181  nElectrons: 618.000000  magneticMoment: [ Abs: 0.00014  Tot: +0.00002 ]
	SubspaceRotationAdjust: set factor to 0.158
ElecMinimize: Iter:  15  F: -4745.184299460051079  |grad|_K:  3.701e-07  alpha:  3.211e-01  linmin:  1.167e-06  t[s]:   2057.76
	FillingsUpdate:  mu: +0.177625646  nElectrons: 618.000000  magneticMoment: [ Abs: 0.00011  Tot: +0.00002 ]
	SubspaceRotationAdjust: set factor to 0.175
ElecMinimize: Iter:  16  F: -4745.184317061321963  |grad|_K:  2.752e-07  alpha:  4.075e-01  linmin:  9.621e-07  t[s]:   2137.59
	FillingsUpdate:  mu: +0.177696402  nElectrons: 618.000000  magneticMoment: [ Abs: 0.00009  Tot: +0.00002 ]
	SubspaceRotationAdjust: set factor to 0.185
ElecMinimize: Iter:  17  F: -4745.184325762406843  |grad|_K:  2.108e-07  alpha:  3.643e-01  linmin: -2.996e-07  t[s]:   2216.91
	FillingsUpdate:  mu: +0.177719476  nElectrons: 618.000000  magneticMoment: [ Abs: 0.00007  Tot: +0.00001 ]
	SubspaceRotationAdjust: set factor to 0.179
ElecMinimize: Iter:  18  F: -4745.184330764096558  |grad|_K:  1.544e-07  alpha:  3.566e-01  linmin: -1.964e-08  t[s]:   2296.17
	FillingsUpdate:  mu: +0.177686073  nElectrons: 618.000000  magneticMoment: [ Abs: 0.00006  Tot: +0.00001 ]
	SubspaceRotationAdjust: set factor to 0.18
ElecMinimize: Iter:  19  F: -4745.184333613492527  |grad|_K:  1.157e-07  alpha:  3.790e-01  linmin: -5.835e-08  t[s]:   2375.31
	FillingsUpdate:  mu: +0.177691184  nElectrons: 618.000000  magneticMoment: [ Abs: 0.00004  Tot: +0.00001 ]
	SubspaceRotationAdjust: set factor to 0.202
ElecMinimize: Iter:  20  F: -4745.184335276683669  |grad|_K:  8.586e-08  alpha:  3.939e-01  linmin:  1.213e-07  t[s]:   2454.66
	FillingsUpdate:  mu: +0.177695656  nElectrons: 618.000000  magneticMoment: [ Abs: 0.00003  Tot: +0.00001 ]
	SubspaceRotationAdjust: set factor to 0.224
ElecMinimize: Iter:  21  F: -4745.184336138467188  |grad|_K:  7.007e-08  alpha:  3.707e-01  linmin: -5.075e-07  t[s]:   2534.12
	FillingsUpdate:  mu: +0.177689528  nElectrons: 618.000000  magneticMoment: [ Abs: 0.00003  Tot: +0.00001 ]
	SubspaceRotationAdjust: set factor to 0.233
ElecMinimize: Iter:  22  F: -4745.184336675062696  |grad|_K:  5.018e-08  alpha:  3.460e-01  linmin:  8.417e-07  t[s]:   2613.22
	FillingsUpdate:  mu: +0.177686690  nElectrons: 618.000000  magneticMoment: [ Abs: 0.00002  Tot: +0.00000 ]
	SubspaceRotationAdjust: set factor to 0.226
ElecMinimize: Iter:  23  F: -4745.184336987407733  |grad|_K:  4.245e-08  alpha:  3.933e-01  linmin: -8.767e-07  t[s]:   2692.80
	FillingsUpdate:  mu: +0.177681646  nElectrons: 618.000000  magneticMoment: [ Abs: 0.00002  Tot: +0.00000 ]
	SubspaceRotationAdjust: set factor to 0.218
ElecMinimize: Iter:  24  F: -4745.184337164623685  |grad|_K:  3.244e-08  alpha:  3.112e-01  linmin: -4.982e-07  t[s]:   2771.91
	FillingsUpdate:  mu: +0.177679963  nElectrons: 618.000000  magneticMoment: [ Abs: 0.00001  Tot: +0.00000 ]
	SubspaceRotationAdjust: set factor to 0.236
ElecMinimize: Iter:  25  F: -4745.184337292675082  |grad|_K:  2.330e-08  alpha:  3.854e-01  linmin:  1.899e-06  t[s]:   2851.03
	FillingsUpdate:  mu: +0.177683709  nElectrons: 618.000000  magneticMoment: [ Abs: 0.00001  Tot: +0.00000 ]
	SubspaceRotationAdjust: set factor to 0.267
ElecMinimize: Iter:  26  F: -4745.184337363890336  |grad|_K:  1.824e-08  alpha:  4.184e-01  linmin: -1.132e-06  t[s]:   2930.49
	FillingsUpdate:  mu: +0.177680254  nElectrons: 618.000000  magneticMoment: [ Abs: 0.00001  Tot: +0.00000 ]
	SubspaceRotationAdjust: set factor to 0.303
ElecMinimize: Iter:  27  F: -4745.184337401909033  |grad|_K:  1.432e-08  alpha:  3.657e-01  linmin: -1.365e-07  t[s]:   3010.40
ElecMinimize: Converged (|Delta F|<1.000000e-07 for 2 iters).
Setting wave functions to eigenvectors of Hamiltonian
Converging empty states (this may take a while): |deigs|: 8.494e-03
Vacuum energy after initial minimize, F = -4745.184337401909033


-------- Electronic minimization -----------
	Linear fluid (dielectric constant: 78.4, screening length: 8.12261 Bohr) occupying 0.435174 of unit cell:	Completed after 25 iterations at t[s]:   3346.48
	FillingsUpdate:  mu: -0.146345321  nElectrons: 618.000000  magneticMoment: [ Abs: 0.00000  Tot: +0.00000 ]
ElecMinimize: Iter:   0  F: -4745.185989711055299  |grad|_K:  8.345e-07  alpha:  1.000e+00
	Linear fluid (dielectric constant: 78.4, screening length: 8.12261 Bohr) occupying 0.436321 of unit cell:	Completed after 19 iterations at t[s]:   3414.20
	Linear fluid (dielectric constant: 78.4, screening length: 8.12261 Bohr) occupying 0.435944 of unit cell:	Completed after 16 iterations at t[s]:   3438.80
	FillingsUpdate:  mu: -0.142545388  nElectrons: 618.000000  magneticMoment: [ Abs: 0.00000  Tot: +0.00000 ]
	SubspaceRotationAdjust: set factor to 0.223
ElecMinimize: Iter:   1  F: -4745.186135124808970  |grad|_K:  1.025e-06  alpha:  6.654e-01  linmin: -4.830e-09  t[s]:   3470.20
	Linear fluid (dielectric constant: 78.4, screening length: 8.12261 Bohr) occupying 0.437378 of unit cell:	Completed after 18 iterations at t[s]:   3502.82
	Linear fluid (dielectric constant: 78.4, screening length: 8.12261 Bohr) occupying 0.436863 of unit cell:	Completed after 15 iterations at t[s]:   3527.39
	FillingsUpdate:  mu: -0.142572385  nElectrons: 618.000000  magneticMoment: [ Abs: 0.00000  Tot: +0.00000 ]
	SubspaceRotationAdjust: set factor to 0.2
ElecMinimize: Iter:   2  F: -4745.186273643661480  |grad|_K:  5.805e-07  alpha:  4.194e-01  linmin:  3.529e-08  t[s]:   3558.42
	Linear fluid (dielectric constant: 78.4, screening length: 8.12261 Bohr) occupying 0.437217 of unit cell:	Completed after 11 iterations at t[s]:   3590.52
	Linear fluid (dielectric constant: 78.4, screening length: 8.12261 Bohr) occupying 0.437254 of unit cell:	Completed after 2 iterations at t[s]:   3612.43
	FillingsUpdate:  mu: -0.142579762  nElectrons: 618.000000  magneticMoment: [ Abs: 0.00000  Tot: +0.00000 ]
	SubspaceRotationAdjust: set factor to 0.232
ElecMinimize: Iter:   3  F: -4745.186322964392275  |grad|_K:  3.831e-07  alpha:  4.641e-01  linmin: -1.758e-08  t[s]:   3643.87
	Linear fluid (dielectric constant: 78.4, screening length: 8.12261 Bohr) occupying 0.437448 of unit cell:	Completed after 10 iterations at t[s]:   3675.24
	Linear fluid (dielectric constant: 78.4, screening length: 8.12261 Bohr) occupying 0.437411 of unit cell:	Completed after 3 iterations at t[s]:   3697.37
	FillingsUpdate:  mu: -0.142234015  nElectrons: 618.000000  magneticMoment: [ Abs: 0.00000  Tot: +0.00000 ]
	SubspaceRotationAdjust: set factor to 0.263
ElecMinimize: Iter:   4  F: -4745.186340267320702  |grad|_K:  2.621e-07  alpha:  3.737e-01  linmin:  2.405e-09  t[s]:   3728.83
	Linear fluid (dielectric constant: 78.4, screening length: 8.12261 Bohr) occupying 0.437492 of unit cell:	Completed after 6 iterations at t[s]:   3759.16
	Linear fluid (dielectric constant: 78.4, screening length: 8.12261 Bohr) occupying 0.437512 of unit cell:	Completed after 2 iterations at t[s]:   3781.14
	FillingsUpdate:  mu: -0.142267179  nElectrons: 618.000000  magneticMoment: [ Abs: 0.00000  Tot: +0.00000 ]
	SubspaceRotationAdjust: set factor to 0.322
ElecMinimize: Iter:   5  F: -4745.186350461838629  |grad|_K:  1.678e-07  alpha:  4.704e-01  linmin: -5.763e-08  t[s]:   3812.46
	Linear fluid (dielectric constant: 78.4, screening length: 8.12261 Bohr) occupying 0.437563 of unit cell:	Completed after 2 iterations at t[s]:   3842.50
	Linear fluid (dielectric constant: 78.4, screening length: 8.12261 Bohr) occupying 0.437570 of unit cell:	Completed after 2 iterations at t[s]:   3864.70
	FillingsUpdate:  mu: -0.142318440  nElectrons: 618.000000  magneticMoment: [ Abs: 0.00000  Tot: +0.00000 ]
	SubspaceRotationAdjust: set factor to 0.39
ElecMinimize: Iter:   6  F: -4745.186355172059848  |grad|_K:  1.263e-07  alpha:  5.300e-01  linmin: -2.630e-09  t[s]:   3896.04
	Linear fluid (dielectric constant: 78.4, screening length: 8.12261 Bohr) occupying 0.437616 of unit cell:	Completed after 7 iterations at t[s]:   3926.66
	Linear fluid (dielectric constant: 78.4, screening length: 8.12261 Bohr) occupying 0.437612 of unit cell:	Completed after 0 iterations at t[s]:   3948.33
	FillingsUpdate:  mu: -0.142234212  nElectrons: 618.000000  magneticMoment: [ Abs: 0.00000  Tot: +0.00000 ]
	SubspaceRotationAdjust: set factor to 0.451
ElecMinimize: Iter:   7  F: -4745.186357579063042  |grad|_K:  9.401e-08  alpha:  4.778e-01  linmin:  3.565e-07  t[s]:   3979.76
	Linear fluid (dielectric constant: 78.4, screening length: 8.12261 Bohr) occupying 0.437643 of unit cell:	Completed after 7 iterations at t[s]:   4010.44
	Linear fluid (dielectric constant: 78.4, screening length: 8.12261 Bohr) occupying 0.437638 of unit cell:	Completed after 2 iterations at t[s]:   4032.72
	FillingsUpdate:  mu: -0.142299193  nElectrons: 618.000000  magneticMoment: [ Abs: 0.00000  Tot: +0.00000 ]
	SubspaceRotationAdjust: set factor to 0.42
ElecMinimize: Iter:   8  F: -4745.186358712069705  |grad|_K:  7.442e-08  alpha:  4.122e-01  linmin: -3.854e-07  t[s]:   4064.00
	Linear fluid (dielectric constant: 78.4, screening length: 8.12261 Bohr) occupying 0.437662 of unit cell:	Completed after 8 iterations at t[s]:   4094.86
	Linear fluid (dielectric constant: 78.4, screening length: 8.12261 Bohr) occupying 0.437653 of unit cell:	Completed after 5 iterations at t[s]:   4117.37
	FillingsUpdate:  mu: -0.142223190  nElectrons: 618.000000  magneticMoment: [ Abs: 0.00000  Tot: +0.00000 ]
	SubspaceRotationAdjust: set factor to 0.299
ElecMinimize: Iter:   9  F: -4745.186359172655102  |grad|_K:  5.173e-08  alpha:  2.625e-01  linmin:  3.389e-07  t[s]:   4148.85
	Linear fluid (dielectric constant: 78.4, screening length: 8.12261 Bohr) occupying 0.437661 of unit cell:	Completed after 5 iterations at t[s]:   4180.52
	Linear fluid (dielectric constant: 78.4, screening length: 8.12261 Bohr) occupying 0.437664 of unit cell:	Completed after 2 iterations at t[s]:   4202.65
	FillingsUpdate:  mu: -0.142241047  nElectrons: 618.000000  magneticMoment: [ Abs: 0.00000  Tot: +0.00000 ]
	SubspaceRotationAdjust: set factor to 0.292
ElecMinimize: Iter:  10  F: -4745.186359461601569  |grad|_K:  3.032e-08  alpha:  3.436e-01  linmin: -1.750e-06  t[s]:   4233.98
	Linear fluid (dielectric constant: 78.4, screening length: 8.12261 Bohr) occupying 0.437667 of unit cell:	Completed after 2 iterations at t[s]:   4263.82
	Linear fluid (dielectric constant: 78.4, screening length: 8.12261 Bohr) occupying 0.437667 of unit cell:	Completed after 0 iterations at t[s]:   4285.27
	FillingsUpdate:  mu: -0.142250897  nElectrons: 618.000000  magneticMoment: [ Abs: 0.00000  Tot: +0.00000 ]
	SubspaceRotationAdjust: set factor to 0.314
ElecMinimize: Iter:  11  F: -4745.186359560157143  |grad|_K:  2.164e-08  alpha:  3.283e-01  linmin: -8.177e-07  t[s]:   4316.66
	Linear fluid (dielectric constant: 78.4, screening length: 8.12261 Bohr) occupying 0.437668 of unit cell:	Completed after 2 iterations at t[s]:   4346.65
	Linear fluid (dielectric constant: 78.4, screening length: 8.12261 Bohr) occupying 0.437668 of unit cell:	Completed after 0 iterations at t[s]:   4368.28
	FillingsUpdate:  mu: -0.142250173  nElectrons: 618.000000  magneticMoment: [ Abs: 0.00000  Tot: +0.00000 ]
	SubspaceRotationAdjust: set factor to 0.347
ElecMinimize: Iter:  12  F: -4745.186359612971501  |grad|_K:  1.342e-08  alpha:  3.547e-01  linmin: -1.370e-06  t[s]:   4399.56
ElecMinimize: Converged (|Delta F|<1.000000e-07 for 2 iters).
Setting wave functions to eigenvectors of Hamiltonian
Converging empty states (this may take a while): |deigs|: 1.040e-04
Single-point solvation energy estimate, DeltaF = -0.002022211062467

Computing DFT-D3 correction:
# coordination-number Ag 8.259 9.295 8.259 9.301 8.995 8.995 8.995 8.995 7.032 7.032 5.494 5.494 8.992 8.992 8.982 8.982 8.929 8.929 8.929 8.929 5.441 5.441 5.441 5.441 8.970 8.970 8.970 8.970 8.219 8.219 8.219 8.219
# coordination-number C 5.022
# coordination-number O 2.296
# diagonal-C6 Ag 268.61 268.61 268.61 268.61 268.61 268.61 268.61 268.61 268.61 268.61 268.61 268.61 268.61 268.61 268.61 268.61 268.61 268.61 268.61 268.61 268.61 268.61 268.61 268.61 268.61 268.61 268.61 268.61 268.61 268.61 268.61 268.61
# diagonal-C6 C 18.21
# diagonal-C6 O 10.37
EvdW_6 =   -0.197892
EvdW_8 =   -0.272125

# Ionic positions in cartesian coordinates:
ion Ag  10.840676999999998  15.331290999999997  50.307104999999993 0
ion Ag  10.840676999999998   7.665621999999998  50.307104999999993 0
ion Ag   5.420229999999999  15.331290999999997  50.307104999999993 0
ion Ag   5.420229999999999   7.665621999999998  50.307104999999993 0
ion Ag   0.000314000000000   0.000015000000000  44.768980999999989 0
ion Ag   0.000314000000000   7.665683999999999  44.768980999999989 0
ion Ag   5.420761000000000   0.000015000000000  44.768980999999989 0
ion Ag   5.420761000000000   7.665683999999999  44.768980999999989 0
ion Ag   2.708977000000000   3.832726999999999  52.922469999999990 0
ion Ag   2.708977000000000  11.498394999999997  52.922469999999990 0
ion Ag   8.129423999999998   3.832726999999999  52.922469999999990 0
ion Ag   8.129423999999998  11.498394999999997  52.922469999999990 0
ion Ag   2.710039000000000   3.832803999999999  47.460936999999987 0
ion Ag   2.710039000000000  11.498471999999996  47.460936999999987 0
ion Ag   8.130485999999999   3.832803999999999  47.460936999999987 0
ion Ag   8.130485999999999  11.498471999999996  47.460936999999987 0
ion Ag   0.000434000000000  15.331320999999997  39.268529999999991 0
ion Ag   0.000434000000000   7.665652999999997  39.268529999999991 0
ion Ag   5.420881000000000  15.331320999999997  39.268529999999991 0
ion Ag   5.420881000000000   7.665652999999997  39.268529999999991 0
ion Ag   0.000802000000000   0.000138000000000  33.789433999999993 0
ion Ag   0.000802000000000   7.665805999999997  33.789433999999993 0
ion Ag   5.421249000000000   0.000138000000000  33.789433999999993 0
ion Ag   5.421249000000000   7.665805999999997  33.789433999999993 0
ion Ag   2.710115000000000   3.832818999999999  41.976150999999994 0
ion Ag   2.710115000000000  11.498486999999997  41.976150999999994 0
ion Ag   8.130561999999999   3.832818999999999  41.976150999999994 0
ion Ag   8.130561999999999  11.498486999999997  41.976150999999994 0
ion Ag   2.710418999999999   3.832879999999999  36.414935999999990 0
ion Ag   2.710418999999999  11.498548999999999  36.414935999999990 0
ion Ag   8.130865999999999   3.832879999999999  36.414935999999990 0
ion Ag   8.130865999999999  11.498548999999999  36.414935999999990 0
ion C   2.708977000000000   7.665560999999998  52.907617999999992 1  Linear 0 0 1
ion O   2.769067999999999   7.665560999999998   0.858490000000000 1  Linear 0 0 1

# Forces in Cartesian coordinates:
force Ag   0.001300689567067  -0.000002175275084   0.001766161364709 0
force Ag  -0.040382146491485  -0.000001324111378  -0.033129148085605 0
force Ag  -0.001312105177084  -0.000002099923305   0.001865244151557 0
force Ag   0.040390386434934  -0.000000482065384  -0.034231872909377 0
force Ag  -0.000997912420906  -0.000004482267505  -0.001202081760112 0
force Ag  -0.000416266265736  -0.000004492853446  -0.000229238939534 0
force Ag   0.001006075356975  -0.000004593574462  -0.001182496014204 0
force Ag   0.000314151252151  -0.000004798179298  -0.000386303491840 0
force Ag  -0.000429857443403  -0.064652128565493  -0.012626404321396 0
force Ag  -0.000430796565255   0.064653969595286  -0.012669895863205 0
force Ag   0.000120043481765  -0.004383320522575  -0.001846892742099 0
force Ag   0.000119229592169   0.004383325445429  -0.001848758160327 0
force Ag   0.000033306132174  -0.002666214145144  -0.005439305465722 0
force Ag   0.000033100607570   0.002662190533525  -0.005440024199432 0
force Ag   0.000020804017509   0.000029629317962  -0.000647433127380 0
force Ag   0.000020469709766  -0.000025516841131  -0.000648072668557 0
force Ag   0.000182996485651  -0.000002085898497   0.000143755751183 0
force Ag   0.000316394152926  -0.000002109305658   0.000329017346006 0
force Ag  -0.000141531872867  -0.000002268299824   0.000142508357777 0
force Ag  -0.000375096553102  -0.000002562887884   0.000316469392542 0
force Ag   0.000472274420857   0.000000353401791   0.000234398874329 0
force Ag  -0.000086051328681   0.000000555094244  -0.000217608641514 0
force Ag  -0.000457845766034   0.000000193850748   0.000221285544864 0
force Ag   0.000061832867667   0.000000599446773  -0.000237850403001 0
force Ag   0.000017392000633  -0.000777916059407   0.000800604865395 0
force Ag   0.000017351866232   0.000770152105488   0.000800750369320 0
force Ag  -0.000024724835762  -0.000253939578557   0.000274250039104 0
force Ag  -0.000024854946714   0.000254782896248   0.000274276873533 0
force Ag  -0.000003797722095  -0.000209769373101  -0.000650534740346 0
force Ag  -0.000003982391872   0.000198142488946  -0.000650214128409 0
force Ag  -0.000000236032170  -0.000106450762615  -0.000165762629539 0
force Ag  -0.000000315102772   0.000103123066776  -0.000165360144116 0
force C  -0.003207353454757  -0.000001405565661  -0.077118534720163 1  Linear 0 0 1
force O   0.003621630174561  -0.000012014539871   0.182332282860362 1  Linear 0 0 1

# Energy components:
   A_diel =       -0.0024432076643578
   Eewald =    19399.8099574927728099
       EH =    23719.4681522869359469
     Eloc =   -48615.1930811586717027
      Enl =      129.4149910015397040
     EvdW =       -0.4700171836964239
      Exc =     -469.2390781247213454
 Exc_core =        6.7602013405399539
       KE =     1084.2659038036731545
-------------------------------------
     Etot =    -4745.1854137492919108
       TS =        0.0009458636793945
-------------------------------------
        F =    -4745.1863596129715006


Dumping 'jdft.fillings' ... done
Dumping 'jdft.wfns' ... done
Dumping 'jdft.fluidState' ... done
Dumping 'jdft.ionpos' ... done
Dumping 'jdft.lattice' ... done
Dumping 'jdft.eigenvals' ... done
Dumping 'jdft.eigStats' ... 
	eMin: -3.555621 at state 11 ( [ +0.000000 +0.000000 +0.000000 ] spin -1 )
	HOMO: -0.142530 at state 9 ( [ +0.400000 +0.500000 +0.000000 ] spin 1 )
	mu  : -0.142250
	LUMO: -0.140150 at state 2 ( [ +0.000000 +0.500000 +0.000000 ] spin 1 )
	eMax: +0.172205 at state 2 ( [ +0.000000 +0.500000 +0.000000 ] spin 1 )
	HOMO-LUMO gap: +0.002380
	Optical gap  : +0.004623 at state 12 ( [ +0.000000 +0.250000 +0.000000 ] spin -1 )
Dumping 'jdft.Ecomponents' ... done
IonicMinimize: Iter:   0  F: -4745.186359612971501  |grad|_K:  1.400e-01  t[s]:   4718.03

#--- Lowdin population analysis ---
# oxidation-state Ag -0.098 -0.057 -0.098 -0.054 -0.005 -0.007 -0.005 -0.006 +0.103 +0.103 +0.110 +0.110 -0.010 -0.010 -0.026 -0.026 -0.008 +0.000 -0.008 +0.000 +0.103 +0.097 +0.103 +0.096 +0.001 +0.001 -0.000 -0.000 -0.075 -0.075 -0.074 -0.074
# magnetic-moments Ag +0.000 +0.000 +0.000 +0.000 +0.000 +0.000 +0.000 +0.000 +0.000 -0.000 +0.000 +0.000 +0.000 +0.000 +0.000 +0.000 +0.000 +0.000 +0.000 +0.000 -0.000 +0.000 -0.000 +0.000 +0.000 +0.000 +0.000 +0.000 +0.000 +0.000 +0.000 +0.000
# oxidation-state C +0.264
# magnetic-moments C +0.000
# oxidation-state O -0.117
# magnetic-moments O +0.000


Computing DFT-D3 correction:
# coordination-number Ag 8.259 9.288 8.259 9.293 8.995 8.995 8.995 8.995 6.987 6.987 5.494 5.494 8.992 8.992 8.982 8.982 8.929 8.929 8.929 8.929 5.441 5.441 5.441 5.441 8.970 8.970 8.970 8.970 8.219 8.219 8.219 8.219
# coordination-number C 5.027
# coordination-number O 2.186
# diagonal-C6 Ag 268.61 268.61 268.61 268.61 268.61 268.61 268.61 268.61 268.61 268.61 268.61 268.61 268.61 268.61 268.61 268.61 268.61 268.61 268.61 268.61 268.61 268.61 268.61 268.61 268.61 268.61 268.61 268.61 268.61 268.61 268.61 268.61
# diagonal-C6 C 18.21
# diagonal-C6 O 10.38
EvdW_6 =   -0.197874
EvdW_8 =   -0.272167

-------- Electronic minimization -----------
	Linear fluid (dielectric constant: 78.4, screening length: 8.12261 Bohr) occupying 0.437668 of unit cell:	Completed after 21 iterations at t[s]:   4751.35
	FillingsUpdate:  mu: -0.132811299  nElectrons: 618.000000  magneticMoment: [ Abs: 0.00000  Tot: +0.00000 ]
ElecMinimize: Iter:   0  F: -4745.098387617923436  |grad|_K:  2.774e-05  alpha:  1.000e+00
	Linear fluid (dielectric constant: 78.4, screening length: 8.12261 Bohr) occupying 0.437233 of unit cell:	Completed after 24 iterations at t[s]:   4820.71
	Linear fluid (dielectric constant: 78.4, screening length: 8.12261 Bohr) occupying 0.437374 of unit cell:	Completed after 21 iterations at t[s]:   4846.29
	FillingsUpdate:  mu: -0.143774641  nElectrons: 618.000000  magneticMoment: [ Abs: 0.00000  Tot: +0.00000 ]
	SubspaceRotationAdjust: set factor to 0.322
ElecMinimize: Iter:   1  F: -4745.186554284209706  |grad|_K:  8.796e-06  alpha:  3.710e-01  linmin:  1.845e-03  t[s]:   4877.34
	Linear fluid (dielectric constant: 78.4, screening length: 8.12261 Bohr) occupying 0.437287 of unit cell:	Completed after 20 iterations at t[s]:   4909.98
	Linear fluid (dielectric constant: 78.4, screening length: 8.12261 Bohr) occupying 0.437280 of unit cell:	Completed after 12 iterations at t[s]:   4934.23
	FillingsUpdate:  mu: -0.144659375  nElectrons: 618.000000  magneticMoment: [ Abs: 0.00000  Tot: +0.00000 ]
	SubspaceRotationAdjust: set factor to 0.251
ElecMinimize: Iter:   2  F: -4745.193314279483275  |grad|_K:  4.436e-06  alpha:  2.826e-01  linmin: -4.719e-05  t[s]:   4965.65
	Linear fluid (dielectric constant: 78.4, screening length: 8.12261 Bohr) occupying 0.437291 of unit cell:	Completed after 15 iterations at t[s]:   4997.56
	Linear fluid (dielectric constant: 78.4, screening length: 8.12261 Bohr) occupying 0.437295 of unit cell:	Completed after 12 iterations at t[s]:   5021.57
	FillingsUpdate:  mu: -0.144799909  nElectrons: 618.000000  magneticMoment: [ Abs: 0.00000  Tot: +0.00000 ]
	SubspaceRotationAdjust: set factor to 0.227
ElecMinimize: Iter:   3  F: -4745.195477567957823  |grad|_K:  2.829e-06  alpha:  3.482e-01  linmin:  4.702e-06  t[s]:   5052.87
	Linear fluid (dielectric constant: 78.4, screening length: 8.12261 Bohr) occupying 0.437319 of unit cell:	Completed after 15 iterations at t[s]:   5085.51
	Linear fluid (dielectric constant: 78.4, screening length: 8.12261 Bohr) occupying 0.437327 of unit cell:	Completed after 10 iterations at t[s]:   5108.75
	FillingsUpdate:  mu: -0.145341488  nElectrons: 618.000000  magneticMoment: [ Abs: 0.00000  Tot: +0.00000 ]
	SubspaceRotationAdjust: set factor to 0.292
ElecMinimize: Iter:   4  F: -4745.196553374962605  |grad|_K:  1.863e-06  alpha:  4.266e-01  linmin:  4.092e-05  t[s]:   5140.25
	Linear fluid (dielectric constant: 78.4, screening length: 8.12261 Bohr) occupying 0.437366 of unit cell:	Completed after 12 iterations at t[s]:   5171.77
	Linear fluid (dielectric constant: 78.4, screening length: 8.12261 Bohr) occupying 0.437368 of unit cell:	Completed after 6 iterations at t[s]:   5194.55
	FillingsUpdate:  mu: -0.145009602  nElectrons: 618.000000  magneticMoment: [ Abs: 0.00000  Tot: +0.00000 ]
	SubspaceRotationAdjust: set factor to 0.342
ElecMinimize: Iter:   5  F: -4745.197034561464534  |grad|_K:  1.387e-06  alpha:  4.405e-01  linmin:  8.250e-06  t[s]:   5225.96
	Linear fluid (dielectric constant: 78.4, screening length: 8.12261 Bohr) occupying 0.437407 of unit cell:	Completed after 12 iterations at t[s]:   5257.54
	Linear fluid (dielectric constant: 78.4, screening length: 8.12261 Bohr) occupying 0.437411 of unit cell:	Completed after 8 iterations at t[s]:   5280.86
	FillingsUpdate:  mu: -0.144850248  nElectrons: 618.000000  magneticMoment: [ Abs: 0.00000  Tot: +0.00000 ]
	SubspaceRotationAdjust: set factor to 0.359
ElecMinimize: Iter:   6  F: -4745.197330618661908  |grad|_K:  1.112e-06  alpha:  4.879e-01  linmin:  8.134e-06  t[s]:   5312.28
	Linear fluid (dielectric constant: 78.4, screening length: 8.12261 Bohr) occupying 0.437507 of unit cell:	Completed after 15 iterations at t[s]:   5344.17
	Linear fluid (dielectric constant: 78.4, screening length: 8.12261 Bohr) occupying 0.437491 of unit cell:	Completed after 8 iterations at t[s]:   5367.34
	FillingsUpdate:  mu: -0.144469422  nElectrons: 618.000000  magneticMoment: [ Abs: 0.00000  Tot: +0.00000 ]
	SubspaceRotationAdjust: set factor to 0.37
ElecMinimize: Iter:   7  F: -4745.197489107268666  |grad|_K:  8.181e-07  alpha:  4.066e-01  linmin:  7.206e-06  t[s]:   5399.11
	Linear fluid (dielectric constant: 78.4, screening length: 8.12261 Bohr) occupying 0.437549 of unit cell:	Completed after 14 iterations at t[s]:   5430.84
	Linear fluid (dielectric constant: 78.4, screening length: 8.12261 Bohr) occupying 0.437554 of unit cell:	Completed after 6 iterations at t[s]:   5453.62
	FillingsUpdate:  mu: -0.143825003  nElectrons: 618.000000  magneticMoment: [ Abs: 0.00000  Tot: +0.00000 ]
	SubspaceRotationAdjust: set factor to 0.389
ElecMinimize: Iter:   8  F: -4745.197582369450174  |grad|_K:  6.200e-07  alpha:  4.423e-01  linmin:  9.499e-06  t[s]:   5485.27
	Linear fluid (dielectric constant: 78.4, screening length: 8.12261 Bohr) occupying 0.437593 of unit cell:	Completed after 11 iterations at t[s]:   5516.54
	Linear fluid (dielectric constant: 78.4, screening length: 8.12261 Bohr) occupying 0.437583 of unit cell:	Completed after 6 iterations at t[s]:   5539.25
	FillingsUpdate:  mu: -0.144386545  nElectrons: 618.000000  magneticMoment: [ Abs: 0.00000  Tot: +0.00000 ]
	SubspaceRotationAdjust: set factor to 0.402
ElecMinimize: Iter:   9  F: -4745.197622087576747  |grad|_K:  3.685e-07  alpha:  3.280e-01  linmin:  3.583e-06  t[s]:   5570.71
	Linear fluid (dielectric constant: 78.4, screening length: 8.12261 Bohr) occupying 0.437607 of unit cell:	Completed after 9 iterations at t[s]:   5601.79
	Linear fluid (dielectric constant: 78.4, screening length: 8.12261 Bohr) occupying 0.437616 of unit cell:	Completed after 2 iterations at t[s]:   5623.75
	FillingsUpdate:  mu: -0.144129104  nElectrons: 618.000000  magneticMoment: [ Abs: 0.00000  Tot: +0.00000 ]
	SubspaceRotationAdjust: set factor to 0.411
ElecMinimize: Iter:  10  F: -4745.197641335415028  |grad|_K:  2.184e-07  alpha:  4.492e-01  linmin: -1.310e-05  t[s]:   5655.37
	Linear fluid (dielectric constant: 78.4, screening length: 8.12261 Bohr) occupying 0.437625 of unit cell:	Completed after 8 iterations at t[s]:   5686.34
	Linear fluid (dielectric constant: 78.4, screening length: 8.12261 Bohr) occupying 0.437624 of unit cell:	Completed after 2 iterations at t[s]:   5708.28
	FillingsUpdate:  mu: -0.144199143  nElectrons: 618.000000  magneticMoment: [ Abs: 0.00000  Tot: +0.00000 ]
	SubspaceRotationAdjust: set factor to 0.407
ElecMinimize: Iter:  11  F: -4745.197647322745979  |grad|_K:  1.374e-07  alpha:  3.972e-01  linmin:  2.850e-05  t[s]:   5739.69
	Linear fluid (dielectric constant: 78.4, screening length: 8.12261 Bohr) occupying 0.437624 of unit cell:	Completed after 8 iterations at t[s]:   5770.60
	Linear fluid (dielectric constant: 78.4, screening length: 8.12261 Bohr) occupying 0.437624 of unit cell:	Completed after 0 iterations at t[s]:   5792.10
	FillingsUpdate:  mu: -0.144216316  nElectrons: 618.000000  magneticMoment: [ Abs: 0.00000  Tot: +0.00000 ]
	SubspaceRotationAdjust: set factor to 0.351
ElecMinimize: Iter:  12  F: -4745.197649505162190  |grad|_K:  9.479e-08  alpha:  3.668e-01  linmin:  1.542e-04  t[s]:   5823.42
	Linear fluid (dielectric constant: 78.4, screening length: 8.12261 Bohr) occupying 0.437625 of unit cell:	Completed after 7 iterations at t[s]:   5853.89
	Linear fluid (dielectric constant: 78.4, screening length: 8.12261 Bohr) occupying 0.437625 of unit cell:	Completed after 2 iterations at t[s]:   5876.09
	FillingsUpdate:  mu: -0.144257411  nElectrons: 618.000000  magneticMoment: [ Abs: 0.00000  Tot: +0.00000 ]
	SubspaceRotationAdjust: set factor to 0.259
ElecMinimize: Iter:  13  F: -4745.197650340694963  |grad|_K:  6.084e-08  alpha:  3.033e-01  linmin: -1.006e-04  t[s]:   5907.48
	Linear fluid (dielectric constant: 78.4, screening length: 8.12261 Bohr) occupying 0.437624 of unit cell:	Completed after 6 iterations at t[s]:   5937.80
	Linear fluid (dielectric constant: 78.4, screening length: 8.12261 Bohr) occupying 0.437624 of unit cell:	Completed after 0 iterations at t[s]:   5959.55
	FillingsUpdate:  mu: -0.144222839  nElectrons: 618.000000  magneticMoment: [ Abs: 0.00000  Tot: +0.00000 ]
	SubspaceRotationAdjust: set factor to 0.248
ElecMinimize: Iter:  14  F: -4745.197650718984733  |grad|_K:  3.899e-08  alpha:  3.191e-01  linmin: -2.257e-04  t[s]:   5991.05
	Linear fluid (dielectric constant: 78.4, screening length: 8.12261 Bohr) occupying 0.437623 of unit cell:	Completed after 2 iterations at t[s]:   6020.84
	Linear fluid (dielectric constant: 78.4, screening length: 8.12261 Bohr) occupying 0.437622 of unit cell:	Completed after 0 iterations at t[s]:   6042.53
	FillingsUpdate:  mu: -0.144230896  nElectrons: 618.000000  magneticMoment: [ Abs: 0.00000  Tot: +0.00000 ]
	SubspaceRotationAdjust: set factor to 0.308
ElecMinimize: Iter:  15  F: -4745.197650901956877  |grad|_K:  2.611e-08  alpha:  3.681e-01  linmin: -1.869e-04  t[s]:   6073.92
	Linear fluid (dielectric constant: 78.4, screening length: 8.12261 Bohr) occupying 0.437621 of unit cell:	Completed after 2 iterations at t[s]:   6103.70
	Linear fluid (dielectric constant: 78.4, screening length: 8.12261 Bohr) occupying 0.437621 of unit cell:	Completed after 0 iterations at t[s]:   6125.41
	FillingsUpdate:  mu: -0.144250233  nElectrons: 618.000000  magneticMoment: [ Abs: 0.00000  Tot: +0.00000 ]
	SubspaceRotationAdjust: set factor to 0.339
ElecMinimize: Iter:  16  F: -4745.197650992867239  |grad|_K:  1.922e-08  alpha:  4.087e-01  linmin: -1.686e-04  t[s]:   6156.58
	Linear fluid (dielectric constant: 78.4, screening length: 8.12261 Bohr) occupying 0.437620 of unit cell:	Completed after 2 iterations at t[s]:   6186.44
	Linear fluid (dielectric constant: 78.4, screening length: 8.12261 Bohr) occupying 0.437620 of unit cell:	Completed after 0 iterations at t[s]:   6207.93
	FillingsUpdate:  mu: -0.144252853  nElectrons: 618.000000  magneticMoment: [ Abs: 0.00000  Tot: +0.00000 ]
	SubspaceRotationAdjust: set factor to 0.413
ElecMinimize: Iter:  17  F: -4745.197651036989555  |grad|_K:  1.709e-08  alpha:  3.675e-01  linmin:  5.085e-05  t[s]:   6239.52
ElecMinimize: Converged (|Delta F|<1.000000e-07 for 2 iters).
Setting wave functions to eigenvectors of Hamiltonian
Converging empty states (this may take a while): |deigs|: 3.996e-06

Computing DFT-D3 correction:
# coordination-number Ag 8.259 9.288 8.259 9.293 8.995 8.995 8.995 8.995 6.987 6.987 5.494 5.494 8.992 8.992 8.982 8.982 8.929 8.929 8.929 8.929 5.441 5.441 5.441 5.441 8.970 8.970 8.970 8.970 8.219 8.219 8.219 8.219
# coordination-number C 5.027
# coordination-number O 2.186
# diagonal-C6 Ag 268.61 268.61 268.61 268.61 268.61 268.61 268.61 268.61 268.61 268.61 268.61 268.61 268.61 268.61 268.61 268.61 268.61 268.61 268.61 268.61 268.61 268.61 268.61 268.61 268.61 268.61 268.61 268.61 268.61 268.61 268.61 268.61
# diagonal-C6 C 18.21
# diagonal-C6 O 10.38
EvdW_6 =   -0.197874
EvdW_8 =   -0.272167

# Ionic positions in cartesian coordinates:
ion Ag  10.840676999999998  15.331290999999997  50.307104999999993 0
ion Ag  10.840676999999998   7.665621999999998  50.307104999999993 0
ion Ag   5.420229999999999  15.331290999999997  50.307104999999993 0
ion Ag   5.420229999999999   7.665621999999998  50.307104999999993 0
ion Ag   0.000314000000000   0.000015000000000  44.768980999999989 0
ion Ag   0.000314000000000   7.665683999999999  44.768980999999989 0
ion Ag   5.420761000000000   0.000015000000000  44.768980999999989 0
ion Ag   5.420761000000000   7.665683999999999  44.768980999999989 0
ion Ag   2.708977000000000   3.832726999999999  52.922469999999990 0
ion Ag   2.708977000000000  11.498394999999997  52.922469999999990 0
ion Ag   8.129423999999998   3.832726999999999  52.922469999999990 0
ion Ag   8.129423999999998  11.498394999999997  52.922469999999990 0
ion Ag   2.710039000000000   3.832803999999999  47.460936999999987 0
ion Ag   2.710039000000000  11.498471999999996  47.460936999999987 0
ion Ag   8.130485999999999   3.832803999999999  47.460936999999987 0
ion Ag   8.130485999999999  11.498471999999996  47.460936999999987 0
ion Ag   0.000434000000000  15.331320999999997  39.268529999999991 0
ion Ag   0.000434000000000   7.665652999999997  39.268529999999991 0
ion Ag   5.420881000000000  15.331320999999997  39.268529999999991 0
ion Ag   5.420881000000000   7.665652999999997  39.268529999999991 0
ion Ag   0.000802000000000   0.000138000000000  33.789433999999993 0
ion Ag   0.000802000000000   7.665805999999997  33.789433999999993 0
ion Ag   5.421249000000000   0.000138000000000  33.789433999999993 0
ion Ag   5.421249000000000   7.665805999999997  33.789433999999993 0
ion Ag   2.710115000000000   3.832818999999999  41.976150999999994 0
ion Ag   2.710115000000000  11.498486999999997  41.976150999999994 0
ion Ag   8.130561999999999   3.832818999999999  41.976150999999994 0
ion Ag   8.130561999999999  11.498486999999997  41.976150999999994 0
ion Ag   2.710418999999999   3.832879999999999  36.414935999999990 0
ion Ag   2.710418999999999  11.498548999999999  36.414935999999990 0
ion Ag   8.130865999999999   3.832879999999999  36.414935999999990 0
ion Ag   8.130865999999999  11.498548999999999  36.414935999999990 0
ion C   2.708977000000000   7.665560999999998  52.865322399072738 1  Linear 0 0 1
ion O   2.769067999999999   7.665560999999998   0.958490000000000 1  Linear 0 0 1

# Forces in Cartesian coordinates:
force Ag   0.001174103034171  -0.000002102954433   0.001740012666430 0
force Ag  -0.042591265038192  -0.000001332542766  -0.033632920388317 0
force Ag  -0.001185025168894  -0.000002073274281   0.001831930407511 0
force Ag   0.042495798943536  -0.000000506712207  -0.034536401420018 0
force Ag  -0.000960068945228  -0.000004388460587  -0.001150693511253 0
force Ag  -0.000488451475983  -0.000004312381036  -0.000218027633014 0
force Ag   0.000967610404422  -0.000004543990984  -0.001126143682470 0
force Ag   0.000389176818145  -0.000004690360608  -0.000380076937444 0
force Ag  -0.000356547405348  -0.058821008062397  -0.009793523820327 0
force Ag  -0.000357167948017   0.058822177916736  -0.009836794609104 0
force Ag   0.000110793797661  -0.004328487109684  -0.001917039674844 0
force Ag   0.000109944803624   0.004328204720967  -0.001917934633781 0
force Ag   0.000034187050048  -0.002835959730102  -0.005386285842387 0
force Ag   0.000033926184189   0.002833526055867  -0.005386765651416 0
force Ag   0.000022459564451   0.000078538130797  -0.000693020605054 0
force Ag   0.000022109993743  -0.000074267055348  -0.000693895547612 0
force Ag   0.000186307760916  -0.000001982416829   0.000143048569867 0
force Ag   0.000292923256831  -0.000001989916764   0.000307583246168 0
force Ag  -0.000151133063329  -0.000002176178299   0.000134160936301 0
force Ag  -0.000345756356536  -0.000002449643779   0.000299125971113 0
force Ag   0.000452004269981   0.000000444425699   0.000151388203762 0
force Ag  -0.000043762506723   0.000000545986595  -0.000298485231068 0
force Ag  -0.000439311365603   0.000000285615484   0.000142268008350 0
force Ag   0.000021919113003   0.000000612392481  -0.000321450251048 0
force Ag   0.000017360966501  -0.000755617572191   0.000863289261150 0
force Ag   0.000017200325151   0.000747918465477   0.000863379378944 0
force Ag  -0.000024481829507  -0.000255712359655   0.000341430908870 0
force Ag  -0.000024629058554   0.000256689431278   0.000341424488477 0
force Ag  -0.000002920313245  -0.000169617057743  -0.000642520029100 0
force Ag  -0.000003024976172   0.000158797667478  -0.000642157246844 0
force Ag   0.000000574674452  -0.000112178023978  -0.000208977672539 0
force Ag   0.000000487012940   0.000108503666990  -0.000208560418440 0
force C   0.000317267294577   0.000000360169048   0.050903921589734 1  Linear 0 0 1
force O   0.000074092861122  -0.000008007009113   0.049765487837946 1  Linear 0 0 1

# Energy components:
   A_diel =       -0.0028589776703154
   Eewald =    19393.7491881890528020
       EH =    23712.7264335290310555
     Eloc =   -48602.2479690912150545
      Enl =      129.3652671051774519
     EvdW =       -0.4700413878109383
      Exc =     -469.1865348530212145
 Exc_core =        6.7601851362327405
       KE =     1084.1095805655709228
-------------------------------------
     Etot =    -4745.1967497846526385
       TS =        0.0009012523365202
-------------------------------------
        F =    -4745.1976510369895550


Dumping 'jdft.fillings' ... done
Dumping 'jdft.wfns' ... done
Dumping 'jdft.fluidState' ... done
Dumping 'jdft.ionpos' ... done
Dumping 'jdft.lattice' ... done
Dumping 'jdft.eigenvals' ... done
Dumping 'jdft.eigStats' ... 
	eMin: -3.558330 at state 0 ( [ +0.000000 +0.000000 +0.000000 ] spin 1 )
	HOMO: -0.145029 at state 16 ( [ +0.200000 +0.500000 +0.000000 ] spin -1 )
	mu  : -0.144253
	LUMO: -0.144165 at state 20 ( [ +0.400000 +0.500000 +0.000000 ] spin -1 )
	eMax: +0.172743 at state 2 ( [ +0.000000 +0.500000 +0.000000 ] spin 1 )
	HOMO-LUMO gap: +0.000864
	Optical gap  : +0.004759 at state 1 ( [ +0.000000 +0.250000 +0.000000 ] spin 1 )
Dumping 'jdft.Ecomponents' ... done
IonicMinimize: Iter:   1  F: -4745.197651036989555  |grad|_K:  5.034e-02  alpha:  5.484e-01  linmin: -1.924e-01  t[s]:   6495.23

#--- Lowdin population analysis ---
# oxidation-state Ag -0.096 -0.049 -0.096 -0.046 -0.005 -0.007 -0.005 -0.007 +0.113 +0.113 +0.121 +0.121 -0.008 -0.008 -0.025 -0.025 -0.008 +0.001 -0.008 +0.001 +0.108 +0.101 +0.108 +0.101 +0.001 +0.001 -0.000 -0.000 -0.075 -0.075 -0.073 -0.073
# magnetic-moments Ag -0.000 -0.000 -0.000 -0.000 -0.000 -0.000 -0.000 -0.000 -0.000 -0.000 -0.000 -0.000 -0.000 -0.000 -0.000 -0.000 -0.000 -0.000 -0.000 -0.000 -0.000 +0.000 -0.000 +0.000 -0.000 -0.000 -0.000 +0.000 -0.000 -0.000 -0.000 -0.000
# oxidation-state C +0.232
# magnetic-moments C +0.000
# oxidation-state O -0.180
# magnetic-moments O +0.000


Computing DFT-D3 correction:
# coordination-number Ag 8.259 9.283 8.259 9.288 8.995 8.995 8.995 8.995 6.966 6.966 5.493 5.493 8.992 8.992 8.982 8.982 8.929 8.929 8.929 8.929 5.441 5.441 5.441 5.441 8.970 8.970 8.970 8.970 8.219 8.219 8.219 8.219
# coordination-number C 5.024
# coordination-number O 2.136
# diagonal-C6 Ag 268.61 268.61 268.61 268.61 268.61 268.61 268.61 268.61 268.61 268.61 268.61 268.61 268.61 268.61 268.61 268.61 268.61 268.61 268.61 268.61 268.61 268.61 268.61 268.61 268.61 268.61 268.61 268.61 268.61 268.61 268.61 268.61
# diagonal-C6 C 18.21
# diagonal-C6 O 10.38
EvdW_6 =   -0.197858
EvdW_8 =   -0.272163

-------- Electronic minimization -----------
	Linear fluid (dielectric constant: 78.4, screening length: 8.12261 Bohr) occupying 0.437559 of unit cell:	Completed after 19 iterations at t[s]:   6528.31
	FillingsUpdate:  mu: -0.135283585  nElectrons: 618.000000  magneticMoment: [ Abs: 0.00000  Tot: -0.00000 ]
ElecMinimize: Iter:   0  F: -4745.184220107448709  |grad|_K:  1.128e-05  alpha:  1.000e+00
	Linear fluid (dielectric constant: 78.4, screening length: 8.12261 Bohr) occupying 0.436787 of unit cell:	Completed after 23 iterations at t[s]:   6597.74
	Linear fluid (dielectric constant: 78.4, screening length: 8.12261 Bohr) occupying 0.437233 of unit cell:	Completed after 22 iterations at t[s]:   6622.98
	FillingsUpdate:  mu: -0.148738028  nElectrons: 618.000000  magneticMoment: [ Abs: 0.00000  Tot: -0.00000 ]
	SubspaceRotationAdjust: set factor to 0.314
ElecMinimize: Iter:   1  F: -4745.198636312144117  |grad|_K:  4.801e-06  alpha:  3.574e-01  linmin: -1.952e-04  t[s]:   6654.53
	Linear fluid (dielectric constant: 78.4, screening length: 8.12261 Bohr) occupying 0.437444 of unit cell:	Completed after 20 iterations at t[s]:   6687.99
	Linear fluid (dielectric constant: 78.4, screening length: 8.12261 Bohr) occupying 0.437320 of unit cell:	Completed after 20 iterations at t[s]:   6712.89
	FillingsUpdate:  mu: -0.144191017  nElectrons: 618.000000  magneticMoment: [ Abs: 0.00000  Tot: -0.00000 ]
	SubspaceRotationAdjust: set factor to 0.183
ElecMinimize: Iter:   2  F: -4745.200075675652442  |grad|_K:  2.170e-06  alpha:  1.983e-01  linmin:  6.171e-05  t[s]:   6744.59
	Linear fluid (dielectric constant: 78.4, screening length: 8.12261 Bohr) occupying 0.437341 of unit cell:	Completed after 12 iterations at t[s]:   6776.26
	Linear fluid (dielectric constant: 78.4, screening length: 8.12261 Bohr) occupying 0.437363 of unit cell:	Completed after 12 iterations at t[s]:   6800.10
	FillingsUpdate:  mu: -0.143729883  nElectrons: 618.000000  magneticMoment: [ Abs: 0.00000  Tot: -0.00000 ]
	SubspaceRotationAdjust: set factor to 0.214
ElecMinimize: Iter:   3  F: -4745.200667541775147  |grad|_K:  1.308e-06  alpha:  3.994e-01  linmin:  2.167e-05  t[s]:   6831.74
	Linear fluid (dielectric constant: 78.4, screening length: 8.12261 Bohr) occupying 0.437361 of unit cell:	Completed after 15 iterations at t[s]:   6864.11
	Linear fluid (dielectric constant: 78.4, screening length: 8.12261 Bohr) occupying 0.437361 of unit cell:	Completed after 2 iterations at t[s]:   6887.06
	FillingsUpdate:  mu: -0.145473214  nElectrons: 618.000000  magneticMoment: [ Abs: 0.00000  Tot: -0.00000 ]
	SubspaceRotationAdjust: set factor to 0.223
ElecMinimize: Iter:   4  F: -4745.200879095045821  |grad|_K:  7.883e-07  alpha:  3.922e-01  linmin:  3.431e-05  t[s]:   6918.47
	Linear fluid (dielectric constant: 78.4, screening length: 8.12261 Bohr) occupying 0.437374 of unit cell:	Completed after 11 iterations at t[s]:   6949.87
	Linear fluid (dielectric constant: 78.4, screening length: 8.12261 Bohr) occupying 0.437375 of unit cell:	Completed after 2 iterations at t[s]:   6971.97
	FillingsUpdate:  mu: -0.145147068  nElectrons: 618.000000  magneticMoment: [ Abs: 0.00000  Tot: -0.00000 ]
	SubspaceRotationAdjust: set factor to 0.261
ElecMinimize: Iter:   5  F: -4745.200959382483234  |grad|_K:  4.866e-07  alpha:  4.098e-01  linmin: -2.624e-05  t[s]:   7003.36
	Linear fluid (dielectric constant: 78.4, screening length: 8.12261 Bohr) occupying 0.437386 of unit cell:	Completed after 11 iterations at t[s]:   7035.23
	Linear fluid (dielectric constant: 78.4, screening length: 8.12261 Bohr) occupying 0.437389 of unit cell:	Completed after 6 iterations at t[s]:   7057.83
	FillingsUpdate:  mu: -0.144599456  nElectrons: 618.000000  magneticMoment: [ Abs: 0.00000  Tot: -0.00000 ]
	SubspaceRotationAdjust: set factor to 0.329
ElecMinimize: Iter:   6  F: -4745.200998655548574  |grad|_K:  3.909e-07  alpha:  5.246e-01  linmin: -6.553e-06  t[s]:   7089.15
	Linear fluid (dielectric constant: 78.4, screening length: 8.12261 Bohr) occupying 0.437404 of unit cell:	Completed after 10 iterations at t[s]:   7120.35
[...]
ion Ag   8.130561999999999   3.832818999999999  41.976150999999994 0
ion Ag   8.130561999999999  11.498486999999997  41.976150999999994 0
ion Ag   2.710418999999999   3.832879999999999  36.414935999999990 0
ion Ag   2.710418999999999  11.498548999999999  36.414935999999990 0
ion Ag   8.130865999999999   3.832879999999999  36.414935999999990 0
ion Ag   8.130865999999999  11.498548999999999  36.414935999999990 0
ion C   2.708977000000000   7.665560999999998  55.556718300436891 1  Linear 0 0 1
ion O   2.769067999999999   7.665560999999998   3.550982300563825 1  Linear 0 0 1

# Forces in Cartesian coordinates:
force Ag   0.001010859877460  -0.000002525560138   0.001036643630239 0
force Ag  -0.003808226781304  -0.000002193409325  -0.005136732543822 0
force Ag  -0.001031668553633  -0.000002701868459   0.001033660857877 0
force Ag   0.003762347317790  -0.000002405590846  -0.005051005574010 0
force Ag  -0.000274056056329  -0.000005219941344  -0.000935865153466 0
force Ag   0.000135741733283  -0.000005384302364  -0.001620769822927 0
force Ag   0.000275855410436  -0.000005515733039  -0.000908409286344 0
force Ag  -0.000175446258452  -0.000005664400680  -0.001669357170242 0
force Ag  -0.000045342958077   0.000221536002872   0.004085443613900 0
force Ag  -0.000044476767554  -0.000234856698864   0.004070137735995 0
force Ag  -0.000003505019305  -0.002021108033889   0.000067246337627 0
force Ag  -0.000004099713084   0.002024915185777   0.000068123117998 0
force Ag  -0.000011122762708   0.000256536340683  -0.000233107828048 0
force Ag  -0.000011308031942  -0.000266805975330  -0.000233000956686 0
force Ag   0.000008893008734  -0.000762417241290   0.000218639792574 0
force Ag   0.000008682691437   0.000770546121709   0.000219821051449 0
force Ag  -0.000175694097621  -0.000003072176686   0.000564612260074 0
force Ag   0.000137294942296  -0.000002928760646  -0.000314420381022 0
force Ag   0.000170718048974  -0.000003288315140   0.000570168943190 0
force Ag  -0.000184081190010  -0.000003172398040  -0.000331138379774 0
force Ag   0.000787466472834  -0.000000464322906  -0.000411926061444 0
force Ag  -0.000056725178103  -0.000000285838299   0.000264372917674 0
force Ag  -0.000776436387084  -0.000000687299288  -0.000403748221735 0
force Ag   0.000031038137299  -0.000000451478923   0.000252688845762 0
force Ag   0.000007127074403  -0.000461633661256   0.000875896389169 0
force Ag   0.000006486947800   0.000449003523046   0.000874759212726 0
force Ag  -0.000001649556777  -0.000035655688890   0.001422256454728 0
force Ag  -0.000001837723998   0.000040673563072   0.001422400125119 0
force Ag   0.000000658669403  -0.000214089423524  -0.000446771892251 0
force Ag   0.000000877380978   0.000194007140984  -0.000446558069742 0
force Ag   0.000011050339552  -0.000078984765624  -0.000124547900868 0
force Ag   0.000010928236732   0.000079357277767  -0.000124463604975 0
force C   0.000288461497276  -0.000001222431900   0.001215271743914 1  Linear 0 0 1
force O  -0.000213466119071   0.000007823233990  -0.001027925900459 1  Linear 0 0 1

# Energy components:
   A_diel =       -0.0014489797690439
   Eewald =    19080.9103180174934096
       EH =    23400.0891438332946564
     Eloc =   -47976.5596962464987882
      Enl =      129.3815708779861779
     EvdW =       -0.4689684848097903
      Exc =     -468.9748057940140598
 Exc_core =        6.7601968703381203
       KE =     1083.5797315521590463
-------------------------------------
     Etot =    -4745.2839583538243460
       TS =        0.0012806310268674
-------------------------------------
        F =    -4745.2852389848512757


Dumping 'jdft.fillings' ... done
Dumping 'jdft.wfns' ... done
Dumping 'jdft.fluidState' ... done
Dumping 'jdft.ionpos' ... done
Dumping 'jdft.lattice' ... done
Dumping 'jdft.eigenvals' ... done
Dumping 'jdft.eigStats' ... 
	eMin: -3.528523 at state 0 ( [ +0.000000 +0.000000 +0.000000 ] spin 1 )
	HOMO: -0.147183 at state 21 ( [ +0.400000 -0.250000 +0.000000 ] spin -1 )
	mu  : -0.146467
	LUMO: -0.146353 at state 1 ( [ +0.000000 +0.250000 +0.000000 ] spin 1 )
	eMax: +0.166266 at state 2 ( [ +0.000000 +0.500000 +0.000000 ] spin 1 )
	HOMO-LUMO gap: +0.000830
	Optical gap  : +0.002756 at state 21 ( [ +0.400000 -0.250000 +0.000000 ] spin -1 )
Dumping 'jdft.Ecomponents' ... done
IonicMinimize: Iter:  20  F: -4745.285238984851276  |grad|_K:  1.126e-03  alpha:  1.000e+00  linmin: -3.550e-02  t[s]:  51357.67

#--- Lowdin population analysis ---
# oxidation-state Ag -0.079 -0.046 -0.079 -0.047 -0.005 +0.001 -0.005 +0.001 -0.010 -0.010 +0.102 +0.102 -0.012 -0.012 -0.007 -0.007 -0.006 -0.002 -0.006 -0.002 +0.101 +0.115 +0.101 +0.115 -0.001 -0.001 -0.002 -0.002 -0.076 -0.076 -0.071 -0.071
# magnetic-moments Ag +0.000 +0.000 +0.000 +0.000 +0.000 +0.000 +0.000 +0.000 +0.000 +0.000 +0.000 +0.000 +0.000 +0.000 +0.000 +0.000 +0.000 +0.000 +0.000 +0.000 +0.000 +0.000 +0.000 +0.000 +0.000 +0.000 +0.000 +0.000 +0.000 +0.000 +0.000 +0.000
# oxidation-state C +0.369
# magnetic-moments C +0.000
# oxidation-state O -0.112
# magnetic-moments O +0.000


Computing DFT-D3 correction:
# coordination-number Ag 8.257 8.302 8.257 8.302 8.994 8.994 8.994 8.994 6.085 6.085 5.476 5.476 8.981 8.981 8.980 8.980 8.929 8.929 8.929 8.929 5.441 5.441 5.441 5.441 8.970 8.970 8.970 8.970 8.219 8.219 8.219 8.219
# coordination-number C 2.332
# coordination-number O 1.033
# diagonal-C6 Ag 268.61 268.61 268.61 268.61 268.61 268.61 268.61 268.61 268.61 268.61 268.61 268.61 268.61 268.61 268.61 268.61 268.61 268.61 268.61 268.61 268.61 268.61 268.61 268.61 268.61 268.61 268.61 268.61 268.61 268.61 268.61 268.61
# diagonal-C6 C 28.60
# diagonal-C6 O 12.78
EvdW_6 =   -0.197743
EvdW_8 =   -0.271220

-------- Electronic minimization -----------
	Linear fluid (dielectric constant: 78.4, screening length: 8.12261 Bohr) occupying 0.419295 of unit cell:	Completed after 9 iterations at t[s]:  51392.61
	FillingsUpdate:  mu: -0.146416203  nElectrons: 618.000000  magneticMoment: [ Abs: 0.00000  Tot: +0.00000 ]
ElecMinimize: Iter:   0  F: -4745.285178510798687  |grad|_K:  6.945e-07  alpha:  1.000e+00
	Linear fluid (dielectric constant: 78.4, screening length: 8.12261 Bohr) occupying 0.419305 of unit cell:	Completed after 12 iterations at t[s]:  51459.44
	Linear fluid (dielectric constant: 78.4, screening length: 8.12261 Bohr) occupying 0.419298 of unit cell:	Completed after 11 iterations at t[s]:  51482.87
	FillingsUpdate:  mu: -0.146318781  nElectrons: 618.000000  magneticMoment: [ Abs: 0.00000  Tot: +0.00000 ]
	SubspaceRotationAdjust: set factor to 0.575
ElecMinimize: Iter:   1  F: -4745.285225015263677  |grad|_K:  3.039e-07  alpha:  3.062e-01  linmin:  7.300e-05  t[s]:  51514.38
	Linear fluid (dielectric constant: 78.4, screening length: 8.12261 Bohr) occupying 0.419295 of unit cell:	Completed after 10 iterations at t[s]:  51545.55
	Linear fluid (dielectric constant: 78.4, screening length: 8.12261 Bohr) occupying 0.419295 of unit cell:	Completed after 3 iterations at t[s]:  51567.87
	FillingsUpdate:  mu: -0.146595083  nElectrons: 618.000000  magneticMoment: [ Abs: 0.00000  Tot: +0.00000 ]
	SubspaceRotationAdjust: set factor to 0.443
ElecMinimize: Iter:   2  F: -4745.285235571400335  |grad|_K:  2.100e-07  alpha:  3.625e-01  linmin: -6.975e-05  t[s]:  51599.35
	Linear fluid (dielectric constant: 78.4, screening length: 8.12261 Bohr) occupying 0.419294 of unit cell:	Completed after 10 iterations at t[s]:  51630.52
	Linear fluid (dielectric constant: 78.4, screening length: 8.12261 Bohr) occupying 0.419294 of unit cell:	Completed after 8 iterations at t[s]:  51653.49
	FillingsUpdate:  mu: -0.146296839  nElectrons: 618.000000  magneticMoment: [ Abs: 0.00000  Tot: +0.00000 ]
	SubspaceRotationAdjust: set factor to 0.345
ElecMinimize: Iter:   3  F: -4745.285238832438154  |grad|_K:  1.690e-07  alpha:  2.314e-01  linmin:  7.725e-05  t[s]:  51685.10
	Linear fluid (dielectric constant: 78.4, screening length: 8.12261 Bohr) occupying 0.419294 of unit cell:	Completed after 5 iterations at t[s]:  51715.36
	Linear fluid (dielectric constant: 78.4, screening length: 8.12261 Bohr) occupying 0.419295 of unit cell:	Completed after 7 iterations at t[s]:  51738.47
	FillingsUpdate:  mu: -0.146300505  nElectrons: 618.000000  magneticMoment: [ Abs: 0.00000  Tot: +0.00000 ]
	SubspaceRotationAdjust: set factor to 0.512
ElecMinimize: Iter:   4  F: -4745.285242287412984  |grad|_K:  9.519e-08  alpha:  3.855e-01  linmin: -3.398e-05  t[s]:  51769.83
	Linear fluid (dielectric constant: 78.4, screening length: 8.12261 Bohr) occupying 0.419290 of unit cell:	Completed after 10 iterations at t[s]:  51801.13
	Linear fluid (dielectric constant: 78.4, screening length: 8.12261 Bohr) occupying 0.419290 of unit cell:	Completed after 0 iterations at t[s]:  51822.83
	FillingsUpdate:  mu: -0.146573428  nElectrons: 618.000000  magneticMoment: [ Abs: 0.00000  Tot: +0.00000 ]
	SubspaceRotationAdjust: set factor to 0.453
ElecMinimize: Iter:   5  F: -4745.285243365110546  |grad|_K:  8.503e-08  alpha:  3.760e-01  linmin:  9.785e-05  t[s]:  51854.37
	Linear fluid (dielectric constant: 78.4, screening length: 8.12261 Bohr) occupying 0.419290 of unit cell:	Completed after 11 iterations at t[s]:  51886.39
	Linear fluid (dielectric constant: 78.4, screening length: 8.12261 Bohr) occupying 0.419290 of unit cell:	Completed after 6 iterations at t[s]:  51908.96
	FillingsUpdate:  mu: -0.146379594  nElectrons: 618.000000  magneticMoment: [ Abs: 0.00000  Tot: +0.00000 ]
	SubspaceRotationAdjust: set factor to 0.31
ElecMinimize: Iter:   6  F: -4745.285243871408056  |grad|_K:  4.883e-08  alpha:  2.260e-01  linmin:  4.271e-05  t[s]:  51940.19
	Linear fluid (dielectric constant: 78.4, screening length: 8.12261 Bohr) occupying 0.419290 of unit cell:	Completed after 5 iterations at t[s]:  51970.57
	Linear fluid (dielectric constant: 78.4, screening length: 8.12261 Bohr) occupying 0.419290 of unit cell:	Completed after 0 iterations at t[s]:  51992.40
	FillingsUpdate:  mu: -0.146381399  nElectrons: 618.000000  magneticMoment: [ Abs: 0.00000  Tot: +0.00000 ]
	SubspaceRotationAdjust: set factor to 0.347
ElecMinimize: Iter:   7  F: -4745.285244077970674  |grad|_K:  2.558e-08  alpha:  2.715e-01  linmin: -1.769e-03  t[s]:  52023.84
	Linear fluid (dielectric constant: 78.4, screening length: 8.12261 Bohr) occupying 0.419288 of unit cell:	Completed after 2 iterations at t[s]:  52053.57
	Linear fluid (dielectric constant: 78.4, screening length: 8.12261 Bohr) occupying 0.419288 of unit cell:	Completed after 0 iterations at t[s]:  52075.28
	FillingsUpdate:  mu: -0.146423066  nElectrons: 618.000000  magneticMoment: [ Abs: 0.00000  Tot: +0.00000 ]
	SubspaceRotationAdjust: set factor to 0.373
ElecMinimize: Iter:   8  F: -4745.285244142087322  |grad|_K:  1.575e-08  alpha:  2.865e-01  linmin: -6.615e-04  t[s]:  52106.65
	Linear fluid (dielectric constant: 78.4, screening length: 8.12261 Bohr) occupying 0.419287 of unit cell:	Completed after 2 iterations at t[s]:  52136.57
	Linear fluid (dielectric constant: 78.4, screening length: 8.12261 Bohr) occupying 0.419287 of unit cell:	Completed after 0 iterations at t[s]:  52158.07
	FillingsUpdate:  mu: -0.146435302  nElectrons: 618.000000  magneticMoment: [ Abs: 0.00000  Tot: +0.00000 ]
	SubspaceRotationAdjust: set factor to 0.381
ElecMinimize: Iter:   9  F: -4745.285244163299467  |grad|_K:  1.093e-08  alpha:  2.593e-01  linmin: -1.229e-03  t[s]:  52189.68
ElecMinimize: Converged (|Delta F|<1.000000e-07 for 2 iters).
Setting wave functions to eigenvectors of Hamiltonian
Converging empty states (this may take a while): |deigs|: 2.053e-08

Computing DFT-D3 correction:
# coordination-number Ag 8.257 8.302 8.257 8.302 8.994 8.994 8.994 8.994 6.085 6.085 5.476 5.476 8.981 8.981 8.980 8.980 8.929 8.929 8.929 8.929 5.441 5.441 5.441 5.441 8.970 8.970 8.970 8.970 8.219 8.219 8.219 8.219
# coordination-number C 2.332
# coordination-number O 1.033
# diagonal-C6 Ag 268.61 268.61 268.61 268.61 268.61 268.61 268.61 268.61 268.61 268.61 268.61 268.61 268.61 268.61 268.61 268.61 268.61 268.61 268.61 268.61 268.61 268.61 268.61 268.61 268.61 268.61 268.61 268.61 268.61 268.61 268.61 268.61
# diagonal-C6 C 28.60
# diagonal-C6 O 12.78
EvdW_6 =   -0.197743
EvdW_8 =   -0.271220

# Ionic positions in cartesian coordinates:
ion Ag  10.840676999999998  15.331290999999997  50.307104999999993 0
ion Ag  10.840676999999998   7.665621999999998  50.307104999999993 0
ion Ag   5.420229999999999  15.331290999999997  50.307104999999993 0
ion Ag   5.420229999999999   7.665621999999998  50.307104999999993 0
ion Ag   0.000314000000000   0.000015000000000  44.768980999999989 0
ion Ag   0.000314000000000   7.665683999999999  44.768980999999989 0
ion Ag   5.420761000000000   0.000015000000000  44.768980999999989 0
ion Ag   5.420761000000000   7.665683999999999  44.768980999999989 0
ion Ag   2.708977000000000   3.832726999999999  52.922469999999990 0
ion Ag   2.708977000000000  11.498394999999997  52.922469999999990 0
ion Ag   8.129423999999998   3.832726999999999  52.922469999999990 0
ion Ag   8.129423999999998  11.498394999999997  52.922469999999990 0
ion Ag   2.710039000000000   3.832803999999999  47.460936999999987 0
ion Ag   2.710039000000000  11.498471999999996  47.460936999999987 0
ion Ag   8.130485999999999   3.832803999999999  47.460936999999987 0
ion Ag   8.130485999999999  11.498471999999996  47.460936999999987 0
ion Ag   0.000434000000000  15.331320999999997  39.268529999999991 0
ion Ag   0.000434000000000   7.665652999999997  39.268529999999991 0
ion Ag   5.420881000000000  15.331320999999997  39.268529999999991 0
ion Ag   5.420881000000000   7.665652999999997  39.268529999999991 0
ion Ag   0.000802000000000   0.000138000000000  33.789433999999993 0
ion Ag   0.000802000000000   7.665805999999997  33.789433999999993 0
ion Ag   5.421249000000000   0.000138000000000  33.789433999999993 0
ion Ag   5.421249000000000   7.665805999999997  33.789433999999993 0
ion Ag   2.710115000000000   3.832818999999999  41.976150999999994 0
ion Ag   2.710115000000000  11.498486999999997  41.976150999999994 0
ion Ag   8.130561999999999   3.832818999999999  41.976150999999994 0
ion Ag   8.130561999999999  11.498486999999997  41.976150999999994 0
ion Ag   2.710418999999999   3.832879999999999  36.414935999999990 0
ion Ag   2.710418999999999  11.498548999999999  36.414935999999990 0
ion Ag   8.130865999999999   3.832879999999999  36.414935999999990 0
ion Ag   8.130865999999999  11.498548999999999  36.414935999999990 0
ion C   2.708977000000000   7.665560999999998  55.572872924932589 1  Linear 0 0 1
ion O   2.769067999999999   7.665560999999998   3.565484332135604 1  Linear 0 0 1

# Forces in Cartesian coordinates:
force Ag   0.001007293106782  -0.000002522278770   0.001158020106905 0
force Ag  -0.003759994131250  -0.000002185764886  -0.004998745203368 0
force Ag  -0.001027961550936  -0.000002718994633   0.001154744447811 0
force Ag   0.003713685523023  -0.000002368454280  -0.004911592911338 0
force Ag  -0.000271834219999  -0.000005223041120  -0.000960370937988 0
force Ag   0.000128410013716  -0.000005388929260  -0.001667785808564 0
force Ag   0.000273340097732  -0.000005516461682  -0.000932988443950 0
force Ag  -0.000168405569462  -0.000005680477649  -0.001715856441947 0
force Ag  -0.000044060339601   0.000320201749899   0.004310440844257 0
force Ag  -0.000043356528091  -0.000333476393121   0.004295365393118 0
force Ag  -0.000003814465251  -0.002020772264555   0.000203652298042 0
force Ag  -0.000004421576987   0.002024645733788   0.000204544866988 0
force Ag  -0.000011061749992   0.000255429471351  -0.000157384577080 0
force Ag  -0.000011263424064  -0.000265522859023  -0.000156951652872 0
force Ag   0.000009131356643  -0.000773984237863   0.000272668039851 0
force Ag   0.000008904372598   0.000782137101474   0.000273844173189 0
force Ag  -0.000179311643291  -0.000003071194783   0.000437515893511 0
force Ag   0.000135354300215  -0.000002923985714  -0.000447119942482 0
force Ag   0.000174007831746  -0.000003291295773   0.000443379534070 0
force Ag  -0.000181813204483  -0.000003187716563  -0.000463638375588 0
force Ag   0.000781332959348  -0.000000454072457  -0.000420047016728 0
force Ag  -0.000055061952449  -0.000000271828753   0.000248398058807 0
force Ag  -0.000770323704794  -0.000000688345916  -0.000411807724796 0
force Ag   0.000029210131005  -0.000000431471757   0.000236759142871 0
force Ag   0.000006958395264  -0.000461238384595   0.000781681817938 0
force Ag   0.000006353298832   0.000448758445915   0.000780481812433 0
force Ag  -0.000001241958326  -0.000041453012684   0.001319051971198 0
force Ag  -0.000001441076462   0.000046515213196   0.001319187249317 0
force Ag   0.000000875502528  -0.000214452440519  -0.000527569038215 0
force Ag   0.000001047217444   0.000194489327117  -0.000527315269196 0
force Ag   0.000010862350561  -0.000083477608436  -0.000209123159789 0
force Ag   0.000010726428807   0.000083921917088  -0.000209043033237 0
force C   0.000256461328698  -0.000001130008054  -0.000043242890410 1  Linear 0 0 1
force O  -0.000175338623440   0.000009571137764   0.000130615605337 1  Linear 0 0 1

# Energy components:
   A_diel =       -0.0014140187351234
   Eewald =    19079.2040198230461101
       EH =    23398.3984699723805534
     Eloc =   -47973.1638264415742015
      Enl =      129.3820262783317503
     EvdW =       -0.4689625917516750
      Exc =     -468.9746603073463120
 Exc_core =        6.7601942189351742
       KE =     1083.5801853304399174
-------------------------------------
     Etot =    -4745.2839677362726434
       TS =        0.0012764270269825
-------------------------------------
        F =    -4745.2852441632994669


Dumping 'jdft.fillings' ... done
Dumping 'jdft.wfns' ... done
Dumping 'jdft.fluidState' ... done
Dumping 'jdft.ionpos' ... done
Dumping 'jdft.lattice' ... done
Dumping 'jdft.eigenvals' ... done
Dumping 'jdft.eigStats' ... 
	eMin: -3.528525 at state 11 ( [ +0.000000 +0.000000 +0.000000 ] spin -1 )
	HOMO: -0.147174 at state 10 ( [ +0.400000 -0.250000 +0.000000 ] spin 1 )
	mu  : -0.146435
	LUMO: -0.146298 at state 12 ( [ +0.000000 +0.250000 +0.000000 ] spin -1 )
	eMax: +0.166214 at state 2 ( [ +0.000000 +0.500000 +0.000000 ] spin 1 )
	HOMO-LUMO gap: +0.000876
	Optical gap  : +0.002766 at state 10 ( [ +0.400000 -0.250000 +0.000000 ] spin 1 )
Dumping 'jdft.Ecomponents' ... done
IonicMinimize: Iter:  21  F: -4745.285244163299467  |grad|_K:  9.729e-05  alpha:  1.000e+00  linmin: -4.572e-03  t[s]:  52318.51
IonicMinimize: Converged (|grad|_K<1.000000e-04).

#--- Lowdin population analysis ---
# oxidation-state Ag -0.079 -0.046 -0.079 -0.047 -0.005 +0.000 -0.005 +0.000 -0.010 -0.010 +0.102 +0.102 -0.012 -0.012 -0.007 -0.007 -0.006 -0.002 -0.006 -0.002 +0.101 +0.115 +0.101 +0.115 -0.001 -0.001 -0.002 -0.002 -0.076 -0.076 -0.071 -0.071
# magnetic-moments Ag +0.000 -0.000 +0.000 -0.000 +0.000 -0.000 +0.000 -0.000 -0.000 -0.000 -0.000 +0.000 +0.000 -0.000 -0.000 -0.000 +0.000 -0.000 -0.000 -0.000 -0.000 +0.000 -0.000 -0.000 -0.000 -0.000 +0.000 +0.000 +0.000 +0.000 -0.000 +0.000
# oxidation-state C +0.370
# magnetic-moments C -0.000
# oxidation-state O -0.111
# magnetic-moments O +0.000


Dumping 'jdft.n_up' ... done
Dumping 'jdft.n_dn' ... done
Dumping 'jdft.tau_up' ... done
Dumping 'jdft.tau_dn' ... done
Dumping 'jdft.eigenvals' ... done
Dumping 'jdft.eigStats' ... 
	eMin: -3.528525 at state 11 ( [ +0.000000 +0.000000 +0.000000 ] spin -1 )
	HOMO: -0.147174 at state 10 ( [ +0.400000 -0.250000 +0.000000 ] spin 1 )
	mu  : -0.146435
	LUMO: -0.146298 at state 12 ( [ +0.000000 +0.250000 +0.000000 ] spin -1 )
	eMax: +0.166214 at state 2 ( [ +0.000000 +0.500000 +0.000000 ] spin 1 )
	HOMO-LUMO gap: +0.000876
	Optical gap  : +0.002766 at state 10 ( [ +0.400000 -0.250000 +0.000000 ] spin 1 )
Dumping 'jdft.kPts' ... done
Dumping 'jdft.kMap' ... done
Dumping 'jdft.dosUp' ... done.
Dumping 'jdft.dosDn' ... done.
End date and time: Fri Feb 18 05:51:33 2022  (Duration: 0-14:32:47.35)
Done!
