
*************** JDFTx 1.7.0 (git hash 5f12716a) ***************

Start date and time: Sat Sep 10 11:45:53 2022
Executable /home/nisi6161/jdftx_alpine/build/jdftx with command-line: -i in
Running on hosts (process indices):  c3cpu-a2-u21-1.rc.int.colorado.edu (0-23)
Divided in process groups (process indices):  0 (0)  1 (1)  2 (2)  3 (3)  4 (4)  5 (5)  6 (6)  7 (7)  8 (8)  9 (9)  10 (10)  11 (11)  12 (12)  13 (13)  14 (14)  15 (15)  16 (16)  17 (17)  18 (18)  19 (19)  20 (20)  21 (21)  22 (22)  23 (23)
Resource initialization completed at t[s]:      0.01
Run totals: 24 processes, 64 threads, 0 GPUs


Input parsed successfully to the following command list (including defaults):

basis kpoint-dependent
converge-empty-states yes
coords-type Cartesian
core-overlap-check none
coulomb-interaction Periodic
davidson-band-ratio 1.1
density-of-states Etol 1.000000e-06 Esigma 1.000000e-03 \
		Complete \
	Total \
	OrthoOrbital Ag 1   s \
	OrthoOrbital Ag 1   p \
	OrthoOrbital Ag 1   px \
	OrthoOrbital Ag 1   py \
	OrthoOrbital Ag 1   pz \
	OrthoOrbital Ag 1   d \
	OrthoOrbital Ag 1   dxy \
	OrthoOrbital Ag 1   dyz \
	OrthoOrbital Ag 1   dz2 \
	OrthoOrbital Ag 1   dxz \
	OrthoOrbital Ag 1   dx2-y2 \
	OrthoOrbital Ag 2   s \
	OrthoOrbital Ag 2   p \
	OrthoOrbital Ag 2   px \
	OrthoOrbital Ag 2   py \
	OrthoOrbital Ag 2   pz \
	OrthoOrbital Ag 2   d \
	OrthoOrbital Ag 2   dxy \
	OrthoOrbital Ag 2   dyz \
	OrthoOrbital Ag 2   dz2 \
	OrthoOrbital Ag 2   dxz \
	OrthoOrbital Ag 2   dx2-y2 \
	OrthoOrbital Ag 3   s \
	OrthoOrbital Ag 3   p \
	OrthoOrbital Ag 3   px \
	OrthoOrbital Ag 3   py \
	OrthoOrbital Ag 3   pz \
	OrthoOrbital Ag 3   d \
	OrthoOrbital Ag 3   dxy \
	OrthoOrbital Ag 3   dyz \
	OrthoOrbital Ag 3   dz2 \
	OrthoOrbital Ag 3   dxz \
	OrthoOrbital Ag 3   dx2-y2 \
	OrthoOrbital Ag 4   s \
	OrthoOrbital Ag 4   p \
	OrthoOrbital Ag 4   px \
	OrthoOrbital Ag 4   py \
	OrthoOrbital Ag 4   pz \
	OrthoOrbital Ag 4   d \
	OrthoOrbital Ag 4   dxy \
	OrthoOrbital Ag 4   dyz \
	OrthoOrbital Ag 4   dz2 \
	OrthoOrbital Ag 4   dxz \
	OrthoOrbital Ag 4   dx2-y2 \
	OrthoOrbital Ag 5   s \
	OrthoOrbital Ag 5   p \
	OrthoOrbital Ag 5   px \
	OrthoOrbital Ag 5   py \
	OrthoOrbital Ag 5   pz \
	OrthoOrbital Ag 5   d \
	OrthoOrbital Ag 5   dxy \
	OrthoOrbital Ag 5   dyz \
	OrthoOrbital Ag 5   dz2 \
	OrthoOrbital Ag 5   dxz \
	OrthoOrbital Ag 5   dx2-y2 \
	OrthoOrbital Ag 6   s \
	OrthoOrbital Ag 6   p \
	OrthoOrbital Ag 6   px \
	OrthoOrbital Ag 6   py \
	OrthoOrbital Ag 6   pz \
	OrthoOrbital Ag 6   d \
	OrthoOrbital Ag 6   dxy \
	OrthoOrbital Ag 6   dyz \
	OrthoOrbital Ag 6   dz2 \
	OrthoOrbital Ag 6   dxz \
	OrthoOrbital Ag 6   dx2-y2 \
	OrthoOrbital Ag 7   s \
	OrthoOrbital Ag 7   p \
	OrthoOrbital Ag 7   px \
	OrthoOrbital Ag 7   py \
	OrthoOrbital Ag 7   pz \
	OrthoOrbital Ag 7   d \
	OrthoOrbital Ag 7   dxy \
	OrthoOrbital Ag 7   dyz \
	OrthoOrbital Ag 7   dz2 \
	OrthoOrbital Ag 7   dxz \
	OrthoOrbital Ag 7   dx2-y2 \
	OrthoOrbital Ag 8   s \
	OrthoOrbital Ag 8   p \
	OrthoOrbital Ag 8   px \
	OrthoOrbital Ag 8   py \
	OrthoOrbital Ag 8   pz \
	OrthoOrbital Ag 8   d \
	OrthoOrbital Ag 8   dxy \
	OrthoOrbital Ag 8   dyz \
	OrthoOrbital Ag 8   dz2 \
	OrthoOrbital Ag 8   dxz \
	OrthoOrbital Ag 8   dx2-y2 \
	OrthoOrbital Ag 9   s \
	OrthoOrbital Ag 9   p \
	OrthoOrbital Ag 9   px \
	OrthoOrbital Ag 9   py \
	OrthoOrbital Ag 9   pz \
	OrthoOrbital Ag 9   d \
	OrthoOrbital Ag 9   dxy \
	OrthoOrbital Ag 9   dyz \
	OrthoOrbital Ag 9   dz2 \
	OrthoOrbital Ag 9   dxz \
	OrthoOrbital Ag 9   dx2-y2 \
	OrthoOrbital Ag 10   s \
	OrthoOrbital Ag 10   p \
	OrthoOrbital Ag 10   px \
	OrthoOrbital Ag 10   py \
	OrthoOrbital Ag 10   pz \
	OrthoOrbital Ag 10   d \
	OrthoOrbital Ag 10   dxy \
	OrthoOrbital Ag 10   dyz \
	OrthoOrbital Ag 10   dz2 \
	OrthoOrbital Ag 10   dxz \
	OrthoOrbital Ag 10   dx2-y2 \
	OrthoOrbital Ag 11   s \
	OrthoOrbital Ag 11   p \
	OrthoOrbital Ag 11   px \
	OrthoOrbital Ag 11   py \
	OrthoOrbital Ag 11   pz \
	OrthoOrbital Ag 11   d \
	OrthoOrbital Ag 11   dxy \
	OrthoOrbital Ag 11   dyz \
	OrthoOrbital Ag 11   dz2 \
	OrthoOrbital Ag 11   dxz \
	OrthoOrbital Ag 11   dx2-y2 \
	OrthoOrbital Ag 12   s \
	OrthoOrbital Ag 12   p \
	OrthoOrbital Ag 12   px \
	OrthoOrbital Ag 12   py \
	OrthoOrbital Ag 12   pz \
	OrthoOrbital Ag 12   d \
	OrthoOrbital Ag 12   dxy \
	OrthoOrbital Ag 12   dyz \
	OrthoOrbital Ag 12   dz2 \
	OrthoOrbital Ag 12   dxz \
	OrthoOrbital Ag 12   dx2-y2 \
	OrthoOrbital Ag 13   s \
	OrthoOrbital Ag 13   p \
	OrthoOrbital Ag 13   px \
	OrthoOrbital Ag 13   py \
	OrthoOrbital Ag 13   pz \
	OrthoOrbital Ag 13   d \
	OrthoOrbital Ag 13   dxy \
	OrthoOrbital Ag 13   dyz \
	OrthoOrbital Ag 13   dz2 \
	OrthoOrbital Ag 13   dxz \
	OrthoOrbital Ag 13   dx2-y2 \
	OrthoOrbital Ag 14   s \
	OrthoOrbital Ag 14   p \
	OrthoOrbital Ag 14   px \
	OrthoOrbital Ag 14   py \
	OrthoOrbital Ag 14   pz \
	OrthoOrbital Ag 14   d \
	OrthoOrbital Ag 14   dxy \
	OrthoOrbital Ag 14   dyz \
	OrthoOrbital Ag 14   dz2 \
	OrthoOrbital Ag 14   dxz \
	OrthoOrbital Ag 14   dx2-y2 \
	OrthoOrbital Ag 15   s \
	OrthoOrbital Ag 15   p \
	OrthoOrbital Ag 15   px \
	OrthoOrbital Ag 15   py \
	OrthoOrbital Ag 15   pz \
	OrthoOrbital Ag 15   d \
	OrthoOrbital Ag 15   dxy \
	OrthoOrbital Ag 15   dyz \
	OrthoOrbital Ag 15   dz2 \
	OrthoOrbital Ag 15   dxz \
	OrthoOrbital Ag 15   dx2-y2 \
	OrthoOrbital Ag 16   s \
	OrthoOrbital Ag 16   p \
	OrthoOrbital Ag 16   px \
	OrthoOrbital Ag 16   py \
	OrthoOrbital Ag 16   pz \
	OrthoOrbital Ag 16   d \
	OrthoOrbital Ag 16   dxy \
	OrthoOrbital Ag 16   dyz \
	OrthoOrbital Ag 16   dz2 \
	OrthoOrbital Ag 16   dxz \
	OrthoOrbital Ag 16   dx2-y2 \
	OrthoOrbital Ag 17   s \
	OrthoOrbital Ag 17   p \
	OrthoOrbital Ag 17   px \
	OrthoOrbital Ag 17   py \
	OrthoOrbital Ag 17   pz \
	OrthoOrbital Ag 17   d \
	OrthoOrbital Ag 17   dxy \
	OrthoOrbital Ag 17   dyz \
	OrthoOrbital Ag 17   dz2 \
	OrthoOrbital Ag 17   dxz \
	OrthoOrbital Ag 17   dx2-y2 \
	OrthoOrbital Ag 18   s \
	OrthoOrbital Ag 18   p \
	OrthoOrbital Ag 18   px \
	OrthoOrbital Ag 18   py \
	OrthoOrbital Ag 18   pz \
	OrthoOrbital Ag 18   d \
	OrthoOrbital Ag 18   dxy \
	OrthoOrbital Ag 18   dyz \
	OrthoOrbital Ag 18   dz2 \
	OrthoOrbital Ag 18   dxz \
	OrthoOrbital Ag 18   dx2-y2 \
	OrthoOrbital Ag 19   s \
	OrthoOrbital Ag 19   p \
	OrthoOrbital Ag 19   px \
	OrthoOrbital Ag 19   py \
	OrthoOrbital Ag 19   pz \
	OrthoOrbital Ag 19   d \
	OrthoOrbital Ag 19   dxy \
	OrthoOrbital Ag 19   dyz \
	OrthoOrbital Ag 19   dz2 \
	OrthoOrbital Ag 19   dxz \
	OrthoOrbital Ag 19   dx2-y2
dump End ElecDensity KEdensity BandEigs EigStats RhoAtom DOS Kpoints
dump Ionic State IonicPositions Lattice EigStats Ecomponents
dump 
dump 
dump 
dump 
dump 
dump 
dump 
dump 
dump-name jdft.$VAR
elec-cutoff 20
elec-eigen-algo Davidson
elec-ex-corr gga-PBE
elec-initial-magnetization 0.000000 no
elec-n-bands 217
elec-smearing Fermi 0.001
electronic-minimize  \
	dirUpdateScheme      FletcherReeves \
	linminMethod         DirUpdateRecommended \
	nIterations          100 \
	history              15 \
	knormThreshold       0 \
	energyDiffThreshold  1e-07 \
	nEnergyDiff          2 \
	alphaTstart          1 \
	alphaTmin            1e-10 \
	updateTestStepSize   yes \
	alphaTreduceFactor   0.1 \
	alphaTincreaseFactor 3 \
	nAlphaAdjustMax      3 \
	wolfeEnergy          0.0001 \
	wolfeGradient        0.9 \
	fdTest               no
exchange-regularization WignerSeitzTruncated
fluid LinearPCM 298.000000 1.013250
fluid-anion F- 0.5 MeanFieldLJ \
	epsBulk 1 \
	pMol 0 \
	epsInf 1 \
	Pvap 0 \
	sigmaBulk 0 \
	Rvdw 2.24877 \
	Res 0 \
	tauNuc 343133
fluid-cation Na+ 0.5 MeanFieldLJ \
	epsBulk 1 \
	pMol 0 \
	epsInf 1 \
	Pvap 0 \
	sigmaBulk 0 \
	Rvdw 2.19208 \
	Res 0 \
	tauNuc 343133
fluid-ex-corr lda-TF lda-PZ
fluid-gummel-loop 10 1.000000e-05
fluid-minimize  \
	dirUpdateScheme      PolakRibiere \
	linminMethod         DirUpdateRecommended \
	nIterations          400 \
	history              15 \
	knormThreshold       1e-11 \
	energyDiffThreshold  0 \
	nEnergyDiff          2 \
	alphaTstart          1 \
	alphaTmin            1e-10 \
	updateTestStepSize   yes \
	alphaTreduceFactor   0.1 \
	alphaTincreaseFactor 3 \
	nAlphaAdjustMax      6 \
	wolfeEnergy          0.0001 \
	wolfeGradient        0.9 \
	fdTest               no
fluid-solvent H2O 55.338 ScalarEOS \
	epsBulk 78.4 \
	pMol 0.92466 \
	epsInf 1.77 \
	Pvap 1.06736e-10 \
	sigmaBulk 4.62e-05 \
	Rvdw 2.61727 \
	Res 1.42 \
	tauNuc 343133 \
	poleEl 15 7 1
forces-output-coords Positions
initial-state jdft.$VAR
ion Ag   0.004169088608456   7.513979840975280  65.967474868653895 1
ion Ag   2.713519482672154   3.071229486441860  64.408022768226019 1
ion Ag   2.714718089917329  10.642755923303767  62.565095500183851 1
ion Ag   2.708871166656018  11.761266911061858  34.275868182728537 1
ion Ag   0.001630240010746   6.209684720392040  60.769640281323916 1
ion Ag   2.710016234724312   1.853225654182328  58.974715211063156 1
ion Ag   2.710877297385987   9.305199257184901  57.212125720353242 1
ion Ag   0.000511237472061   4.961231024903516  55.445623010339595 1
ion Ag   2.713052030061000   0.607014706932617  53.660669321215181 1
ion Ag   2.711418471358933   8.073384019427754  51.890254078766510 1
ion Ag   0.001191884990287   3.729757454749080  50.119504187614176 1
ion Ag  -0.003257882423954  11.200277273963504  48.348871187388731 1
ion Ag   2.708230959275951   6.853430750685848  46.578966322712638 1
ion Ag  -0.001106918400435   2.500263269991237  44.794368445144869 1
ion Ag  -0.002456191159776   9.969942681549250  43.028983746949244 1
ion Ag   2.711828424860575   5.609165123326306  41.266581549078658 1
ion Ag  -0.004479410643551   1.251573946160654  39.473333153259290 1
ion Ag  -0.001882277258458   8.633107885944439  37.677698323768062 1
ion Ag   2.705398071892361   4.389376068823778  35.837807141230343 1
ion-species /projects/musgravc/apps/jdftx-1.6.0/build/pseudopotentials/GBRV_v1.5/$ID_pbe_v1.uspp
ion-species /projects/musgravc/apps/jdftx-1.6.0/build/pseudopotentials/GBRV_v1.5/$ID_pbe_v1.2.uspp
ion-species /projects/musgravc/apps/jdftx-1.6.0/build/pseudopotentials/GBRV_v1.5/$ID_pbe_v1.4.uspp
ion-species /projects/musgravc/apps/jdftx-1.6.0/build/pseudopotentials/GBRV_v1.5/$ID_pbe_v1.5.uspp
ion-width Ecut
ionic-minimize  \
	dirUpdateScheme      L-BFGS \
	linminMethod         DirUpdateRecommended \
	nIterations          100 \
	history              15 \
	knormThreshold       0.0001 \
	energyDiffThreshold  0.0001 \
	nEnergyDiff          2 \
	alphaTstart          1 \
	alphaTmin            1e-10 \
	updateTestStepSize   yes \
	alphaTreduceFactor   0.1 \
	alphaTincreaseFactor 3 \
	nAlphaAdjustMax      3 \
	wolfeEnergy          0.0001 \
	wolfeGradient        0.9 \
	fdTest               no
kpoint   0.000000000000   0.000000000000   0.000000000000  1.00000000000000
kpoint-folding 11 5 1 
latt-move-scale 0 0 0
latt-scale 1 1 1 
lattice  \
	   5.420447000000000   -2.710223000000000    0.000000000000000  \
	   0.000000000000000   11.813589000000000    0.000000000000000  \
	   0.000000000000000   -0.000000000000000   66.827747000000002 
lattice-minimize  \
	dirUpdateScheme      L-BFGS \
	linminMethod         DirUpdateRecommended \
	nIterations          0 \
	history              15 \
	knormThreshold       0 \
	energyDiffThreshold  1e-06 \
	nEnergyDiff          2 \
	alphaTstart          1 \
	alphaTmin            1e-10 \
	updateTestStepSize   yes \
	alphaTreduceFactor   0.1 \
	alphaTincreaseFactor 3 \
	nAlphaAdjustMax      3 \
	wolfeEnergy          0.0001 \
	wolfeGradient        0.9 \
	fdTest               no
lcao-params 30 1e-06 0.001
pcm-variant CANDLE
spintype z-spin
subspace-rotation-factor 1 yes
symmetries automatic
symmetry-threshold 0.0001
target-mu -0.208 no

van-der-waals D3



---------- Setting up symmetries ----------

Found 8 point-group symmetries of the bravais lattice
Found 1 space-group symmetries with basis
Applied RMS atom displacement 0 bohrs to make symmetries exact.

---------- Initializing the Grid ----------
R = 
[      5.42045     -2.71022            0  ]
[            0      11.8136            0  ]
[            0            0      66.8277  ]
unit cell volume = 4279.31
G =
[    1.15916    0.26593         -0  ]
[          0   0.531861          0  ]
[         -0          0  0.0940206  ]
Minimum fftbox size, Smin = [  24  52  272  ]
Chosen fftbox size, S = [  24  54  280  ]

---------- Exchange Correlation functional ----------
Initalized PBE GGA exchange.
Initalized PBE GGA correlation.

---------- Setting up pseudopotentials ----------
Width of ionic core gaussian charges (only for fluid interactions / plotting) set to 0.397384

Reading pseudopotential file '/projects/musgravc/apps/jdftx-1.6.0/build/pseudopotentials/GBRV_v1.5/ag_pbe_v1.4.uspp':
  Title: Ag.  Created by USPP 7.3.6 on 1-4-15
  Reference state energy: -147.606242.  19 valence electrons in orbitals:
    |400>  occupation: 2  eigenvalue: -3.637437
    |410>  occupation: 6  eigenvalue: -2.297267
    |420>  occupation: 10  eigenvalue: -0.417763
    |500>  occupation: 0.5  eigenvalue: -0.283525
    |510>  occupation: 0  eigenvalue: -0.122889
  lMax: 2  lLocal: 0  QijEcut: 5.5
  6 projectors sampled on a log grid with 717 points:
    l: 0  eig: -0.283528  rCut: 1.5
    l: 0  eig: -3.637440  rCut: 1.5
    l: 1  eig: -0.122892  rCut: 1.5
    l: 1  eig: -2.297267  rCut: 1.5
    l: 2  eig: -0.417762  rCut: 1.7
    l: 2  eig: -1.000000  rCut: 1.7
  Partial core density with radius 1.2
  Transforming core density to a uniform radial grid of dG=0.02 with 1304 points.
  Transforming local potential to a uniform radial grid of dG=0.02 with 1304 points.
  Transforming nonlocal projectors to a uniform radial grid of dG=0.02 with 432 points.
  Transforming density augmentations to a uniform radial grid of dG=0.02 with 1304 points.
  Transforming atomic orbitals to a uniform radial grid of dG=0.02 with 432 points.
  Core radius for overlap checks: 1.70 bohrs.

Initialized 1 species with 19 total atoms.

Folded 1 k-points by 11x5x1 to 55 k-points.

---------- Setting up k-points, bands, fillings ----------
Adding inversion symmetry to k-mesh for non-inversion-symmetric unit cell.
Reduced to 28 k-points under symmetry. 
Computing the number of bands and number of electrons
Reading initial fillings from file jdft.fillings.
nElectrons: 360.143307   nBands: 217   nStates: 56

----- Setting up reduced wavefunction bases (one per k-point) -----
average nbasis = 18279.473 , ideal nbasis = 18281.540

----- Initializing Supercell corresponding to k-point mesh -----
Lattice vector linear combinations in supercell:
[  11   0   0  ]
[   0   5   0  ]
[   0   0   1  ]
Supercell lattice vectors:
[  59.6249  -13.5511  0  ]
[  0  59.0679  0  ]
[  0  0  66.8277  ]

Initializing DFT-D3 calculator:
	Parameters set for gga-PBE functional
	s6:  1.000  s_r6:  1.217
	s8:  0.722  s_r8:  1.000
	Per-atom parameters loaded for:
	Ag:  sqrtQ[a0]:  5.443  Rcov[a0]:  2.173  CN: [ 0.00 0.97 ]

Initializing DFT-D2 calculator for fluid / solvation:
	Ag:  C6:  427.91 Eh-a0^6  R0: 3.097 a0

---------- Setting up ewald sum ----------
Optimum gaussian width for ewald sums = 3.964993 bohr.
Real space sum over 1045 unit cells with max indices [  9  5  2  ]
Reciprocal space sum over 6435 terms with max indices [  4  6  27  ]

Computing DFT-D3 correction:
# coordination-number Ag 5.460 6.726 8.381 5.461 8.949 9.043 9.058 9.100 9.095 9.105 9.103 9.107 9.099 9.105 9.064 9.049 8.956 8.385 6.731
# diagonal-C6 Ag 268.61 268.61 268.61 268.61 268.61 268.61 268.61 268.61 268.61 268.61 268.61 268.61 268.61 268.61 268.61 268.61 268.61 268.61 268.61
EvdW_6 =   -0.129451
EvdW_8 =   -0.171177

---------- Allocating electronic variables ----------
Initializing wave functions:  reading from 'jdft.wfns'
----- createFluidSolver() ----- (Fluid-side solver setup)
   Initializing fluid molecule 'H2O'
     Initializing site 'O'
       Electron density: proportional to exp(-r/0.36935)*erfc((r-0.51523)/0.36823) with norm 6.826
       Charge density: gaussian nuclear width 0.478731 with net site charge 0.826
       Polarizability: cuspless exponential with width 0.32 and norm 3.73
       Hard sphere radius: 2.57003 bohrs
       Positions in reference frame:
         [ +0.000000 +0.000000 +0.000000 ]
     Initializing site 'H'
       Electron density: proportional to exp(-r/0.34641)*erfc((r-0)/0.390882) with norm 0.587
       Charge density: gaussian nuclear width 0.377945 with net site charge -0.413
       Polarizability: cuspless exponential with width 0.39 and norm 3.3
       Positions in reference frame:
         [ +0.000000 -1.441945 +1.122523 ]
         [ +0.000000 +1.441945 +1.122523 ]
     Net charge: 0   dipole magnitude: 0.927204
     Initializing spherical shell mfKernel with radius 2.61727 Bohr
     deltaS corrections:
       site 'O': -7.54299
       site 'H': -6.83917
   Initializing fluid molecule 'Na+'
     Initializing site 'Na'
       Electron density: proportional to exp(-r/0.19682)*erfc((r-0.71491)/0.41314) with norm 8.1383
       Charge density: gaussian nuclear width 0.365347 with net site charge -1
       Hard sphere radius: 1.86327 bohrs
       Positions in reference frame:
         [ +0.000000 +0.000000 +0.000000 ]
     Net charge: -1   dipole magnitude: 0
     Initializing gaussian mfKernel with width: 1.55004 Bohr
     deltaS corrections:
       site 'Na': -22.3555
   Initializing fluid molecule 'F-'
     Initializing site 'F'
       Electron density: proportional to exp(-r/0.38886)*erfc((r-0)/0.438782) with norm 8
       Charge density: gaussian nuclear width 0.374796 with net site charge 1
       Hard sphere radius: 2.39995 bohrs
       Positions in reference frame:
         [ +0.000000 +0.000000 +0.000000 ]
     Net charge: 1   dipole magnitude: 0
     Initializing gaussian mfKernel with width: 1.59012 Bohr
     deltaS corrections:
       site 'F': -9.04335

Correction to mu due to finite nuclear width = -0.0837015
   Cavity determined by nc: 0.00142 and sigma: 0.707107
   Nonlocal vdW cavity from gaussian model electron density with norm = 8 and sigma = 0.993594 bohr
   Charge asymmetry in cavity with sensitivity pCavity = 36.5 e-bohr/Eh
   Electrostatic cavity expanded by eta = 1.46 bohrs
   Weighted density cavitation model constrained by Nbulk: 0.0049383 bohr^-3, Pvap: 3.14029 kPa, Rvdw: 2.61727 bohr and sigmaBulk: 4.62e-05 Eh/bohr^2 at T: 298 K.
   Weighted density dispersion model using vdW pair potentials with single solvent site with sqrtC6eff: 0.77 SI.
Reading fluid state from 'jdft.fluidState'


---- Citations for features of the code used in this run ----

   Software package:
      R. Sundararaman, K. Letchworth-Weaver, K.A. Schwarz, D. Gunceler, Y. Ozhabes and T.A. Arias, 'JDFTx: software for joint density-functional theory', SoftwareX 6, 278 (2017)

   gga-PBE exchange-correlation functional:
      J.P. Perdew, K. Burke and M. Ernzerhof, Phys. Rev. Lett. 77, 3865 (1996)

   Pseudopotentials:
      KF Garrity, JW Bennett, KM Rabe and D Vanderbilt, Comput. Mater. Sci. 81, 446 (2014)

   DFT-D3 dispersion correction:
      S. Grimme, J. Antony, S. Ehrlich and H. Krieg, J. Chem. Phys. 132, 154104 (2010)

   DFT-D2 dispersion correction:
      S. Grimme, J. Comput. Chem. 27, 1787 (2006)

   Charge-asymmetric nonlocally-determined local-electric (CANDLE) solvation model:
      R. Sundararaman and W.A. Goddard III, J. Chem. Phys. 142, 064107 (2015)

   Total energy minimization with Auxiliary Hamiltonian:
      C. Freysoldt, S. Boeck, and J. Neugebauer, Phys. Rev. B 79, 241103(R) (2009)

   Grand-canonical (fixed-potential) DFT:
      R. Sundararaman, W. A. Goddard III and T. A. Arias, J. Chem. Phys. 146, 114104 (2017)

   Linear-tetrahedron sampling for density of states:
      G. Lehmann and M. Taut, Phys. status solidi (b) 54, 469 (1972)

This list may not be complete. Please suggest additional citations or
report any other bugs at https://github.com/shankar1729/jdftx/issues

Initialization completed successfully at t[s]:     20.74


Computing DFT-D3 correction:
# coordination-number Ag 5.460 6.726 8.381 5.461 8.949 9.043 9.058 9.100 9.095 9.105 9.103 9.107 9.099 9.105 9.064 9.049 8.956 8.385 6.731
# diagonal-C6 Ag 268.61 268.61 268.61 268.61 268.61 268.61 268.61 268.61 268.61 268.61 268.61 268.61 268.61 268.61 268.61 268.61 268.61 268.61 268.61
EvdW_6 =   -0.129451
EvdW_8 =   -0.171177
Shifting auxilliary hamiltonian by 0.036786 to set nElectrons=360.143307

-------- Electronic minimization -----------
	Linear fluid (dielectric constant: 78.4, screening length: 8.12261 Bohr) occupying 0.393402 of unit cell:	Completed after 29 iterations at t[s]:     46.84
	FillingsUpdate:  mu: -0.208000000  nElectrons: 360.143307  magneticMoment: [ Abs: 0.00008  Tot: -0.00003 ]
ElecMinimize: Iter:   0  G: -2728.677807379898240  |grad|_K:  1.893e-04  alpha:  1.000e+00
	Linear fluid (dielectric constant: 78.4, screening length: 8.12261 Bohr) occupying 0.440655 of unit cell:	Completed after 39 iterations at t[s]:    146.44
	Linear fluid (dielectric constant: 78.4, screening length: 8.12261 Bohr) occupying 0.393479 of unit cell:	Completed after 36 iterations at t[s]:    182.41
	FillingsUpdate:  mu: -0.208000000  nElectrons: 360.670990  magneticMoment: [ Abs: 0.00006  Tot: +0.00004 ]
	SubspaceRotationAdjust: set factor to 0.677
ElecMinimize: Iter:   1  G: -2728.796796543388609  |grad|_K:  1.484e-04  alpha:  2.218e-02  linmin: -8.629e-04  t[s]:    232.71
	Linear fluid (dielectric constant: 78.4, screening length: 8.12261 Bohr) occupying 0.393259 of unit cell:	Completed after 26 iterations at t[s]:    275.04
ElecMinimize: 	Predicted alpha/alphaT>3.000000, increasing alphaT to 6.654438e-02.
	Linear fluid (dielectric constant: 78.4, screening length: 8.12261 Bohr) occupying 0.393155 of unit cell:	Completed after 29 iterations at t[s]:    310.38
	Linear fluid (dielectric constant: 78.4, screening length: 8.12261 Bohr) occupying 0.393151 of unit cell:	Completed after 27 iterations at t[s]:    344.94
	FillingsUpdate:  mu: -0.208000000  nElectrons: 359.996697  magneticMoment: [ Abs: 0.00008  Tot: -0.00005 ]
	SubspaceRotationAdjust: set factor to 0.326
ElecMinimize: Iter:   2  G: -2729.094819496937816  |grad|_K:  1.739e-04  alpha:  4.333e-02  linmin:  1.611e-03  t[s]:    395.35
	Linear fluid (dielectric constant: 78.4, screening length: 8.12261 Bohr) occupying 0.392815 of unit cell:	Completed after 26 iterations at t[s]:    438.37
	Linear fluid (dielectric constant: 78.4, screening length: 8.12261 Bohr) occupying 0.392665 of unit cell:	Completed after 26 iterations at t[s]:    472.69
	FillingsUpdate:  mu: -0.208000000  nElectrons: 360.131360  magneticMoment: [ Abs: 0.00004  Tot: -0.00002 ]
	SubspaceRotationAdjust: set factor to 0.257
ElecMinimize: Iter:   3  G: -2729.483722708510868  |grad|_K:  5.065e-05  alpha:  6.377e-02  linmin: -9.311e-04  t[s]:    523.17
	Linear fluid (dielectric constant: 78.4, screening length: 8.12261 Bohr) occupying 0.392645 of unit cell:	Completed after 27 iterations at t[s]:    566.04
	Linear fluid (dielectric constant: 78.4, screening length: 8.12261 Bohr) occupying 0.392647 of unit cell:	Completed after 24 iterations at t[s]:    600.21
	FillingsUpdate:  mu: -0.208000000  nElectrons: 360.388981  magneticMoment: [ Abs: 0.00004  Tot: -0.00002 ]
	SubspaceRotationAdjust: set factor to 0.188
ElecMinimize: Iter:   4  G: -2729.511794691473824  |grad|_K:  4.367e-05  alpha:  4.765e-02  linmin:  4.216e-04  t[s]:    650.73
	Linear fluid (dielectric constant: 78.4, screening length: 8.12261 Bohr) occupying 0.392559 of unit cell:	Completed after 26 iterations at t[s]:    693.21
	Linear fluid (dielectric constant: 78.4, screening length: 8.12261 Bohr) occupying 0.392404 of unit cell:	Completed after 27 iterations at t[s]:    728.34
	FillingsUpdate:  mu: -0.208000000  nElectrons: 360.457953  magneticMoment: [ Abs: 0.00004  Tot: -0.00002 ]
	SubspaceRotationAdjust: set factor to 0.122
	SubspaceRotationAdjust: resetting CG because factor has changed by 0.121969
	Linear fluid (dielectric constant: 78.4, screening length: 8.12261 Bohr) occupying 0.392404 of unit cell:	Completed after 0 iterations at t[s]:    796.62
ElecMinimize: 	State modified externally: resetting search direction.
ElecMinimize: Iter:   5  G: -2729.565887975938949  |grad|_K:  1.961e-05  alpha:  1.275e-01
	Linear fluid (dielectric constant: 78.4, screening length: 8.12261 Bohr) occupying 0.392252 of unit cell:	Completed after 24 iterations at t[s]:    889.82
	Linear fluid (dielectric constant: 78.4, screening length: 8.12261 Bohr) occupying 0.392281 of unit cell:	Completed after 23 iterations at t[s]:    923.86
	FillingsUpdate:  mu: -0.208000000  nElectrons: 360.334315  magneticMoment: [ Abs: 0.00004  Tot: -0.00002 ]
	SubspaceRotationAdjust: set factor to 0.0489
ElecMinimize: Iter:   6  G: -2729.574873963197660  |grad|_K:  1.192e-05  alpha:  1.024e-01  linmin:  1.153e-03  t[s]:    974.00
	Linear fluid (dielectric constant: 78.4, screening length: 8.12261 Bohr) occupying 0.392190 of unit cell:	Completed after 24 iterations at t[s]:   1016.44
	Linear fluid (dielectric constant: 78.4, screening length: 8.12261 Bohr) occupying 0.392076 of unit cell:	Completed after 24 iterations at t[s]:   1050.70
	FillingsUpdate:  mu: -0.208000000  nElectrons: 360.373443  magneticMoment: [ Abs: 0.00004  Tot: -0.00002 ]
	SubspaceRotationAdjust: set factor to 0.0478
ElecMinimize: Iter:   7  G: -2729.582001576642142  |grad|_K:  5.186e-06  alpha:  2.287e-01  linmin: -4.044e-04  t[s]:   1101.02
	Linear fluid (dielectric constant: 78.4, screening length: 8.12261 Bohr) occupying 0.391927 of unit cell:	Completed after 18 iterations at t[s]:   1142.24
	Linear fluid (dielectric constant: 78.4, screening length: 8.12261 Bohr) occupying 0.391746 of unit cell:	Completed after 18 iterations at t[s]:   1175.68
	FillingsUpdate:  mu: -0.208000000  nElectrons: 360.391886  magneticMoment: [ Abs: 0.00004  Tot: -0.00001 ]
	SubspaceRotationAdjust: set factor to 0.0536
ElecMinimize: Iter:   8  G: -2729.585058837192264  |grad|_K:  4.813e-06  alpha:  5.043e-01  linmin: -8.045e-05  t[s]:   1226.24
	Linear fluid (dielectric constant: 78.4, screening length: 8.12261 Bohr) occupying 0.391266 of unit cell:	Completed after 24 iterations at t[s]:   1268.41
	Linear fluid (dielectric constant: 78.4, screening length: 8.12261 Bohr) occupying 0.391425 of unit cell:	Completed after 22 iterations at t[s]:   1302.33
	FillingsUpdate:  mu: -0.208000000  nElectrons: 360.362632  magneticMoment: [ Abs: 0.00004  Tot: -0.00001 ]
	SubspaceRotationAdjust: set factor to 0.049
ElecMinimize: Iter:   9  G: -2729.586823262203779  |grad|_K:  3.443e-06  alpha:  3.392e-01  linmin: -7.259e-06  t[s]:   1352.77
	Linear fluid (dielectric constant: 78.4, screening length: 8.12261 Bohr) occupying 0.391227 of unit cell:	Completed after 23 iterations at t[s]:   1394.77
	Linear fluid (dielectric constant: 78.4, screening length: 8.12261 Bohr) occupying 0.391130 of unit cell:	Completed after 21 iterations at t[s]:   1428.65
	FillingsUpdate:  mu: -0.208000000  nElectrons: 360.391771  magneticMoment: [ Abs: 0.00003  Tot: -0.00001 ]
	SubspaceRotationAdjust: set factor to 0.0549
ElecMinimize: Iter:  10  G: -2729.588157014658464  |grad|_K:  3.291e-06  alpha:  5.009e-01  linmin: -1.469e-04  t[s]:   1479.29
	Linear fluid (dielectric constant: 78.4, screening length: 8.12261 Bohr) occupying 0.390786 of unit cell:	Completed after 24 iterations at t[s]:   1521.49
	Linear fluid (dielectric constant: 78.4, screening length: 8.12261 Bohr) occupying 0.390785 of unit cell:	Completed after 0 iterations at t[s]:   1551.69
	FillingsUpdate:  mu: -0.208000000  nElectrons: 360.405082  magneticMoment: [ Abs: 0.00003  Tot: -0.00001 ]
	SubspaceRotationAdjust: set factor to 0.0632
ElecMinimize: Iter:  11  G: -2729.589384665412126  |grad|_K:  3.171e-06  alpha:  5.014e-01  linmin:  7.704e-06  t[s]:   1602.38
	Linear fluid (dielectric constant: 78.4, screening length: 8.12261 Bohr) occupying 0.390411 of unit cell:	Completed after 23 iterations at t[s]:   1644.27
	Linear fluid (dielectric constant: 78.4, screening length: 8.12261 Bohr) occupying 0.390334 of unit cell:	Completed after 17 iterations at t[s]:   1677.93
	FillingsUpdate:  mu: -0.208000000  nElectrons: 360.420008  magneticMoment: [ Abs: 0.00003  Tot: -0.00001 ]
	SubspaceRotationAdjust: set factor to 0.0715
ElecMinimize: Iter:  12  G: -2729.590732893262157  |grad|_K:  3.299e-06  alpha:  6.006e-01  linmin:  1.398e-05  t[s]:   1727.75
	Linear fluid (dielectric constant: 78.4, screening length: 8.12261 Bohr) occupying 0.389801 of unit cell:	Completed after 18 iterations at t[s]:   1769.14
	Linear fluid (dielectric constant: 78.4, screening length: 8.12261 Bohr) occupying 0.389894 of unit cell:	Completed after 15 iterations at t[s]:   1801.71
	FillingsUpdate:  mu: -0.208000000  nElectrons: 360.460090  magneticMoment: [ Abs: 0.00003  Tot: -0.00000 ]
	SubspaceRotationAdjust: set factor to 0.0677
ElecMinimize: Iter:  13  G: -2729.591934485908496  |grad|_K:  3.568e-06  alpha:  4.985e-01  linmin: -5.926e-05  t[s]:   1852.04
	Linear fluid (dielectric constant: 78.4, screening length: 8.12261 Bohr) occupying 0.389308 of unit cell:	Completed after 22 iterations at t[s]:   1894.22
	Linear fluid (dielectric constant: 78.4, screening length: 8.12261 Bohr) occupying 0.389447 of unit cell:	Completed after 19 iterations at t[s]:   1927.37
	FillingsUpdate:  mu: -0.208000000  nElectrons: 360.447027  magneticMoment: [ Abs: 0.00002  Tot: -0.00000 ]
	SubspaceRotationAdjust: set factor to 0.0569
ElecMinimize: Iter:  14  G: -2729.593040755071797  |grad|_K:  3.280e-06  alpha:  3.846e-01  linmin:  3.411e-06  t[s]:   1977.44
	Linear fluid (dielectric constant: 78.4, screening length: 8.12261 Bohr) occupying 0.389098 of unit cell:	Completed after 22 iterations at t[s]:   2019.43
	Linear fluid (dielectric constant: 78.4, screening length: 8.12261 Bohr) occupying 0.389025 of unit cell:	Completed after 16 iterations at t[s]:   2052.30
	FillingsUpdate:  mu: -0.208000000  nElectrons: 360.466503  magneticMoment: [ Abs: 0.00002  Tot: -0.00000 ]
	SubspaceRotationAdjust: set factor to 0.0628
ElecMinimize: Iter:  15  G: -2729.594151051472181  |grad|_K:  2.760e-06  alpha:  4.612e-01  linmin: -3.677e-05  t[s]:   2102.76
	Linear fluid (dielectric constant: 78.4, screening length: 8.12261 Bohr) occupying 0.388776 of unit cell:	Completed after 18 iterations at t[s]:   2144.63
	Linear fluid (dielectric constant: 78.4, screening length: 8.12261 Bohr) occupying 0.388721 of unit cell:	Completed after 14 iterations at t[s]:   2177.87
	FillingsUpdate:  mu: -0.208000000  nElectrons: 360.473498  magneticMoment: [ Abs: 0.00001  Tot: -0.00000 ]
	SubspaceRotationAdjust: set factor to 0.0711
ElecMinimize: Iter:  16  G: -2729.595103265111447  |grad|_K:  2.287e-06  alpha:  5.552e-01  linmin: -8.436e-06  t[s]:   2228.49
	Linear fluid (dielectric constant: 78.4, screening length: 8.12261 Bohr) occupying 0.388564 of unit cell:	Completed after 19 iterations at t[s]:   2267.14
	Linear fluid (dielectric constant: 78.4, screening length: 8.12261 Bohr) occupying 0.388596 of unit cell:	Completed after 15 iterations at t[s]:   2297.48
	FillingsUpdate:  mu: -0.208000000  nElectrons: 360.458913  magneticMoment: [ Abs: 0.00001  Tot: -0.00000 ]
	SubspaceRotationAdjust: set factor to 0.0663
ElecMinimize: Iter:  17  G: -2729.595630456960862  |grad|_K:  2.202e-06  alpha:  4.490e-01  linmin:  1.900e-05  t[s]:   2344.37
	Linear fluid (dielectric constant: 78.4, screening length: 8.12261 Bohr) occupying 0.388538 of unit cell:	Completed after 19 iterations at t[s]:   2382.47
	Linear fluid (dielectric constant: 78.4, screening length: 8.12261 Bohr) occupying 0.388556 of unit cell:	Completed after 15 iterations at t[s]:   2413.45
	FillingsUpdate:  mu: -0.208000000  nElectrons: 360.469298  magneticMoment: [ Abs: 0.00001  Tot: -0.00000 ]
	SubspaceRotationAdjust: set factor to 0.0525
ElecMinimize: Iter:  18  G: -2729.595978990558706  |grad|_K:  1.548e-06  alpha:  3.234e-01  linmin: -3.247e-06  t[s]:   2462.69
	Linear fluid (dielectric constant: 78.4, screening length: 8.12261 Bohr) occupying 0.388543 of unit cell:	Completed after 18 iterations at t[s]:   2502.65
	Linear fluid (dielectric constant: 78.4, screening length: 8.12261 Bohr) occupying 0.388539 of unit cell:	Completed after 14 iterations at t[s]:   2534.42
	FillingsUpdate:  mu: -0.208000000  nElectrons: 360.461113  magneticMoment: [ Abs: 0.00000  Tot: -0.00000 ]
	SubspaceRotationAdjust: set factor to 0.0534
ElecMinimize: Iter:  19  G: -2729.596197635421504  |grad|_K:  1.075e-06  alpha:  4.087e-01  linmin:  4.022e-05  t[s]:   2584.61
	Linear fluid (dielectric constant: 78.4, screening length: 8.12261 Bohr) occupying 0.388533 of unit cell:	Completed after 16 iterations at t[s]:   2625.17
	Linear fluid (dielectric constant: 78.4, screening length: 8.12261 Bohr) occupying 0.388533 of unit cell:	Completed after 2 iterations at t[s]:   2656.24
	FillingsUpdate:  mu: -0.208000000  nElectrons: 360.459252  magneticMoment: [ Abs: 0.00000  Tot: -0.00000 ]
	SubspaceRotationAdjust: set factor to 0.0606
ElecMinimize: Iter:  20  G: -2729.596296996263391  |grad|_K:  7.569e-07  alpha:  3.861e-01  linmin:  6.825e-06  t[s]:   2706.05
	Linear fluid (dielectric constant: 78.4, screening length: 8.12261 Bohr) occupying 0.388521 of unit cell:	Completed after 15 iterations at t[s]:   2747.67
	Linear fluid (dielectric constant: 78.4, screening length: 8.12261 Bohr) occupying 0.388521 of unit cell:	Completed after 0 iterations at t[s]:   2777.75
	FillingsUpdate:  mu: -0.208000000  nElectrons: 360.462320  magneticMoment: [ Abs: 0.00000  Tot: -0.00000 ]
	SubspaceRotationAdjust: set factor to 0.0594
ElecMinimize: Iter:  21  G: -2729.596346001765141  |grad|_K:  5.516e-07  alpha:  3.830e-01  linmin:  1.569e-05  t[s]:   2828.30
	Linear fluid (dielectric constant: 78.4, screening length: 8.12261 Bohr) occupying 0.388492 of unit cell:	Completed after 15 iterations at t[s]:   2868.78
	Linear fluid (dielectric constant: 78.4, screening length: 8.12261 Bohr) occupying 0.388492 of unit cell:	Completed after 3 iterations at t[s]:   2900.30
	FillingsUpdate:  mu: -0.208000000  nElectrons: 360.459908  magneticMoment: [ Abs: 0.00000  Tot: -0.00000 ]
	SubspaceRotationAdjust: set factor to 0.0565
ElecMinimize: Iter:  22  G: -2729.596371467475365  |grad|_K:  4.365e-07  alpha:  3.748e-01  linmin:  2.973e-05  t[s]:   2950.09
	Linear fluid (dielectric constant: 78.4, screening length: 8.12261 Bohr) occupying 0.388458 of unit cell:	Completed after 14 iterations at t[s]:   2991.00
	Linear fluid (dielectric constant: 78.4, screening length: 8.12261 Bohr) occupying 0.388453 of unit cell:	Completed after 11 iterations at t[s]:   3022.85
	FillingsUpdate:  mu: -0.208000000  nElectrons: 360.462967  magneticMoment: [ Abs: 0.00000  Tot: -0.00000 ]
	SubspaceRotationAdjust: set factor to 0.0642
ElecMinimize: Iter:  23  G: -2729.596389791053298  |grad|_K:  3.610e-07  alpha:  4.305e-01  linmin: -7.015e-05  t[s]:   3073.32
	Linear fluid (dielectric constant: 78.4, screening length: 8.12261 Bohr) occupying 0.388406 of unit cell:	Completed after 10 iterations at t[s]:   3113.18
	Linear fluid (dielectric constant: 78.4, screening length: 8.12261 Bohr) occupying 0.388395 of unit cell:	Completed after 4 iterations at t[s]:   3144.04
	FillingsUpdate:  mu: -0.208000000  nElectrons: 360.464999  magneticMoment: [ Abs: 0.00000  Tot: -0.00000 ]
	SubspaceRotationAdjust: set factor to 0.0788
ElecMinimize: Iter:  24  G: -2729.596405196434262  |grad|_K:  3.295e-07  alpha:  5.273e-01  linmin: -1.106e-05  t[s]:   3194.24
	Linear fluid (dielectric constant: 78.4, screening length: 8.12261 Bohr) occupying 0.388324 of unit cell:	Completed after 15 iterations at t[s]:   3234.94
	Linear fluid (dielectric constant: 78.4, screening length: 8.12261 Bohr) occupying 0.388327 of unit cell:	Completed after 6 iterations at t[s]:   3266.51
	FillingsUpdate:  mu: -0.208000000  nElectrons: 360.465933  magneticMoment: [ Abs: 0.00000  Tot: -0.00000 ]
	SubspaceRotationAdjust: set factor to 0.0817
ElecMinimize: Iter:  25  G: -2729.596417413256859  |grad|_K:  3.468e-07  alpha:  5.032e-01  linmin:  1.959e-05  t[s]:   3316.85
	Linear fluid (dielectric constant: 78.4, screening length: 8.12261 Bohr) occupying 0.388239 of unit cell:	Completed after 16 iterations at t[s]:   3357.74
	Linear fluid (dielectric constant: 78.4, screening length: 8.12261 Bohr) occupying 0.388264 of unit cell:	Completed after 13 iterations at t[s]:   3390.01
	FillingsUpdate:  mu: -0.208000000  nElectrons: 360.471042  magneticMoment: [ Abs: 0.00000  Tot: -0.00000 ]
	SubspaceRotationAdjust: set factor to 0.067
ElecMinimize: Iter:  26  G: -2729.596427046503322  |grad|_K:  3.321e-07  alpha:  3.605e-01  linmin: -3.104e-05  t[s]:   3440.64
	Linear fluid (dielectric constant: 78.4, screening length: 8.12261 Bohr) occupying 0.388192 of unit cell:	Completed after 14 iterations at t[s]:   3481.44
	Linear fluid (dielectric constant: 78.4, screening length: 8.12261 Bohr) occupying 0.388195 of unit cell:	Completed after 4 iterations at t[s]:   3512.86
	FillingsUpdate:  mu: -0.208000000  nElectrons: 360.472070  magneticMoment: [ Abs: 0.00000  Tot: -0.00000 ]
	SubspaceRotationAdjust: set factor to 0.0597
ElecMinimize: Iter:  27  G: -2729.596435615007522  |grad|_K:  2.501e-07  alpha:  3.468e-01  linmin:  5.564e-05  t[s]:   3562.61
	Linear fluid (dielectric constant: 78.4, screening length: 8.12261 Bohr) occupying 0.388151 of unit cell:	Completed after 10 iterations at t[s]:   3602.28
	Linear fluid (dielectric constant: 78.4, screening length: 8.12261 Bohr) occupying 0.388135 of unit cell:	Completed after 9 iterations at t[s]:   3634.49
	FillingsUpdate:  mu: -0.208000000  nElectrons: 360.474763  magneticMoment: [ Abs: 0.00000  Tot: -0.00000 ]
	SubspaceRotationAdjust: set factor to 0.0672
ElecMinimize: Iter:  28  G: -2729.596442251718599  |grad|_K:  1.838e-07  alpha:  4.756e-01  linmin: -7.105e-05  t[s]:   3685.29
	Linear fluid (dielectric constant: 78.4, screening length: 8.12261 Bohr) occupying 0.388098 of unit cell:	Completed after 12 iterations at t[s]:   3725.68
	Linear fluid (dielectric constant: 78.4, screening length: 8.12261 Bohr) occupying 0.388101 of unit cell:	Completed after 2 iterations at t[s]:   3756.79
	FillingsUpdate:  mu: -0.208000000  nElectrons: 360.476376  magneticMoment: [ Abs: 0.00000  Tot: -0.00000 ]
	SubspaceRotationAdjust: set factor to 0.0747
ElecMinimize: Iter:  29  G: -2729.596445555127957  |grad|_K:  1.440e-07  alpha:  4.360e-01  linmin:  2.345e-05  t[s]:   3807.16
	Linear fluid (dielectric constant: 78.4, screening length: 8.12261 Bohr) occupying 0.388076 of unit cell:	Completed after 11 iterations at t[s]:   3846.95
	Linear fluid (dielectric constant: 78.4, screening length: 8.12261 Bohr) occupying 0.388078 of unit cell:	Completed after 6 iterations at t[s]:   3878.23
	FillingsUpdate:  mu: -0.208000000  nElectrons: 360.476333  magneticMoment: [ Abs: 0.00000  Tot: -0.00000 ]
	SubspaceRotationAdjust: set factor to 0.0731
ElecMinimize: Iter:  30  G: -2729.596447381617509  |grad|_K:  1.277e-07  alpha:  3.953e-01  linmin: -5.701e-05  t[s]:   3928.15
	Linear fluid (dielectric constant: 78.4, screening length: 8.12261 Bohr) occupying 0.388059 of unit cell:	Completed after 13 iterations at t[s]:   3969.04
	Linear fluid (dielectric constant: 78.4, screening length: 8.12261 Bohr) occupying 0.388062 of unit cell:	Completed after 7 iterations at t[s]:   4000.30
	FillingsUpdate:  mu: -0.208000000  nElectrons: 360.477589  magneticMoment: [ Abs: 0.00000  Tot: -0.00000 ]
	SubspaceRotationAdjust: set factor to 0.0689
ElecMinimize: Iter:  31  G: -2729.596448619997773  |grad|_K:  1.094e-07  alpha:  3.390e-01  linmin: -7.025e-06  t[s]:   4050.78
	Linear fluid (dielectric constant: 78.4, screening length: 8.12261 Bohr) occupying 0.388046 of unit cell:	Completed after 11 iterations at t[s]:   4090.77
	Linear fluid (dielectric constant: 78.4, screening length: 8.12261 Bohr) occupying 0.388040 of unit cell:	Completed after 7 iterations at t[s]:   4122.61
	FillingsUpdate:  mu: -0.208000000  nElectrons: 360.477548  magneticMoment: [ Abs: 0.00000  Tot: -0.00000 ]
	SubspaceRotationAdjust: set factor to 0.0774
ElecMinimize: Iter:  32  G: -2729.596449865211980  |grad|_K:  1.003e-07  alpha:  4.643e-01  linmin: -4.594e-05  t[s]:   4172.43
	Linear fluid (dielectric constant: 78.4, screening length: 8.12261 Bohr) occupying 0.388020 of unit cell:	Completed after 6 iterations at t[s]:   4211.69
	Linear fluid (dielectric constant: 78.4, screening length: 8.12261 Bohr) occupying 0.388017 of unit cell:	Completed after 2 iterations at t[s]:   4242.54
	FillingsUpdate:  mu: -0.208000000  nElectrons: 360.477918  magneticMoment: [ Abs: 0.00000  Tot: -0.00000 ]
	SubspaceRotationAdjust: set factor to 0.0914
ElecMinimize: Iter:  33  G: -2729.596451060413528  |grad|_K:  9.461e-08  alpha:  5.295e-01  linmin: -1.248e-05  t[s]:   4293.35
	Linear fluid (dielectric constant: 78.4, screening length: 8.12261 Bohr) occupying 0.387994 of unit cell:	Completed after 12 iterations at t[s]:   4334.06
	Linear fluid (dielectric constant: 78.4, screening length: 8.12261 Bohr) occupying 0.387993 of unit cell:	Completed after 0 iterations at t[s]:   4364.03
	FillingsUpdate:  mu: -0.208000000  nElectrons: 360.478512  magneticMoment: [ Abs: 0.00000  Tot: -0.00000 ]
	SubspaceRotationAdjust: set factor to 0.0972
ElecMinimize: Iter:  34  G: -2729.596452152328766  |grad|_K:  9.494e-08  alpha:  5.452e-01  linmin: -3.618e-05  t[s]:   4414.73
	Linear fluid (dielectric constant: 78.4, screening length: 8.12261 Bohr) occupying 0.387964 of unit cell:	Completed after 12 iterations at t[s]:   4454.72
	Linear fluid (dielectric constant: 78.4, screening length: 8.12261 Bohr) occupying 0.387974 of unit cell:	Completed after 10 iterations at t[s]:   4486.44
	FillingsUpdate:  mu: -0.208000000  nElectrons: 360.478029  magneticMoment: [ Abs: 0.00000  Tot: -0.00000 ]
	SubspaceRotationAdjust: set factor to 0.0808
ElecMinimize: Iter:  35  G: -2729.596452871045585  |grad|_K:  9.870e-08  alpha:  3.539e-01  linmin:  1.625e-05  t[s]:   4536.60
	Linear fluid (dielectric constant: 78.4, screening length: 8.12261 Bohr) occupying 0.387954 of unit cell:	Completed after 11 iterations at t[s]:   4576.06
	Linear fluid (dielectric constant: 78.4, screening length: 8.12261 Bohr) occupying 0.387959 of unit cell:	Completed after 10 iterations at t[s]:   4608.38
	FillingsUpdate:  mu: -0.208000000  nElectrons: 360.478764  magneticMoment: [ Abs: 0.00000  Tot: -0.00000 ]
	SubspaceRotationAdjust: set factor to 0.0649
ElecMinimize: Iter:  36  G: -2729.596453461800138  |grad|_K:  6.960e-08  alpha:  2.718e-01  linmin:  1.565e-05  t[s]:   4658.17
	Linear fluid (dielectric constant: 78.4, screening length: 8.12261 Bohr) occupying 0.387949 of unit cell:	Completed after 7 iterations at t[s]:   4698.10
	Linear fluid (dielectric constant: 78.4, screening length: 8.12261 Bohr) occupying 0.387943 of unit cell:	Completed after 2 iterations at t[s]:   4728.34
	FillingsUpdate:  mu: -0.208000000  nElectrons: 360.478803  magneticMoment: [ Abs: 0.00000  Tot: -0.00000 ]
	SubspaceRotationAdjust: set factor to 0.0783
ElecMinimize: Iter:  37  G: -2729.596453952375668  |grad|_K:  5.360e-08  alpha:  4.531e-01  linmin: -5.313e-05  t[s]:   4778.84
	Linear fluid (dielectric constant: 78.4, screening length: 8.12261 Bohr) occupying 0.387932 of unit cell:	Completed after 9 iterations at t[s]:   4818.64
	Linear fluid (dielectric constant: 78.4, screening length: 8.12261 Bohr) occupying 0.387934 of unit cell:	Completed after 2 iterations at t[s]:   4849.33
	FillingsUpdate:  mu: -0.208000000  nElectrons: 360.478730  magneticMoment: [ Abs: 0.00000  Tot: -0.00000 ]
	SubspaceRotationAdjust: set factor to 0.0803
ElecMinimize: Iter:  38  G: -2729.596454197006096  |grad|_K:  5.131e-08  alpha:  3.818e-01  linmin: -7.651e-05  t[s]:   4898.95
	Linear fluid (dielectric constant: 78.4, screening length: 8.12261 Bohr) occupying 0.387925 of unit cell:	Completed after 10 iterations at t[s]:   4938.80
	Linear fluid (dielectric constant: 78.4, screening length: 8.12261 Bohr) occupying 0.387928 of unit cell:	Completed after 9 iterations at t[s]:   4970.85
	FillingsUpdate:  mu: -0.208000000  nElectrons: 360.479148  magneticMoment: [ Abs: 0.00000  Tot: -0.00000 ]
	SubspaceRotationAdjust: set factor to 0.0675
ElecMinimize: Iter:  39  G: -2729.596454337789964  |grad|_K:  4.251e-08  alpha:  2.433e-01  linmin: -4.363e-05  t[s]:   5021.46
	Linear fluid (dielectric constant: 78.4, screening length: 8.12261 Bohr) occupying 0.387923 of unit cell:	Completed after 7 iterations at t[s]:   5061.11
	Linear fluid (dielectric constant: 78.4, screening length: 8.12261 Bohr) occupying 0.387920 of unit cell:	Completed after 2 iterations at t[s]:   5091.44
	FillingsUpdate:  mu: -0.208000000  nElectrons: 360.479211  magneticMoment: [ Abs: 0.00000  Tot: -0.00000 ]
	SubspaceRotationAdjust: set factor to 0.0944
ElecMinimize: Iter:  40  G: -2729.596454487748360  |grad|_K:  3.522e-08  alpha:  3.690e-01  linmin: -4.679e-05  t[s]:   5141.95
	Linear fluid (dielectric constant: 78.4, screening length: 8.12261 Bohr) occupying 0.387914 of unit cell:	Completed after 10 iterations at t[s]:   5181.20
	Linear fluid (dielectric constant: 78.4, screening length: 8.12261 Bohr) occupying 0.387915 of unit cell:	Completed after 0 iterations at t[s]:   5211.51
	FillingsUpdate:  mu: -0.208000000  nElectrons: 360.479140  magneticMoment: [ Abs: 0.00000  Tot: -0.00000 ]
	SubspaceRotationAdjust: set factor to 0.0724
ElecMinimize: Iter:  41  G: -2729.596454577460008  |grad|_K:  4.283e-08  alpha:  3.231e-01  linmin:  1.292e-04  t[s]:   5261.56
	Linear fluid (dielectric constant: 78.4, screening length: 8.12261 Bohr) occupying 0.387907 of unit cell:	Completed after 11 iterations at t[s]:   5301.61
	Linear fluid (dielectric constant: 78.4, screening length: 8.12261 Bohr) occupying 0.387911 of unit cell:	Completed after 7 iterations at t[s]:   5332.73
	FillingsUpdate:  mu: -0.208000000  nElectrons: 360.479489  magneticMoment: [ Abs: 0.00000  Tot: -0.00000 ]
	SubspaceRotationAdjust: set factor to 0.0686
ElecMinimize: Iter:  42  G: -2729.596454652571538  |grad|_K:  2.913e-08  alpha:  1.921e-01  linmin:  1.837e-05  t[s]:   5383.06
ElecMinimize: Converged (|Delta G|<1.000000e-07 for 2 iters).
Setting wave functions to eigenvectors of Hamiltonian
Converging empty states (this may take a while): |deigs|: 6.284e-04

Computing DFT-D3 correction:
# coordination-number Ag 5.460 6.726 8.381 5.461 8.949 9.043 9.058 9.100 9.095 9.105 9.103 9.107 9.099 9.105 9.064 9.049 8.956 8.385 6.731
# diagonal-C6 Ag 268.61 268.61 268.61 268.61 268.61 268.61 268.61 268.61 268.61 268.61 268.61 268.61 268.61 268.61 268.61 268.61 268.61 268.61 268.61
EvdW_6 =   -0.129451
EvdW_8 =   -0.171177

# Ionic positions in cartesian coordinates:
ion Ag   0.004169088608456   7.513979840975280  65.967474868653895 1
ion Ag   2.713519482672154   3.071229486441860  64.408022768226019 1
ion Ag   2.714718089917329  10.642755923303767  62.565095500183851 1
ion Ag   2.708871166656018  11.761266911061858  34.275868182728537 1
ion Ag   0.001630240010746   6.209684720392040  60.769640281323916 1
ion Ag   2.710016234724312   1.853225654182328  58.974715211063156 1
ion Ag   2.710877297385987   9.305199257184901  57.212125720353242 1
ion Ag   0.000511237472061   4.961231024903516  55.445623010339595 1
ion Ag   2.713052030061000   0.607014706932617  53.660669321215181 1
ion Ag   2.711418471358933   8.073384019427754  51.890254078766510 1
ion Ag   0.001191884990287   3.729757454749080  50.119504187614176 1
ion Ag  -0.003257882423954  11.200277273963504  48.348871187388731 1
ion Ag   2.708230959275951   6.853430750685848  46.578966322712638 1
ion Ag  -0.001106918400435   2.500263269991237  44.794368445144869 1
ion Ag  -0.002456191159776   9.969942681549250  43.028983746949244 1
ion Ag   2.711828424860575   5.609165123326306  41.266581549078658 1
ion Ag  -0.004479410643551   1.251573946160654  39.473333153259290 1
ion Ag  -0.001882277258458   8.633107885944439  37.677698323768062 1
ion Ag   2.705398071892361   4.389376068823778  35.837807141230343 1

# Forces in Cartesian coordinates:
force Ag  -0.000002295130853   0.000100005586079   0.000649826748122 1
force Ag  -0.000003262341626   0.000244060968507  -0.000464486097331 1
force Ag   0.000017728389697  -0.000244320962726  -0.000167273453359 1
force Ag   0.000005894327558  -0.000069031804727  -0.000671668327019 1
force Ag   0.000017325155946   0.000123976361241   0.000649342527109 1
force Ag   0.000027600844131   0.000097682972483   0.000146392363318 1
force Ag   0.000014664178912  -0.000139015263194  -0.000006035595219 1
force Ag   0.000050455158940   0.000088391731429   0.000486078062064 1
force Ag  -0.000012482701267   0.000098980545447   0.000152316924210 1
force Ag  -0.000025694250429   0.000040560573461  -0.000043694800730 1
force Ag   0.000002922199679   0.000006067450862  -0.000001758080350 1
force Ag   0.000029471633926  -0.000041998717372   0.000028530467041 1
force Ag   0.000018212472968  -0.000087625854087  -0.000162436217470 1
force Ag  -0.000050266381259  -0.000088434413469  -0.000497283043800 1
force Ag  -0.000006454270495   0.000139914371434   0.000021912141837 1
force Ag  -0.000024441755711  -0.000085346898445  -0.000112374085563 1
force Ag  -0.000004595083281  -0.000126969739467  -0.000622662502998 1
force Ag  -0.000014421181648   0.000274903660765   0.000196397373566 1
force Ag   0.000014210472823  -0.000243365173186   0.000462489316062 1

# Energy components:
   A_diel =        0.1400784990503665
   Eewald =    15539.7214575103262177
       EH =    18127.6329577854339732
     Eloc =   -36912.7194295004301239
      Enl =       74.9917499978095350
     EvdW =       -0.3006281503897577
      Exc =     -275.2848437302966431
 Exc_core =        3.9552380150622186
       KE =      637.2440394673756145
  MuShift =        0.0435675077122244
-------------------------------------
     Etot =    -2804.5758125983475111
       TS =        0.0003758195466326
-------------------------------------
        F =    -2804.5761884178941727
      muN =      -74.9797337653225213
-------------------------------------
        G =    -2729.5964546525715377


Dumping 'jdft.fillings' ... done
Dumping 'jdft.wfns' ... done
Dumping 'jdft.fluidState' ... done
Dumping 'jdft.ionpos' ... done
Dumping 'jdft.lattice' ... done
Dumping 'jdft.eigenvals' ... done
Dumping 'jdft.eigStats' ... 
	eMin: -3.589816 at state 28 ( [ +0.000000 +0.000000 +0.000000 ] spin -1 )
	HOMO: -0.208726 at state 8 ( [ +0.181818 +0.000000 +0.000000 ] spin 1 )
	mu  : -0.208000
	LUMO: -0.207418 at state 23 ( [ +0.454545 +0.000000 +0.000000 ] spin 1 )
	eMax: +0.189961 at state 0 ( [ +0.000000 +0.000000 +0.000000 ] spin 1 )
	HOMO-LUMO gap: +0.001308
	Optical gap  : +0.004767 at state 54 ( [ +0.454545 -0.400000 +0.000000 ] spin -1 )
Dumping 'jdft.Ecomponents' ... done
IonicMinimize: Iter:   0  G: -2729.596454652571538  |grad|_K:  2.351e-04  t[s]:   5635.37

#--- Lowdin population analysis ---
# oxidation-state Ag +0.248 +0.105 -0.051 +0.248 -0.004 +0.001 +0.003 +0.002 +0.002 +0.003 +0.004 +0.003 +0.003 +0.003 +0.003 +0.001 -0.004 -0.050 +0.104
# magnetic-moments Ag +0.000 -0.000 -0.000 +0.000 -0.000 -0.000 -0.000 -0.000 -0.000 -0.000 -0.000 -0.000 -0.000 -0.000 -0.000 -0.000 -0.000 -0.000 -0.000


Computing DFT-D3 correction:
# coordination-number Ag 5.459 6.727 8.381 5.461 8.950 9.043 9.058 9.100 9.095 9.104 9.102 9.106 9.099 9.105 9.064 9.049 8.957 8.385 6.732
# diagonal-C6 Ag 268.61 268.61 268.61 268.61 268.61 268.61 268.61 268.61 268.61 268.61 268.61 268.61 268.61 268.61 268.61 268.61 268.61 268.61 268.61
EvdW_6 =   -0.129449
EvdW_8 =   -0.171175
Shifting auxilliary hamiltonian by -0.000025 to set nElectrons=360.479489

-------- Electronic minimization -----------
	Linear fluid (dielectric constant: 78.4, screening length: 8.12261 Bohr) occupying 0.387887 of unit cell:	Completed after 15 iterations at t[s]:   5681.56
	FillingsUpdate:  mu: -0.208000000  nElectrons: 360.479489  magneticMoment: [ Abs: 0.00000  Tot: -0.00000 ]
ElecMinimize: Iter:   0  G: -2729.596455783539113  |grad|_K:  2.362e-07  alpha:  1.000e+00
	Linear fluid (dielectric constant: 78.4, screening length: 8.12261 Bohr) occupying 0.387893 of unit cell:	Completed after 19 iterations at t[s]:   5777.84
	Linear fluid (dielectric constant: 78.4, screening length: 8.12261 Bohr) occupying 0.387888 of unit cell:	Completed after 18 iterations at t[s]:   5811.56
	FillingsUpdate:  mu: -0.208000000  nElectrons: 360.480977  magneticMoment: [ Abs: 0.00000  Tot: -0.00000 ]
	SubspaceRotationAdjust: set factor to 0.0452
ElecMinimize: Iter:   1  G: -2729.596457597012432  |grad|_K:  6.091e-08  alpha:  1.466e-01  linmin:  1.193e-03  t[s]:   5861.28
	Linear fluid (dielectric constant: 78.4, screening length: 8.12261 Bohr) occupying 0.387887 of unit cell:	Completed after 7 iterations at t[s]:   5900.42
	Linear fluid (dielectric constant: 78.4, screening length: 8.12261 Bohr) occupying 0.387886 of unit cell:	Completed after 9 iterations at t[s]:   5932.49
	FillingsUpdate:  mu: -0.208000000  nElectrons: 360.480728  magneticMoment: [ Abs: 0.00000  Tot: -0.00000 ]
	SubspaceRotationAdjust: set factor to 0.0674
ElecMinimize: Iter:   2  G: -2729.596457920892590  |grad|_K:  3.011e-08  alpha:  3.774e-01  linmin: -2.009e-03  t[s]:   5982.28
	Linear fluid (dielectric constant: 78.4, screening length: 8.12261 Bohr) occupying 0.387884 of unit cell:	Completed after 2 iterations at t[s]:   6020.46
	Linear fluid (dielectric constant: 78.4, screening length: 8.12261 Bohr) occupying 0.387884 of unit cell:	Completed after 2 iterations at t[s]:   6051.50
	FillingsUpdate:  mu: -0.208000000  nElectrons: 360.480597  magneticMoment: [ Abs: 0.00000  Tot: -0.00000 ]
	SubspaceRotationAdjust: set factor to 0.0838
ElecMinimize: Iter:   3  G: -2729.596458029172936  |grad|_K:  2.712e-08  alpha:  5.074e-01  linmin:  3.883e-05  t[s]:   6101.05
	Linear fluid (dielectric constant: 78.4, screening length: 8.12261 Bohr) occupying 0.387881 of unit cell:	Completed after 7 iterations at t[s]:   6140.47
	Linear fluid (dielectric constant: 78.4, screening length: 8.12261 Bohr) occupying 0.387882 of unit cell:	Completed after 2 iterations at t[s]:   6171.51
	FillingsUpdate:  mu: -0.208000000  nElectrons: 360.480457  magneticMoment: [ Abs: 0.00000  Tot: +0.00000 ]
	SubspaceRotationAdjust: set factor to 0.107
ElecMinimize: Iter:   4  G: -2729.596458097996219  |grad|_K:  2.158e-08  alpha:  4.239e-01  linmin: -1.101e-04  t[s]:   6220.99
	Linear fluid (dielectric constant: 78.4, screening length: 8.12261 Bohr) occupying 0.387881 of unit cell:	Completed after 3 iterations at t[s]:   6259.55
	Linear fluid (dielectric constant: 78.4, screening length: 8.12261 Bohr) occupying 0.387880 of unit cell:	Completed after 4 iterations at t[s]:   6290.81
	FillingsUpdate:  mu: -0.208000000  nElectrons: 360.480204  magneticMoment: [ Abs: 0.00000  Tot: +0.00000 ]
	SubspaceRotationAdjust: set factor to 0.118
ElecMinimize: Iter:   5  G: -2729.596458162796807  |grad|_K:  2.003e-08  alpha:  6.216e-01  linmin:  6.512e-05  t[s]:   6340.44
ElecMinimize: Converged (|Delta G|<1.000000e-07 for 2 iters).
Setting wave functions to eigenvectors of Hamiltonian
Converging empty states (this may take a while): |deigs|: 2.432e-08

Computing DFT-D3 correction:
# coordination-number Ag 5.459 6.727 8.381 5.461 8.950 9.043 9.058 9.100 9.095 9.104 9.102 9.106 9.099 9.105 9.064 9.049 8.957 8.385 6.732
# diagonal-C6 Ag 268.61 268.61 268.61 268.61 268.61 268.61 268.61 268.61 268.61 268.61 268.61 268.61 268.61 268.61 268.61 268.61 268.61 268.61 268.61
EvdW_6 =   -0.129449
EvdW_8 =   -0.171175
IonicMinimize: 	Wolfe criterion not satisfied: alpha: 1  (E-E0)/|gdotd0|: -1.11395  gdotd/gdotd0: 1.08374 (taking cubic step)

Computing DFT-D3 correction:
# coordination-number Ag 5.459 6.728 8.381 5.460 8.951 9.043 9.058 9.100 9.094 9.104 9.101 9.106 9.098 9.104 9.064 9.050 8.959 8.385 6.733
# diagonal-C6 Ag 268.61 268.61 268.61 268.61 268.61 268.61 268.61 268.61 268.61 268.61 268.61 268.61 268.61 268.61 268.61 268.61 268.61 268.61 268.61
EvdW_6 =   -0.129447
EvdW_8 =   -0.171171
Shifting auxilliary hamiltonian by 0.000020 to set nElectrons=360.480204

-------- Electronic minimization -----------
	Linear fluid (dielectric constant: 78.4, screening length: 8.12261 Bohr) occupying 0.387875 of unit cell:	Completed after 16 iterations at t[s]:   6500.90
	FillingsUpdate:  mu: -0.208000000  nElectrons: 360.480204  magneticMoment: [ Abs: 0.00000  Tot: -0.00000 ]
ElecMinimize: Iter:   0  G: -2729.596460591299092  |grad|_K:  1.990e-07  alpha:  1.000e+00
	Linear fluid (dielectric constant: 78.4, screening length: 8.12261 Bohr) occupying 0.387871 of unit cell:	Completed after 21 iterations at t[s]:   6597.86
	Linear fluid (dielectric constant: 78.4, screening length: 8.12261 Bohr) occupying 0.387875 of unit cell:	Completed after 22 iterations at t[s]:   6631.62
	FillingsUpdate:  mu: -0.208000000  nElectrons: 360.479109  magneticMoment: [ Abs: 0.00000  Tot: -0.00000 ]
	SubspaceRotationAdjust: set factor to 0.0701
ElecMinimize: Iter:   1  G: -2729.596461715307669  |grad|_K:  9.911e-08  alpha:  1.239e-01  linmin: -1.322e-03  t[s]:   6681.86
	Linear fluid (dielectric constant: 78.4, screening length: 8.12261 Bohr) occupying 0.387875 of unit cell:	Completed after 10 iterations at t[s]:   6722.03
	Linear fluid (dielectric constant: 78.4, screening length: 8.12261 Bohr) occupying 0.387876 of unit cell:	Completed after 10 iterations at t[s]:   6754.52
	FillingsUpdate:  mu: -0.208000000  nElectrons: 360.479576  magneticMoment: [ Abs: 0.00000  Tot: -0.00000 ]
	SubspaceRotationAdjust: set factor to 0.0842
ElecMinimize: Iter:   2  G: -2729.596462122339744  |grad|_K:  2.868e-08  alpha:  1.827e-01  linmin: -1.483e-04  t[s]:   6804.42
	Linear fluid (dielectric constant: 78.4, screening length: 8.12261 Bohr) occupying 0.387876 of unit cell:	Completed after 2 iterations at t[s]:   6843.03
	Linear fluid (dielectric constant: 78.4, screening length: 8.12261 Bohr) occupying 0.387877 of unit cell:	Completed after 2 iterations at t[s]:   6873.93
	FillingsUpdate:  mu: -0.208000000  nElectrons: 360.479677  magneticMoment: [ Abs: 0.00000  Tot: -0.00000 ]
	SubspaceRotationAdjust: set factor to 0.106
ElecMinimize: Iter:   3  G: -2729.596462207102832  |grad|_K:  1.835e-08  alpha:  4.556e-01  linmin: -8.226e-04  t[s]:   6923.66
	Linear fluid (dielectric constant: 78.4, screening length: 8.12261 Bohr) occupying 0.387878 of unit cell:	Completed after 5 iterations at t[s]:   6962.70
	Linear fluid (dielectric constant: 78.4, screening length: 8.12261 Bohr) occupying 0.387878 of unit cell:	Completed after 2 iterations at t[s]:   6993.33
	FillingsUpdate:  mu: -0.208000000  nElectrons: 360.479682  magneticMoment: [ Abs: 0.00000  Tot: -0.00000 ]
	SubspaceRotationAdjust: set factor to 0.12
ElecMinimize: Iter:   4  G: -2729.596462234337650  |grad|_K:  1.394e-08  alpha:  3.636e-01  linmin:  1.959e-05  t[s]:   7043.68
ElecMinimize: Converged (|Delta G|<1.000000e-07 for 2 iters).
Setting wave functions to eigenvectors of Hamiltonian
Converging empty states (this may take a while): |deigs|: 5.814e-09

Computing DFT-D3 correction:
# coordination-number Ag 5.459 6.728 8.381 5.460 8.951 9.043 9.058 9.100 9.094 9.104 9.101 9.106 9.098 9.104 9.064 9.050 8.959 8.385 6.733
# diagonal-C6 Ag 268.61 268.61 268.61 268.61 268.61 268.61 268.61 268.61 268.61 268.61 268.61 268.61 268.61 268.61 268.61 268.61 268.61 268.61 268.61
EvdW_6 =   -0.129447
EvdW_8 =   -0.171171
IonicMinimize: 	Wolfe criterion not satisfied: alpha: 2.23033  (E-E0)/|gdotd0|: -2.40603  gdotd/gdotd0: 1.02627 (taking cubic step)

Computing DFT-D3 correction:
# coordination-number Ag 5.457 6.730 8.382 5.458 8.954 9.044 9.057 9.099 9.093 9.102 9.099 9.104 9.097 9.104 9.064 9.050 8.961 8.385 6.735
# diagonal-C6 Ag 268.61 268.61 268.61 268.61 268.61 268.61 268.61 268.61 268.61 268.61 268.61 268.61 268.61 268.61 268.61 268.61 268.61 268.61 268.61
EvdW_6 =   -0.129443
EvdW_8 =   -0.171165
Shifting auxilliary hamiltonian by 0.000030 to set nElectrons=360.479682

-------- Electronic minimization -----------
	Linear fluid (dielectric constant: 78.4, screening length: 8.12261 Bohr) occupying 0.387862 of unit cell:	Completed after 9 iterations at t[s]:   7203.06
	FillingsUpdate:  mu: -0.208000000  nElectrons: 360.479682  magneticMoment: [ Abs: 0.00000  Tot: +0.00000 ]
ElecMinimize: Iter:   0  G: -2729.596469199757848  |grad|_K:  7.255e-08  alpha:  1.000e+00
	Linear fluid (dielectric constant: 78.4, screening length: 8.12261 Bohr) occupying 0.387861 of unit cell:	Completed after 14 iterations at t[s]:   7299.46
	Linear fluid (dielectric constant: 78.4, screening length: 8.12261 Bohr) occupying 0.387862 of unit cell:	Completed after 14 iterations at t[s]:   7331.73
	FillingsUpdate:  mu: -0.208000000  nElectrons: 360.479352  magneticMoment: [ Abs: 0.00000  Tot: +0.00000 ]
	SubspaceRotationAdjust: set factor to 0.0827
ElecMinimize: Iter:   1  G: -2729.596469515328863  |grad|_K:  6.177e-08  alpha:  2.659e-01  linmin: -2.063e-04  t[s]:   7382.26
	Linear fluid (dielectric constant: 78.4, screening length: 8.12261 Bohr) occupying 0.387862 of unit cell:	Completed after 12 iterations at t[s]:   7422.48
	Linear fluid (dielectric constant: 78.4, screening length: 8.12261 Bohr) occupying 0.387862 of unit cell:	Completed after 10 iterations at t[s]:   7454.12
	FillingsUpdate:  mu: -0.208000000  nElectrons: 360.479747  magneticMoment: [ Abs: 0.00000  Tot: +0.00000 ]
	SubspaceRotationAdjust: set factor to 0.0517
ElecMinimize: Iter:   2  G: -2729.596469638957842  |grad|_K:  2.844e-08  alpha:  1.448e-01  linmin:  2.212e-04  t[s]:   7504.83
	Linear fluid (dielectric constant: 78.4, screening length: 8.12261 Bohr) occupying 0.387862 of unit cell:	Completed after 1 iterations at t[s]:   7542.95
	Linear fluid (dielectric constant: 78.4, screening length: 8.12261 Bohr) occupying 0.387862 of unit cell:	Completed after 2 iterations at t[s]:   7573.22
	FillingsUpdate:  mu: -0.208000000  nElectrons: 360.479752  magneticMoment: [ Abs: 0.00000  Tot: +0.00000 ]
	SubspaceRotationAdjust: set factor to 0.0724
ElecMinimize: Iter:   3  G: -2729.596469707906635  |grad|_K:  2.050e-08  alpha:  3.716e-01  linmin: -2.684e-03  t[s]:   7623.70
	Linear fluid (dielectric constant: 78.4, screening length: 8.12261 Bohr) occupying 0.387862 of unit cell:	Completed after 7 iterations at t[s]:   7661.53
	Linear fluid (dielectric constant: 78.4, screening length: 8.12261 Bohr) occupying 0.387862 of unit cell:	Completed after 0 iterations at t[s]:   7691.48
	FillingsUpdate:  mu: -0.208000000  nElectrons: 360.479630  magneticMoment: [ Abs: 0.00000  Tot: +0.00000 ]
	SubspaceRotationAdjust: set factor to 0.0654
ElecMinimize: Iter:   4  G: -2729.596469740800330  |grad|_K:  1.666e-08  alpha:  3.348e-01  linmin:  2.792e-03  t[s]:   7739.85
ElecMinimize: Converged (|Delta G|<1.000000e-07 for 2 iters).
Setting wave functions to eigenvectors of Hamiltonian
Converging empty states (this may take a while): |deigs|: 5.690e-09

Computing DFT-D3 correction:
# coordination-number Ag 5.457 6.730 8.382 5.458 8.954 9.044 9.057 9.099 9.093 9.102 9.099 9.104 9.097 9.104 9.064 9.050 8.961 8.385 6.735
# diagonal-C6 Ag 268.61 268.61 268.61 268.61 268.61 268.61 268.61 268.61 268.61 268.61 268.61 268.61 268.61 268.61 268.61 268.61 268.61 268.61 268.61
EvdW_6 =   -0.129443
EvdW_8 =   -0.171165

# Ionic positions in cartesian coordinates:
ion Ag   0.004144848706129   7.514427132366556  65.970512433996575 1
ion Ag   2.713490705589971   3.072352540756704  64.405833098782196 1
ion Ag   2.714787780228224  10.641587980947023  62.564300053446786 1
ion Ag   2.708885343453331  11.760921249080079  34.272706622704277 1
ion Ag   0.001698038754565   6.210244458543933  60.772675575188778 1
ion Ag   2.710132236658963   1.853662050207342  58.975391168766023 1
ion Ag   2.710932613502712   9.304525303224734  57.212086639428897 1
ion Ag   0.000734448858597   4.961623835773207  55.447892431591065 1
ion Ag   2.712980000327770   0.607457189864520  53.661373070997200 1
ion Ag   2.711284466328868   8.073552454626078  51.890038338737966 1
ion Ag   0.001192119553780   3.729764082918903  50.119485172486094 1
ion Ag  -0.003133104625745  11.200058424030235  48.348994255652400 1
ion Ag   2.708302920418531   6.852997864131518  46.578193567419738 1
ion Ag  -0.001356191146900   2.499826590489755  44.792024925424471 1
ion Ag  -0.002499941560888   9.970577184810105  43.029075768689594 1
ion Ag   2.711700295275621   5.608742927339041  41.266043634942321 1
ion Ag  -0.004514439608739   1.250956497679090  39.470401479257710 1
ion Ag  -0.001963400391375   8.634375623141240  37.678608854670138 1
ion Ag   2.705451259676579   4.388212610069957  35.839965907817657 1

# Forces in Cartesian coordinates:
force Ag  -0.000002119384415   0.000155403972181   0.000888765470787 1
force Ag  -0.000001679453114   0.000162119986999  -0.000095858063008 1
force Ag   0.000016177228782  -0.000199108843666   0.000192840530445 1
force Ag   0.000006008328633  -0.000130230506132  -0.000805872374085 1
force Ag   0.000016640382021   0.000121400187965   0.000692189927595 1
force Ag   0.000028368315200   0.000056412138404   0.000265387340720 1
force Ag   0.000015878616258  -0.000047224553212   0.000048399762740 1
force Ag   0.000044125068228   0.000049575359897   0.000245513881995 1
force Ag  -0.000009018514284   0.000099230348607  -0.000001936289683 1
force Ag  -0.000019257008036   0.000003763174231  -0.000135031794881 1
force Ag   0.000002884265418   0.000003416553348  -0.000052778981067 1
force Ag   0.000022783796700  -0.000002522646108   0.000032345025061 1
force Ag   0.000014883063222  -0.000094476954241  -0.000078577468013 1
force Ag  -0.000043579207001  -0.000046954811406  -0.000301481476747 1
force Ag  -0.000008613053507   0.000049414276392  -0.000067759218377 1
force Ag  -0.000024977989467  -0.000048687121907  -0.000260331317161 1
force Ag  -0.000004806928600  -0.000114695490767  -0.000661755395725 1
force Ag  -0.000012166779793   0.000219416530986  -0.000142643907939 1
force Ag   0.000013117957035  -0.000147575754034   0.000173484819215 1

# Energy components:
   A_diel =        0.1400730985329813
   Eewald =    15537.5161274360252719
       EH =    18125.4193213083053706
     Eloc =   -36908.3003241828846512
      Enl =       74.9919943931666211
     EvdW =       -0.3006073294836169
      Exc =     -275.2846731137562415
 Exc_core =        3.9552379693444442
       KE =      637.2434373661783411
  MuShift =        0.0435557429687252
-------------------------------------
     Etot =    -2804.5758573115986110
       TS =        0.0003754301760721
-------------------------------------
        F =    -2804.5762327417746747
      muN =      -74.9797630009742164
-------------------------------------
        G =    -2729.5964697408003303


Dumping 'jdft.fillings' ... done
Dumping 'jdft.wfns' ... done
Dumping 'jdft.fluidState' ... done
Dumping 'jdft.ionpos' ... done
Dumping 'jdft.lattice' ... done
Dumping 'jdft.eigenvals' ... done
Dumping 'jdft.eigStats' ... 
	eMin: -3.589894 at state 28 ( [ +0.000000 +0.000000 +0.000000 ] spin -1 )
	HOMO: -0.208833 at state 36 ( [ +0.181818 +0.000000 +0.000000 ] spin -1 )
	mu  : -0.208000
	LUMO: -0.207501 at state 23 ( [ +0.454545 +0.000000 +0.000000 ] spin 1 )
	eMax: +0.189925 at state 0 ( [ +0.000000 +0.000000 +0.000000 ] spin 1 )
	HOMO-LUMO gap: +0.001332
	Optical gap  : +0.004748 at state 26 ( [ +0.454545 -0.400000 +0.000000 ] spin 1 )
Dumping 'jdft.Ecomponents' ... done
IonicMinimize: Iter:   1  G: -2729.596469740800330  |grad|_K:  2.303e-04  alpha:  4.691e+00  linmin: -8.736e-01  t[s]:   7854.12

#--- Lowdin population analysis ---
# oxidation-state Ag +0.249 +0.105 -0.050 +0.250 -0.005 +0.000 +0.002 +0.002 +0.002 +0.003 +0.004 +0.003 +0.002 +0.002 +0.002 +0.000 -0.004 -0.050 +0.105
# magnetic-moments Ag -0.000 -0.000 -0.000 -0.000 +0.000 +0.000 +0.000 +0.000 +0.000 +0.000 +0.000 +0.000 +0.000 +0.000 +0.000 +0.000 +0.000 +0.000 -0.000


Computing DFT-D3 correction:
# coordination-number Ag 5.417 6.772 8.387 5.418 8.999 9.042 9.037 9.074 9.065 9.074 9.059 9.078 9.075 9.084 9.052 9.052 9.010 8.392 6.776
# diagonal-C6 Ag 268.61 268.61 268.61 268.61 268.61 268.61 268.61 268.61 268.61 268.61 268.61 268.61 268.61 268.61 268.61 268.61 268.61 268.61 268.61
EvdW_6 =   -0.129302
EvdW_8 =   -0.170965
Shifting auxilliary hamiltonian by 0.000060 to set nElectrons=360.479630

-------- Electronic minimization -----------
	Linear fluid (dielectric constant: 78.4, screening length: 8.12261 Bohr) occupying 0.387842 of unit cell:	Completed after 27 iterations at t[s]:   7896.16
	FillingsUpdate:  mu: -0.208000000  nElectrons: 360.479630  magneticMoment: [ Abs: 0.00000  Tot: +0.00000 ]
ElecMinimize: Iter:   0  G: -2729.204042561890674  |grad|_K:  7.808e-05  alpha:  1.000e+00
	Linear fluid (dielectric constant: 78.4, screening length: 8.12261 Bohr) occupying 0.388182 of unit cell:	Completed after 30 iterations at t[s]:   7991.74
	Linear fluid (dielectric constant: 78.4, screening length: 8.12261 Bohr) occupying 0.387834 of unit cell:	Completed after 29 iterations at t[s]:   8025.70
	FillingsUpdate:  mu: -0.208000000  nElectrons: 360.210868  magneticMoment: [ Abs: 0.00000  Tot: -0.00000 ]
	SubspaceRotationAdjust: set factor to 0.0419
ElecMinimize: Iter:   1  G: -2729.516083579515453  |grad|_K:  3.483e-05  alpha:  2.098e-01  linmin: -1.608e-02  t[s]:   8074.54
	Linear fluid (dielectric constant: 78.4, screening length: 8.12261 Bohr) occupying 0.388062 of unit cell:	Completed after 24 iterations at t[s]:   8115.27
	Linear fluid (dielectric constant: 78.4, screening length: 8.12261 Bohr) occupying 0.388045 of unit cell:	Completed after 16 iterations at t[s]:   8147.06
	FillingsUpdate:  mu: -0.208000000  nElectrons: 360.444877  magneticMoment: [ Abs: 0.00000  Tot: +0.00000 ]
	SubspaceRotationAdjust: set factor to 0.0284
ElecMinimize: Iter:   2  G: -2729.572780133808010  |grad|_K:  1.179e-05  alpha:  1.968e-01  linmin: -6.842e-03  t[s]:   8195.64
	Linear fluid (dielectric constant: 78.4, screening length: 8.12261 Bohr) occupying 0.388038 of unit cell:	Completed after 19 iterations at t[s]:   8235.59
	Linear fluid (dielectric constant: 78.4, screening length: 8.12261 Bohr) occupying 0.388035 of unit cell:	Completed after 17 iterations at t[s]:   8267.53
	FillingsUpdate:  mu: -0.208000000  nElectrons: 360.449885  magneticMoment: [ Abs: 0.00000  Tot: +0.00000 ]
	SubspaceRotationAdjust: set factor to 0.0328
ElecMinimize: Iter:   3  G: -2729.581792298444725  |grad|_K:  4.969e-06  alpha:  2.747e-01  linmin:  3.705e-05  t[s]:   8316.07
	Linear fluid (dielectric constant: 78.4, screening length: 8.12261 Bohr) occupying 0.387971 of unit cell:	Completed after 18 iterations at t[s]:   8355.85
	Linear fluid (dielectric constant: 78.4, screening length: 8.12261 Bohr) occupying 0.387946 of unit cell:	Completed after 16 iterations at t[s]:   8387.61
	FillingsUpdate:  mu: -0.208000000  nElectrons: 360.445639  magneticMoment: [ Abs: 0.00000  Tot: -0.00000 ]
	SubspaceRotationAdjust: set factor to 0.0374
ElecMinimize: Iter:   4  G: -2729.583878630197432  |grad|_K:  3.006e-06  alpha:  3.782e-01  linmin: -9.125e-07  t[s]:   8436.30
	Linear fluid (dielectric constant: 78.4, screening length: 8.12261 Bohr) occupying 0.387845 of unit cell:	Completed after 17 iterations at t[s]:   8475.79
	Linear fluid (dielectric constant: 78.4, screening length: 8.12261 Bohr) occupying 0.387798 of unit cell:	Completed after 14 iterations at t[s]:   8507.32
	FillingsUpdate:  mu: -0.208000000  nElectrons: 360.465299  magneticMoment: [ Abs: 0.00000  Tot: -0.00000 ]
	SubspaceRotationAdjust: set factor to 0.0452
ElecMinimize: Iter:   5  G: -2729.584998153264678  |grad|_K:  2.572e-06  alpha:  5.537e-01  linmin: -6.841e-05  t[s]:   8555.99
	Linear fluid (dielectric constant: 78.4, screening length: 8.12261 Bohr) occupying 0.387587 of unit cell:	Completed after 15 iterations at t[s]:   8595.19
	Linear fluid (dielectric constant: 78.4, screening length: 8.12261 Bohr) occupying 0.387577 of unit cell:	Completed after 7 iterations at t[s]:   8625.32
	FillingsUpdate:  mu: -0.208000000  nElectrons: 360.470578  magneticMoment: [ Abs: 0.00000  Tot: -0.00000 ]
	SubspaceRotationAdjust: set factor to 0.0585
ElecMinimize: Iter:   6  G: -2729.585856892963875  |grad|_K:  2.678e-06  alpha:  5.792e-01  linmin: -2.486e-06  t[s]:   8674.01
	Linear fluid (dielectric constant: 78.4, screening length: 8.12261 Bohr) occupying 0.387306 of unit cell:	Completed after 15 iterations at t[s]:   8713.31
	Linear fluid (dielectric constant: 78.4, screening length: 8.12261 Bohr) occupying 0.387178 of unit cell:	Completed after 14 iterations at t[s]:   8744.62
	FillingsUpdate:  mu: -0.208000000  nElectrons: 360.472248  magneticMoment: [ Abs: 0.00000  Tot: -0.00000 ]
	SubspaceRotationAdjust: set factor to 0.0658
ElecMinimize: Iter:   7  G: -2729.587212929835459  |grad|_K:  3.798e-06  alpha:  8.461e-01  linmin: -3.621e-06  t[s]:   8793.20
	Linear fluid (dielectric constant: 78.4, screening length: 8.12261 Bohr) occupying 0.386563 of unit cell:	Completed after 19 iterations at t[s]:   8833.24
	Linear fluid (dielectric constant: 78.4, screening length: 8.12261 Bohr) occupying 0.386699 of unit cell:	Completed after 15 iterations at t[s]:   8864.87
	FillingsUpdate:  mu: -0.208000000  nElectrons: 360.505140  magneticMoment: [ Abs: 0.00000  Tot: -0.00000 ]
	SubspaceRotationAdjust: set factor to 0.0634
ElecMinimize: Iter:   8  G: -2729.589354363999064  |grad|_K:  4.733e-06  alpha:  6.666e-01  linmin: -1.294e-05  t[s]:   8913.46
	Linear fluid (dielectric constant: 78.4, screening length: 8.12261 Bohr) occupying 0.386183 of unit cell:	Completed after 18 iterations at t[s]:   8953.00
	Linear fluid (dielectric constant: 78.4, screening length: 8.12261 Bohr) occupying 0.386330 of unit cell:	Completed after 15 iterations at t[s]:   8984.62
	FillingsUpdate:  mu: -0.208000000  nElectrons: 360.475891  magneticMoment: [ Abs: 0.00000  Tot: -0.00000 ]
	SubspaceRotationAdjust: set factor to 0.0548
ElecMinimize: Iter:   9  G: -2729.591808262082395  |grad|_K:  4.513e-06  alpha:  4.855e-01  linmin:  4.917e-06  t[s]:   9033.49
	Linear fluid (dielectric constant: 78.4, screening length: 8.12261 Bohr) occupying 0.386378 of unit cell:	Completed after 16 iterations at t[s]:   9072.80
	Linear fluid (dielectric constant: 78.4, screening length: 8.12261 Bohr) occupying 0.386381 of unit cell:	Completed after 12 iterations at t[s]:   9103.99
	FillingsUpdate:  mu: -0.208000000  nElectrons: 360.482131  magneticMoment: [ Abs: 0.00000  Tot: -0.00000 ]
	SubspaceRotationAdjust: set factor to 0.0542
ElecMinimize: Iter:  10  G: -2729.594249623812175  |grad|_K:  3.733e-06  alpha:  5.371e-01  linmin: -2.885e-06  t[s]:   9152.85
	Linear fluid (dielectric constant: 78.4, screening length: 8.12261 Bohr) occupying 0.386740 of unit cell:	Completed after 16 iterations at t[s]:   9192.29
	Linear fluid (dielectric constant: 78.4, screening length: 8.12261 Bohr) occupying 0.386658 of unit cell:	Completed after 12 iterations at t[s]:   9223.51
	FillingsUpdate:  mu: -0.208000000  nElectrons: 360.480930  magneticMoment: [ Abs: 0.00000  Tot: -0.00000 ]
	SubspaceRotationAdjust: set factor to 0.0556
ElecMinimize: Iter:  11  G: -2729.595525879203251  |grad|_K:  2.423e-06  alpha:  4.095e-01  linmin: -7.131e-07  t[s]:   9272.01
	Linear fluid (dielectric constant: 78.4, screening length: 8.12261 Bohr) occupying 0.386918 of unit cell:	Completed after 16 iterations at t[s]:   9311.52
	Linear fluid (dielectric constant: 78.4, screening length: 8.12261 Bohr) occupying 0.386904 of unit cell:	Completed after 11 iterations at t[s]:   9342.59
	FillingsUpdate:  mu: -0.208000000  nElectrons: 360.472756  magneticMoment: [ Abs: 0.00000  Tot: -0.00000 ]
	SubspaceRotationAdjust: set factor to 0.0524
ElecMinimize: Iter:  12  G: -2729.596033428258579  |grad|_K:  1.528e-06  alpha:  3.868e-01  linmin:  4.218e-06  t[s]:   9391.14
	Linear fluid (dielectric constant: 78.4, screening length: 8.12261 Bohr) occupying 0.387084 of unit cell:	Completed after 14 iterations at t[s]:   9430.13
	Linear fluid (dielectric constant: 78.4, screening length: 8.12261 Bohr) occupying 0.387086 of unit cell:	Completed after 4 iterations at t[s]:   9460.57
	FillingsUpdate:  mu: -0.208000000  nElectrons: 360.477291  magneticMoment: [ Abs: 0.00000  Tot: -0.00000 ]
	SubspaceRotationAdjust: set factor to 0.0467
ElecMinimize: Iter:  13  G: -2729.596237322993147  |grad|_K:  9.847e-07  alpha:  3.912e-01  linmin: -1.036e-05  t[s]:   9509.62
	Linear fluid (dielectric constant: 78.4, screening length: 8.12261 Bohr) occupying 0.387193 of unit cell:	Completed after 14 iterations at t[s]:   9548.62
	Linear fluid (dielectric constant: 78.4, screening length: 8.12261 Bohr) occupying 0.387181 of unit cell:	Completed after 11 iterations at t[s]:   9579.46
	FillingsUpdate:  mu: -0.208000000  nElectrons: 360.473189  magneticMoment: [ Abs: 0.00001  Tot: +0.00000 ]
	SubspaceRotationAdjust: set factor to 0.0479
ElecMinimize: Iter:  14  G: -2729.596312688205217  |grad|_K:  6.072e-07  alpha:  3.475e-01  linmin:  1.747e-05  t[s]:   9628.20
	Linear fluid (dielectric constant: 78.4, screening length: 8.12261 Bohr) occupying 0.387234 of unit cell:	Completed after 9 iterations at t[s]:   9666.72
	Linear fluid (dielectric constant: 78.4, screening length: 8.12261 Bohr) occupying 0.387249 of unit cell:	Completed after 2 iterations at t[s]:   9696.39
	FillingsUpdate:  mu: -0.208000000  nElectrons: 360.472897  magneticMoment: [ Abs: 0.00001  Tot: +0.00001 ]
	SubspaceRotationAdjust: set factor to 0.0584
ElecMinimize: Iter:  15  G: -2729.596349293520234  |grad|_K:  4.212e-07  alpha:  4.445e-01  linmin: -3.988e-05  t[s]:   9744.96
	Linear fluid (dielectric constant: 78.4, screening length: 8.12261 Bohr) occupying 0.387288 of unit cell:	Completed after 12 iterations at t[s]:   9783.85
	Linear fluid (dielectric constant: 78.4, screening length: 8.12261 Bohr) occupying 0.387286 of unit cell:	Completed after 2 iterations at t[s]:   9813.51
	FillingsUpdate:  mu: -0.208000000  nElectrons: 360.473947  magneticMoment: [ Abs: 0.00001  Tot: +0.00001 ]
	SubspaceRotationAdjust: set factor to 0.0721
ElecMinimize: Iter:  16  G: -2729.596366011234750  |grad|_K:  3.480e-07  alpha:  4.215e-01  linmin: -3.296e-05  t[s]:   9862.24
	Linear fluid (dielectric constant: 78.4, screening length: 8.12261 Bohr) occupying 0.387306 of unit cell:	Completed after 12 iterations at t[s]:   9900.17
	Linear fluid (dielectric constant: 78.4, screening length: 8.12261 Bohr) occupying 0.387309 of unit cell:	Completed after 10 iterations at t[s]:   9929.50
	FillingsUpdate:  mu: -0.208000000  nElectrons: 360.472593  magneticMoment: [ Abs: 0.00001  Tot: +0.00001 ]
	SubspaceRotationAdjust: set factor to 0.0763
ElecMinimize: Iter:  17  G: -2729.596378904101584  |grad|_K:  3.500e-07  alpha:  4.755e-01  linmin: -7.701e-05  t[s]:   9976.96
	Linear fluid (dielectric constant: 78.4, screening length: 8.12261 Bohr) occupying 0.387328 of unit cell:	Completed after 14 iterations at t[s]:  10015.93
	Linear fluid (dielectric constant: 78.4, screening length: 8.12261 Bohr) occupying 0.387329 of unit cell:	Completed after 7 iterations at t[s]:  10046.39
	FillingsUpdate:  mu: -0.208000000  nElectrons: 360.475023  magneticMoment: [ Abs: 0.00001  Tot: +0.00001 ]
	SubspaceRotationAdjust: set factor to 0.0835
ElecMinimize: Iter:  18  G: -2729.596392550045039  |grad|_K:  3.855e-07  alpha:  4.961e-01  linmin: -1.398e-05  t[s]:  10094.74
	Linear fluid (dielectric constant: 78.4, screening length: 8.12261 Bohr) occupying 0.387340 of unit cell:	Completed after 15 iterations at t[s]:  10133.59
	Linear fluid (dielectric constant: 78.4, screening length: 8.12261 Bohr) occupying 0.387341 of unit cell:	Completed after 6 iterations at t[s]:  10163.87
	FillingsUpdate:  mu: -0.208000000  nElectrons: 360.473789  magneticMoment: [ Abs: 0.00001  Tot: +0.00001 ]
[...]
	FillingsUpdate:  mu: -0.208000000  nElectrons: 360.475130  magneticMoment: [ Abs: 0.00002  Tot: +0.00001 ]
	SubspaceRotationAdjust: set factor to 0.0921
ElecMinimize: Iter:  20  G: -2729.596430624082586  |grad|_K:  4.062e-07  alpha:  5.462e-01  linmin: -4.966e-06  t[s]:  10330.08
	Linear fluid (dielectric constant: 78.4, screening length: 8.12261 Bohr) occupying 0.387336 of unit cell:	Completed after 15 iterations at t[s]:  10369.25
	Linear fluid (dielectric constant: 78.4, screening length: 8.12261 Bohr) occupying 0.387337 of unit cell:	Completed after 12 iterations at t[s]:  10400.41
	FillingsUpdate:  mu: -0.208000000  nElectrons: 360.472993  magneticMoment: [ Abs: 0.00002  Tot: +0.00000 ]
	SubspaceRotationAdjust: set factor to 0.0884
ElecMinimize: Iter:  21  G: -2729.596447548549804  |grad|_K:  3.804e-07  alpha:  4.579e-01  linmin:  8.916e-06  t[s]:  10449.11
	Linear fluid (dielectric constant: 78.4, screening length: 8.12261 Bohr) occupying 0.387330 of unit cell:	Completed after 13 iterations at t[s]:  10488.19
	Linear fluid (dielectric constant: 78.4, screening length: 8.12261 Bohr) occupying 0.387332 of unit cell:	Completed after 12 iterations at t[s]:  10519.17
	FillingsUpdate:  mu: -0.208000000  nElectrons: 360.474793  magneticMoment: [ Abs: 0.00001  Tot: +0.00000 ]
	SubspaceRotationAdjust: set factor to 0.0729
ElecMinimize: Iter:  22  G: -2729.596458324629566  |grad|_K:  3.310e-07  alpha:  3.340e-01  linmin:  5.882e-07  t[s]:  10567.84
	Linear fluid (dielectric constant: 78.4, screening length: 8.12261 Bohr) occupying 0.387323 of unit cell:	Completed after 14 iterations at t[s]:  10606.83
	Linear fluid (dielectric constant: 78.4, screening length: 8.12261 Bohr) occupying 0.387324 of unit cell:	Completed after 10 iterations at t[s]:  10637.71
	FillingsUpdate:  mu: -0.208000000  nElectrons: 360.472729  magneticMoment: [ Abs: 0.00001  Tot: +0.00000 ]
	SubspaceRotationAdjust: set factor to 0.0638
ElecMinimize: Iter:  23  G: -2729.596465612810789  |grad|_K:  2.388e-07  alpha:  2.977e-01  linmin:  5.648e-06  t[s]:  10686.36
	Linear fluid (dielectric constant: 78.4, screening length: 8.12261 Bohr) occupying 0.387321 of unit cell:	Completed after 11 iterations at t[s]:  10725.13
	Linear fluid (dielectric constant: 78.4, screening length: 8.12261 Bohr) occupying 0.387321 of unit cell:	Completed after 7 iterations at t[s]:  10755.53
	FillingsUpdate:  mu: -0.208000000  nElectrons: 360.472822  magneticMoment: [ Abs: 0.00001  Tot: +0.00000 ]
	SubspaceRotationAdjust: set factor to 0.0772
ElecMinimize: Iter:  24  G: -2729.596470513633903  |grad|_K:  1.724e-07  alpha:  3.849e-01  linmin: -2.099e-06  t[s]:  10804.12
	Linear fluid (dielectric constant: 78.4, screening length: 8.12261 Bohr) occupying 0.387320 of unit cell:	Completed after 10 iterations at t[s]:  10842.53
	Linear fluid (dielectric constant: 78.4, screening length: 8.12261 Bohr) occupying 0.387320 of unit cell:	Completed after 2 iterations at t[s]:  10872.41
	FillingsUpdate:  mu: -0.208000000  nElectrons: 360.472783  magneticMoment: [ Abs: 0.00001  Tot: +0.00000 ]
	SubspaceRotationAdjust: set factor to 0.0966
ElecMinimize: Iter:  25  G: -2729.596473237894315  |grad|_K:  1.400e-07  alpha:  4.099e-01  linmin: -1.865e-05  t[s]:  10920.95
	Linear fluid (dielectric constant: 78.4, screening length: 8.12261 Bohr) occupying 0.387319 of unit cell:	Completed after 12 iterations at t[s]:  10959.80
	Linear fluid (dielectric constant: 78.4, screening length: 8.12261 Bohr) occupying 0.387319 of unit cell:	Completed after 0 iterations at t[s]:  10989.00
	FillingsUpdate:  mu: -0.208000000  nElectrons: 360.471739  magneticMoment: [ Abs: 0.00001  Tot: +0.00000 ]
	SubspaceRotationAdjust: set factor to 0.0843
ElecMinimize: Iter:  26  G: -2729.596474985554778  |grad|_K:  1.479e-07  alpha:  3.979e-01  linmin:  1.117e-04  t[s]:  11037.49
	Linear fluid (dielectric constant: 78.4, screening length: 8.12261 Bohr) occupying 0.387322 of unit cell:	Completed after 12 iterations at t[s]:  11076.46
	Linear fluid (dielectric constant: 78.4, screening length: 8.12261 Bohr) occupying 0.387321 of unit cell:	Completed after 10 iterations at t[s]:  11107.21
	FillingsUpdate:  mu: -0.208000000  nElectrons: 360.472400  magneticMoment: [ Abs: 0.00001  Tot: +0.00000 ]
	SubspaceRotationAdjust: set factor to 0.0852
ElecMinimize: Iter:  27  G: -2729.596476288159010  |grad|_K:  1.233e-07  alpha:  2.716e-01  linmin: -2.820e-05  t[s]:  11156.08
	Linear fluid (dielectric constant: 78.4, screening length: 8.12261 Bohr) occupying 0.387322 of unit cell:	Completed after 9 iterations at t[s]:  11194.40
	Linear fluid (dielectric constant: 78.4, screening length: 8.12261 Bohr) occupying 0.387323 of unit cell:	Completed after 7 iterations at t[s]:  11224.88
	FillingsUpdate:  mu: -0.208000000  nElectrons: 360.471953  magneticMoment: [ Abs: 0.00001  Tot: +0.00000 ]
	SubspaceRotationAdjust: set factor to 0.106
ElecMinimize: Iter:  28  G: -2729.596477828087245  |grad|_K:  1.118e-07  alpha:  4.529e-01  linmin:  3.034e-05  t[s]:  11273.77
	Linear fluid (dielectric constant: 78.4, screening length: 8.12261 Bohr) occupying 0.387324 of unit cell:	Completed after 9 iterations at t[s]:  11311.97
	Linear fluid (dielectric constant: 78.4, screening length: 8.12261 Bohr) occupying 0.387324 of unit cell:	Completed after 2 iterations at t[s]:  11341.94
	FillingsUpdate:  mu: -0.208000000  nElectrons: 360.471768  magneticMoment: [ Abs: 0.00001  Tot: +0.00000 ]
	SubspaceRotationAdjust: set factor to 0.123
ElecMinimize: Iter:  29  G: -2729.596479194756284  |grad|_K:  1.095e-07  alpha:  4.910e-01  linmin: -1.542e-05  t[s]:  11390.30
	Linear fluid (dielectric constant: 78.4, screening length: 8.12261 Bohr) occupying 0.387326 of unit cell:	Completed after 13 iterations at t[s]:  11429.50
	Linear fluid (dielectric constant: 78.4, screening length: 8.12261 Bohr) occupying 0.387325 of unit cell:	Completed after 10 iterations at t[s]:  11460.39
	FillingsUpdate:  mu: -0.208000000  nElectrons: 360.472552  magneticMoment: [ Abs: 0.00001  Tot: +0.00000 ]
	SubspaceRotationAdjust: set factor to 0.113
ElecMinimize: Iter:  30  G: -2729.596480136945956  |grad|_K:  1.217e-07  alpha:  3.502e-01  linmin:  3.247e-05  t[s]:  11508.95
	Linear fluid (dielectric constant: 78.4, screening length: 8.12261 Bohr) occupying 0.387325 of unit cell:	Completed after 13 iterations at t[s]:  11547.93
	Linear fluid (dielectric constant: 78.4, screening length: 8.12261 Bohr) occupying 0.387325 of unit cell:	Completed after 12 iterations at t[s]:  11579.08
	FillingsUpdate:  mu: -0.208000000  nElectrons: 360.472048  magneticMoment: [ Abs: 0.00001  Tot: +0.00000 ]
	SubspaceRotationAdjust: set factor to 0.0887
ElecMinimize: Iter:  31  G: -2729.596480809797868  |grad|_K:  9.202e-08  alpha:  2.032e-01  linmin:  7.971e-06  t[s]:  11627.83
	Linear fluid (dielectric constant: 78.4, screening length: 8.12261 Bohr) occupying 0.387325 of unit cell:	Completed after 9 iterations at t[s]:  11666.07
	Linear fluid (dielectric constant: 78.4, screening length: 8.12261 Bohr) occupying 0.387325 of unit cell:	Completed after 7 iterations at t[s]:  11696.25
	FillingsUpdate:  mu: -0.208000000  nElectrons: 360.472633  magneticMoment: [ Abs: 0.00001  Tot: +0.00000 ]
	SubspaceRotationAdjust: set factor to 0.0997
ElecMinimize: Iter:  32  G: -2729.596481507990120  |grad|_K:  6.653e-08  alpha:  3.698e-01  linmin:  1.687e-05  t[s]:  11744.86
	Linear fluid (dielectric constant: 78.4, screening length: 8.12261 Bohr) occupying 0.387325 of unit cell:	Completed after 7 iterations at t[s]:  11782.99
	Linear fluid (dielectric constant: 78.4, screening length: 8.12261 Bohr) occupying 0.387325 of unit cell:	Completed after 1 iterations at t[s]:  11812.49
	FillingsUpdate:  mu: -0.208000000  nElectrons: 360.472978  magneticMoment: [ Abs: 0.00001  Tot: +0.00000 ]
	SubspaceRotationAdjust: set factor to 0.117
ElecMinimize: Iter:  33  G: -2729.596481904044140  |grad|_K:  5.260e-08  alpha:  4.010e-01  linmin: -7.921e-05  t[s]:  11861.06
	Linear fluid (dielectric constant: 78.4, screening length: 8.12261 Bohr) occupying 0.387323 of unit cell:	Completed after 10 iterations at t[s]:  11899.80
	Linear fluid (dielectric constant: 78.4, screening length: 8.12261 Bohr) occupying 0.387323 of unit cell:	Completed after 2 iterations at t[s]:  11929.57
	FillingsUpdate:  mu: -0.208000000  nElectrons: 360.472862  magneticMoment: [ Abs: 0.00001  Tot: +0.00001 ]
	SubspaceRotationAdjust: set factor to 0.108
ElecMinimize: Iter:  34  G: -2729.596482120112341  |grad|_K:  5.192e-08  alpha:  3.471e-01  linmin:  4.743e-04  t[s]:  11978.19
	Linear fluid (dielectric constant: 78.4, screening length: 8.12261 Bohr) occupying 0.387321 of unit cell:	Completed after 12 iterations at t[s]:  12017.26
	Linear fluid (dielectric constant: 78.4, screening length: 8.12261 Bohr) occupying 0.387322 of unit cell:	Completed after 9 iterations at t[s]:  12047.53
	FillingsUpdate:  mu: -0.208000000  nElectrons: 360.473221  magneticMoment: [ Abs: 0.00001  Tot: +0.00001 ]
	SubspaceRotationAdjust: set factor to 0.095
ElecMinimize: Iter:  35  G: -2729.596482231056143  |grad|_K:  4.218e-08  alpha:  1.948e-01  linmin: -1.243e-05  t[s]:  12096.48
	Linear fluid (dielectric constant: 78.4, screening length: 8.12261 Bohr) occupying 0.387321 of unit cell:	Completed after 6 iterations at t[s]:  12134.23
	Linear fluid (dielectric constant: 78.4, screening length: 8.12261 Bohr) occupying 0.387320 of unit cell:	Completed after 6 iterations at t[s]:  12164.65
	FillingsUpdate:  mu: -0.208000000  nElectrons: 360.473150  magneticMoment: [ Abs: 0.00001  Tot: +0.00001 ]
	SubspaceRotationAdjust: set factor to 0.126
ElecMinimize: Iter:  36  G: -2729.596482365648171  |grad|_K:  3.413e-08  alpha:  3.413e-01  linmin:  1.430e-04  t[s]:  12213.28
	Linear fluid (dielectric constant: 78.4, screening length: 8.12261 Bohr) occupying 0.387318 of unit cell:	Completed after 7 iterations at t[s]:  12251.58
	Linear fluid (dielectric constant: 78.4, screening length: 8.12261 Bohr) occupying 0.387318 of unit cell:	Completed after 0 iterations at t[s]:  12280.87
	FillingsUpdate:  mu: -0.208000000  nElectrons: 360.473066  magneticMoment: [ Abs: 0.00008  Tot: -0.00001 ]
	SubspaceRotationAdjust: set factor to 0.115
ElecMinimize: Iter:  37  G: -2729.596482459386152  |grad|_K:  3.526e-08  alpha:  3.625e-01  linmin: -5.876e-04  t[s]:  12329.37
	Linear fluid (dielectric constant: 78.4, screening length: 8.12261 Bohr) occupying 0.387317 of unit cell:	Completed after 10 iterations at t[s]:  12367.86
	Linear fluid (dielectric constant: 78.4, screening length: 8.12261 Bohr) occupying 0.387317 of unit cell:	Completed after 8 iterations at t[s]:  12398.62
	FillingsUpdate:  mu: -0.208000000  nElectrons: 360.473283  magneticMoment: [ Abs: 0.00009  Tot: -0.00002 ]
	SubspaceRotationAdjust: set factor to 0.103
ElecMinimize: Iter:  38  G: -2729.596482528965680  |grad|_K:  3.879e-08  alpha:  2.332e-01  linmin:  9.759e-05  t[s]:  12447.28
ElecMinimize: Converged (|Delta G|<1.000000e-07 for 2 iters).
Setting wave functions to eigenvectors of Hamiltonian
Converging empty states (this may take a while): |deigs|: 6.711e-07

Computing DFT-D3 correction:
# coordination-number Ag 5.417 6.772 8.387 5.418 8.999 9.042 9.037 9.074 9.065 9.074 9.059 9.078 9.075 9.084 9.052 9.052 9.010 8.392 6.776
# diagonal-C6 Ag 268.61 268.61 268.61 268.61 268.61 268.61 268.61 268.61 268.61 268.61 268.61 268.61 268.61 268.61 268.61 268.61 268.61 268.61 268.61
EvdW_6 =   -0.129302
EvdW_8 =   -0.170965

# Ionic positions in cartesian coordinates:
ion Ag   0.003836185072706   7.521231073902149  66.014229867243415 1
ion Ag   2.713150291960813   3.085252580451901  64.384742369273496 1
ion Ag   2.715655102841264  10.627414676060674  62.560988706149168 1
ion Ag   2.709069848207414  11.755314787653202  34.229592591563829 1
ion Ag   0.002557419473835   6.217398038008727  60.812652304801958 1
ion Ag   2.711639371748542   1.858496107614402  58.986449781622440 1
ion Ag   2.711667317609213   9.297590130784448  57.212722365531725 1
ion Ag   0.003486792451234   4.965943505941323  55.472649882956880 1
ion Ag   2.712118629611231   0.613155444764586  53.667617461561512 1
ion Ag   2.709681883906823   8.075023125054672  51.885641783319770 1
ion Ag   0.001194343198725   3.729798958845919  50.118383100708229 1
ion Ag  -0.001654152473061  11.197989249548508  48.350758365477532 1
ion Ag   2.709165806151439   6.847297669520160  46.569945448921125 1
ion Ag  -0.004437280914140   2.494992357719306  44.765683352291894 1
ion Ag  -0.003103847991474   9.977028663688902  43.028670945272886 1
ion Ag   2.710041327784531   5.604003838851139  41.256429751925758 1
ion Ag  -0.004969270423108   1.243243394356511  39.432045762583250 1
ion Ag  -0.002964680775541   8.649638107527975  37.684016521112810 1
ion Ag   2.706114912559549   4.375054289705515  35.862382637682188 1

# Forces in Cartesian coordinates:
force Ag   0.000007488308108   0.000205197499586  -0.000335446438630 1
force Ag   0.000016938432812  -0.000400393749630   0.000347148504437 1
force Ag  -0.000002434057795   0.000382543979535   0.000578668411402 1
force Ag  -0.000006212729103  -0.000209420001103   0.000320173729356 1
force Ag   0.000014760094121   0.000152726249034  -0.001113194761996 1
force Ag   0.000020844319771  -0.000255667362676  -0.000217252331338 1
force Ag   0.000024854539556   0.000404795266670   0.000272337967162 1
force Ag  -0.000039099890686  -0.000092617952587  -0.000661938426731 1
force Ag   0.000026782719487   0.000033036536699   0.000033005937089 1
force Ag   0.000042661629453  -0.000257427185401   0.000385528432985 1
force Ag   0.000002306040408  -0.000015737245808   0.000039904780835 1
force Ag  -0.000039417239653   0.000295778368621  -0.000235035813587 1
force Ag  -0.000020621821028  -0.000078419330508   0.000088221261648 1
force Ag   0.000042095665618   0.000101741380328   0.000761131829632 1
force Ag  -0.000024615701400  -0.000386012624514  -0.000285732811807 1
force Ag  -0.000015957534509   0.000253155671868   0.000098389875279 1
force Ag  -0.000016846373193  -0.000087982862744   0.001020337265421 1
force Ag   0.000011780655251  -0.000420107865695  -0.000709160474950 1
force Ag  -0.000007976900588   0.000474399281310  -0.000379981943600 1

# Energy components:
   A_diel =        0.1413317823951317
   Eewald =    15499.8847300769812136
       EH =    18088.1706577059085248
     Eloc =   -36833.4216276270308299
      Enl =       74.9970685405574216
     EvdW =       -0.3002677370840627
      Exc =     -275.2808819673741141
 Exc_core =        3.9552379843158989
       KE =      637.2351144240244594
  MuShift =        0.0440869627975416
-------------------------------------
     Etot =    -2804.5745498545111332
       TS =        0.0003755822289311
-------------------------------------
        F =    -2804.5749254367401591
      muN =      -74.9784429077746779
-------------------------------------
        G =    -2729.5964825289656801


Dumping 'jdft.fillings' ... done
Dumping 'jdft.wfns' ... done
Dumping 'jdft.fluidState' ... done
Dumping 'jdft.ionpos' ... done
Dumping 'jdft.lattice' ... done
Dumping 'jdft.eigenvals' ... done
Dumping 'jdft.eigStats' ... 
	eMin: -3.589446 at state 28 ( [ +0.000000 +0.000000 +0.000000 ] spin -1 )
	HOMO: -0.208478 at state 36 ( [ +0.181818 +0.000000 +0.000000 ] spin -1 )
	mu  : -0.208000
	LUMO: -0.207367 at state 23 ( [ +0.454545 +0.000000 +0.000000 ] spin 1 )
	eMax: +0.189962 at state 0 ( [ +0.000000 +0.000000 +0.000000 ] spin 1 )
	HOMO-LUMO gap: +0.001111
	Optical gap  : +0.005057 at state 54 ( [ +0.454545 -0.400000 +0.000000 ] spin -1 )
Dumping 'jdft.Ecomponents' ... done
IonicMinimize: Iter:   2  G: -2729.596482528965680  |grad|_K:  3.377e-04  alpha:  1.000e+00  linmin:  7.729e-01  t[s]:  12618.75
IonicMinimize: Converged (|Delta G|<1.000000e-04 for 2 iters).

#--- Lowdin population analysis ---
# oxidation-state Ag +0.255 +0.102 -0.050 +0.255 -0.006 +0.000 +0.003 +0.002 +0.002 +0.003 +0.005 +0.003 +0.002 +0.002 +0.003 +0.000 -0.006 -0.050 +0.102
# magnetic-moments Ag -0.000 -0.000 -0.000 -0.000 -0.000 -0.000 -0.000 -0.000 -0.000 -0.000 -0.000 -0.000 -0.000 -0.000 -0.000 -0.000 -0.000 -0.000 -0.000


Dumping 'jdft.n_up' ... done
Dumping 'jdft.n_dn' ... done
Dumping 'jdft.tau_up' ... done
Dumping 'jdft.tau_dn' ... done
Dumping 'jdft.eigenvals' ... done
Dumping 'jdft.eigStats' ... 
	eMin: -3.589446 at state 28 ( [ +0.000000 +0.000000 +0.000000 ] spin -1 )
	HOMO: -0.208478 at state 36 ( [ +0.181818 +0.000000 +0.000000 ] spin -1 )
	mu  : -0.208000
	LUMO: -0.207367 at state 23 ( [ +0.454545 +0.000000 +0.000000 ] spin 1 )
	eMax: +0.189962 at state 0 ( [ +0.000000 +0.000000 +0.000000 ] spin 1 )
	HOMO-LUMO gap: +0.001111
	Optical gap  : +0.005057 at state 54 ( [ +0.454545 -0.400000 +0.000000 ] spin -1 )
Dumping 'jdft.kPts' ... done
Dumping 'jdft.kMap' ... done
Dumping 'jdft.dosUp' ... done.
Dumping 'jdft.dosDn' ... done.
End date and time: Sat Sep 10 15:17:26 2022  (Duration: 0-3:31:33.13)
Done!

PROFILER:             augmentDensityGrid     5.980530 +/-     0.135997 s,  193 calls,   1154.242343 s total
PROFILER:         augmentDensityGridGrad     0.298941 +/-     0.092302 s,  104 calls,     31.089844 s total
PROFILER:        augmentDensitySpherical     0.002508 +/-     0.000158 s,  386 calls,      0.968066 s total
PROFILER:    augmentDensitySphericalGrad     0.002896 +/-     0.000660 s,  236 calls,      0.683423 s total
PROFILER:                 augmentOverlap     1.865182 +/-     0.151793 s,  826 calls,   1540.640319 s total
PROFILER:                     diagouterI     5.694731 +/-     0.191953 s,  392 calls,   2232.334381 s total
PROFILER:              EdensityAndVscloc     3.607260 +/-     1.294580 s,  193 calls,    696.201151 s total
PROFILER:                     EnlAndGrad     0.010785 +/-     0.001533 s,  424 calls,      4.572852 s total
PROFILER:            ExCorrCommunication     0.041218 +/-     0.180666 s, 1215 calls,     50.080236 s total
PROFILER:               ExCorrFunctional     0.005329 +/-     0.000930 s,  209 calls,      1.113830 s total
PROFILER:                    ExCorrTotal     0.309473 +/-     0.393637 s,  209 calls,     64.679815 s total
PROFILER:                   Idag_DiagV_I    10.950799 +/-     1.778945 s,  226 calls,   2474.880563 s total
PROFILER:                    initWeights     2.023475 +/-     0.000000 s,    1 calls,      2.023475 s total
PROFILER:                    inv(matrix)     0.007312 +/-     0.000496 s,  380 calls,      2.778589 s total
PROFILER:            matrix::diagonalize     0.021935 +/-     0.012634 s,  608 calls,     13.336751 s total
PROFILER:                    matrix::set     0.000013 +/-     0.000015 s, 12708 calls,      0.165583 s total
PROFILER:            orthoMatrix(matrix)     0.003802 +/-     0.002559 s,  402 calls,      1.528526 s total
PROFILER:     RadialFunctionR::transform     0.066377 +/-     0.477853 s,   57 calls,      3.783510 s total
PROFILER:                    reduceKmesh     0.000761 +/-     0.000000 s,    1 calls,      0.000761 s total
PROFILER:   VanDerWaalsD3::energyAndGrad     0.012078 +/-     0.001081 s,   11 calls,      0.132863 s total
PROFILER:               WavefunctionDrag    18.165719 +/-     3.937239 s,    5 calls,     90.828593 s total
PROFILER:                            Y*M     0.639704 +/-     0.154913 s, 2689 calls,   1720.164915 s total
PROFILER:                          Y1^Y2     0.665625 +/-     0.177196 s, 1742 calls,   1159.519518 s total

MEMUSAGE:                   ColumnBundle     0.628580 GB
MEMUSAGE:        complexScalarFieldTilde     0.010815 GB
MEMUSAGE:                    IndexArrays     0.015255 GB
MEMUSAGE:                         matrix     0.035496 GB
MEMUSAGE:                           misc     0.010882 GB
MEMUSAGE:                    ScalarField     0.078406 GB
MEMUSAGE:               ScalarFieldTilde     0.057183 GB
MEMUSAGE:                          Total     0.719275 GB
