
*************** JDFTx 1.6.0  ***************

Start date and time: Mon Feb 28 13:58:40 2022
Executable /projects/musgravc/apps/jdftx-1.6.1/build/jdftx with command-line: -i in
Running on hosts (process indices):  shas0259.rc.int.colorado.edu (0-23)
Divided in process groups (process indices):  0 (0)  1 (1)  2 (2)  3 (3)  4 (4)  5 (5)  6 (6)  7 (7)  8 (8)  9 (9)  10 (10)  11 (11)  12 (12)  13 (13)  14 (14)  15 (15)  16 (16)  17 (17)  18 (18)  19 (19)  20 (20)  21 (21)  22 (22)  23 (23)
Resource initialization completed at t[s]:      0.00
Run totals: 24 processes, 24 threads, 0 GPUs


Input parsed successfully to the following command list (including defaults):

basis kpoint-dependent
converge-empty-states yes
coords-type Cartesian
core-overlap-check none
coulomb-interaction Periodic
davidson-band-ratio 1.1
density-of-states Etol 1.000000e-06 Esigma 1.000000e-03 \
		Complete \
	Total \
	OrthoOrbital Ni 1   s \
	OrthoOrbital Ni 1   p \
	OrthoOrbital Ni 1   px \
	OrthoOrbital Ni 1   py \
	OrthoOrbital Ni 1   pz \
	OrthoOrbital Ni 1   d \
	OrthoOrbital Ni 1   dxy \
	OrthoOrbital Ni 1   dyz \
	OrthoOrbital Ni 1   dz2 \
	OrthoOrbital Ni 1   dxz \
	OrthoOrbital Ni 1   dx2-y2 \
	OrthoOrbital Ni 2   s \
	OrthoOrbital Ni 2   p \
	OrthoOrbital Ni 2   px \
	OrthoOrbital Ni 2   py \
	OrthoOrbital Ni 2   pz \
	OrthoOrbital Ni 2   d \
	OrthoOrbital Ni 2   dxy \
	OrthoOrbital Ni 2   dyz \
	OrthoOrbital Ni 2   dz2 \
	OrthoOrbital Ni 2   dxz \
	OrthoOrbital Ni 2   dx2-y2 \
	OrthoOrbital Ni 3   s \
	OrthoOrbital Ni 3   p \
	OrthoOrbital Ni 3   px \
	OrthoOrbital Ni 3   py \
	OrthoOrbital Ni 3   pz \
	OrthoOrbital Ni 3   d \
	OrthoOrbital Ni 3   dxy \
	OrthoOrbital Ni 3   dyz \
	OrthoOrbital Ni 3   dz2 \
	OrthoOrbital Ni 3   dxz \
	OrthoOrbital Ni 3   dx2-y2 \
	OrthoOrbital Ni 4   s \
	OrthoOrbital Ni 4   p \
	OrthoOrbital Ni 4   px \
	OrthoOrbital Ni 4   py \
	OrthoOrbital Ni 4   pz \
	OrthoOrbital Ni 4   d \
	OrthoOrbital Ni 4   dxy \
	OrthoOrbital Ni 4   dyz \
	OrthoOrbital Ni 4   dz2 \
	OrthoOrbital Ni 4   dxz \
	OrthoOrbital Ni 4   dx2-y2 \
	OrthoOrbital Ni 5   s \
	OrthoOrbital Ni 5   p \
	OrthoOrbital Ni 5   px \
	OrthoOrbital Ni 5   py \
	OrthoOrbital Ni 5   pz \
	OrthoOrbital Ni 5   d \
	OrthoOrbital Ni 5   dxy \
	OrthoOrbital Ni 5   dyz \
	OrthoOrbital Ni 5   dz2 \
	OrthoOrbital Ni 5   dxz \
	OrthoOrbital Ni 5   dx2-y2 \
	OrthoOrbital Ni 6   s \
	OrthoOrbital Ni 6   p \
	OrthoOrbital Ni 6   px \
	OrthoOrbital Ni 6   py \
	OrthoOrbital Ni 6   pz \
	OrthoOrbital Ni 6   d \
	OrthoOrbital Ni 6   dxy \
	OrthoOrbital Ni 6   dyz \
	OrthoOrbital Ni 6   dz2 \
	OrthoOrbital Ni 6   dxz \
	OrthoOrbital Ni 6   dx2-y2 \
	OrthoOrbital Ni 7   s \
	OrthoOrbital Ni 7   p \
	OrthoOrbital Ni 7   px \
	OrthoOrbital Ni 7   py \
	OrthoOrbital Ni 7   pz \
	OrthoOrbital Ni 7   d \
	OrthoOrbital Ni 7   dxy \
	OrthoOrbital Ni 7   dyz \
	OrthoOrbital Ni 7   dz2 \
	OrthoOrbital Ni 7   dxz \
	OrthoOrbital Ni 7   dx2-y2 \
	OrthoOrbital Ni 8   s \
	OrthoOrbital Ni 8   p \
	OrthoOrbital Ni 8   px \
	OrthoOrbital Ni 8   py \
	OrthoOrbital Ni 8   pz \
	OrthoOrbital Ni 8   d \
	OrthoOrbital Ni 8   dxy \
	OrthoOrbital Ni 8   dyz \
	OrthoOrbital Ni 8   dz2 \
	OrthoOrbital Ni 8   dxz \
	OrthoOrbital Ni 8   dx2-y2 \
	OrthoOrbital Au 1   s \
	OrthoOrbital Au 1   p \
	OrthoOrbital Au 1   px \
	OrthoOrbital Au 1   py \
	OrthoOrbital Au 1   pz \
	OrthoOrbital Au 1   d \
	OrthoOrbital Au 1   dxy \
	OrthoOrbital Au 1   dyz \
	OrthoOrbital Au 1   dz2 \
	OrthoOrbital Au 1   dxz \
	OrthoOrbital Au 1   dx2-y2 \
	OrthoOrbital Au 2   s \
	OrthoOrbital Au 2   p \
	OrthoOrbital Au 2   px \
	OrthoOrbital Au 2   py \
	OrthoOrbital Au 2   pz \
	OrthoOrbital Au 2   d \
	OrthoOrbital Au 2   dxy \
	OrthoOrbital Au 2   dyz \
	OrthoOrbital Au 2   dz2 \
	OrthoOrbital Au 2   dxz \
	OrthoOrbital Au 2   dx2-y2 \
	OrthoOrbital Au 3   s \
	OrthoOrbital Au 3   p \
	OrthoOrbital Au 3   px \
	OrthoOrbital Au 3   py \
	OrthoOrbital Au 3   pz \
	OrthoOrbital Au 3   d \
	OrthoOrbital Au 3   dxy \
	OrthoOrbital Au 3   dyz \
	OrthoOrbital Au 3   dz2 \
	OrthoOrbital Au 3   dxz \
	OrthoOrbital Au 3   dx2-y2 \
	OrthoOrbital Au 4   s \
	OrthoOrbital Au 4   p \
	OrthoOrbital Au 4   px \
	OrthoOrbital Au 4   py \
	OrthoOrbital Au 4   pz \
	OrthoOrbital Au 4   d \
	OrthoOrbital Au 4   dxy \
	OrthoOrbital Au 4   dyz \
	OrthoOrbital Au 4   dz2 \
	OrthoOrbital Au 4   dxz \
	OrthoOrbital Au 4   dx2-y2 \
	OrthoOrbital Au 5   s \
	OrthoOrbital Au 5   p \
	OrthoOrbital Au 5   px \
	OrthoOrbital Au 5   py \
	OrthoOrbital Au 5   pz \
	OrthoOrbital Au 5   d \
	OrthoOrbital Au 5   dxy \
	OrthoOrbital Au 5   dyz \
	OrthoOrbital Au 5   dz2 \
	OrthoOrbital Au 5   dxz \
	OrthoOrbital Au 5   dx2-y2 \
	OrthoOrbital Au 6   s \
	OrthoOrbital Au 6   p \
	OrthoOrbital Au 6   px \
	OrthoOrbital Au 6   py \
	OrthoOrbital Au 6   pz \
	OrthoOrbital Au 6   d \
	OrthoOrbital Au 6   dxy \
	OrthoOrbital Au 6   dyz \
	OrthoOrbital Au 6   dz2 \
	OrthoOrbital Au 6   dxz \
	OrthoOrbital Au 6   dx2-y2 \
	OrthoOrbital Au 7   s \
	OrthoOrbital Au 7   p \
	OrthoOrbital Au 7   px \
	OrthoOrbital Au 7   py \
	OrthoOrbital Au 7   pz \
	OrthoOrbital Au 7   d \
	OrthoOrbital Au 7   dxy \
	OrthoOrbital Au 7   dyz \
	OrthoOrbital Au 7   dz2 \
	OrthoOrbital Au 7   dxz \
	OrthoOrbital Au 7   dx2-y2 \
	OrthoOrbital Au 8   s \
	OrthoOrbital Au 8   p \
	OrthoOrbital Au 8   px \
	OrthoOrbital Au 8   py \
	OrthoOrbital Au 8   pz \
	OrthoOrbital Au 8   d \
	OrthoOrbital Au 8   dxy \
	OrthoOrbital Au 8   dyz \
	OrthoOrbital Au 8   dz2 \
	OrthoOrbital Au 8   dxz \
	OrthoOrbital Au 8   dx2-y2 \
	OrthoOrbital Au 9   s \
	OrthoOrbital Au 9   p \
	OrthoOrbital Au 9   px \
	OrthoOrbital Au 9   py \
	OrthoOrbital Au 9   pz \
	OrthoOrbital Au 9   d \
	OrthoOrbital Au 9   dxy \
	OrthoOrbital Au 9   dyz \
	OrthoOrbital Au 9   dz2 \
	OrthoOrbital Au 9   dxz \
	OrthoOrbital Au 9   dx2-y2 \
	OrthoOrbital Au 10   s \
	OrthoOrbital Au 10   p \
	OrthoOrbital Au 10   px \
	OrthoOrbital Au 10   py \
	OrthoOrbital Au 10   pz \
	OrthoOrbital Au 10   d \
	OrthoOrbital Au 10   dxy \
	OrthoOrbital Au 10   dyz \
	OrthoOrbital Au 10   dz2 \
	OrthoOrbital Au 10   dxz \
	OrthoOrbital Au 10   dx2-y2 \
	OrthoOrbital Au 11   s \
	OrthoOrbital Au 11   p \
	OrthoOrbital Au 11   px \
	OrthoOrbital Au 11   py \
	OrthoOrbital Au 11   pz \
	OrthoOrbital Au 11   d \
	OrthoOrbital Au 11   dxy \
	OrthoOrbital Au 11   dyz \
	OrthoOrbital Au 11   dz2 \
	OrthoOrbital Au 11   dxz \
	OrthoOrbital Au 11   dx2-y2 \
	OrthoOrbital Au 12   s \
	OrthoOrbital Au 12   p \
	OrthoOrbital Au 12   px \
	OrthoOrbital Au 12   py \
	OrthoOrbital Au 12   pz \
	OrthoOrbital Au 12   d \
	OrthoOrbital Au 12   dxy \
	OrthoOrbital Au 12   dyz \
	OrthoOrbital Au 12   dz2 \
	OrthoOrbital Au 12   dxz \
	OrthoOrbital Au 12   dx2-y2 \
	OrthoOrbital Au 13   s \
	OrthoOrbital Au 13   p \
	OrthoOrbital Au 13   px \
	OrthoOrbital Au 13   py \
	OrthoOrbital Au 13   pz \
	OrthoOrbital Au 13   d \
	OrthoOrbital Au 13   dxy \
	OrthoOrbital Au 13   dyz \
	OrthoOrbital Au 13   dz2 \
	OrthoOrbital Au 13   dxz \
	OrthoOrbital Au 13   dx2-y2 \
	OrthoOrbital Au 14   s \
	OrthoOrbital Au 14   p \
	OrthoOrbital Au 14   px \
	OrthoOrbital Au 14   py \
	OrthoOrbital Au 14   pz \
	OrthoOrbital Au 14   d \
	OrthoOrbital Au 14   dxy \
	OrthoOrbital Au 14   dyz \
	OrthoOrbital Au 14   dz2 \
	OrthoOrbital Au 14   dxz \
	OrthoOrbital Au 14   dx2-y2 \
	OrthoOrbital Au 15   s \
	OrthoOrbital Au 15   p \
	OrthoOrbital Au 15   px \
	OrthoOrbital Au 15   py \
	OrthoOrbital Au 15   pz \
	OrthoOrbital Au 15   d \
	OrthoOrbital Au 15   dxy \
	OrthoOrbital Au 15   dyz \
	OrthoOrbital Au 15   dz2 \
	OrthoOrbital Au 15   dxz \
	OrthoOrbital Au 15   dx2-y2 \
	OrthoOrbital Au 16   s \
	OrthoOrbital Au 16   p \
	OrthoOrbital Au 16   px \
	OrthoOrbital Au 16   py \
	OrthoOrbital Au 16   pz \
	OrthoOrbital Au 16   d \
	OrthoOrbital Au 16   dxy \
	OrthoOrbital Au 16   dyz \
	OrthoOrbital Au 16   dz2 \
	OrthoOrbital Au 16   dxz \
	OrthoOrbital Au 16   dx2-y2 \
	OrthoOrbital Au 17   s \
	OrthoOrbital Au 17   p \
	OrthoOrbital Au 17   px \
	OrthoOrbital Au 17   py \
	OrthoOrbital Au 17   pz \
	OrthoOrbital Au 17   d \
	OrthoOrbital Au 17   dxy \
	OrthoOrbital Au 17   dyz \
	OrthoOrbital Au 17   dz2 \
	OrthoOrbital Au 17   dxz \
	OrthoOrbital Au 17   dx2-y2 \
	OrthoOrbital Au 18   s \
	OrthoOrbital Au 18   p \
	OrthoOrbital Au 18   px \
	OrthoOrbital Au 18   py \
	OrthoOrbital Au 18   pz \
	OrthoOrbital Au 18   d \
	OrthoOrbital Au 18   dxy \
	OrthoOrbital Au 18   dyz \
	OrthoOrbital Au 18   dz2 \
	OrthoOrbital Au 18   dxz \
	OrthoOrbital Au 18   dx2-y2 \
	OrthoOrbital Au 19   s \
	OrthoOrbital Au 19   p \
	OrthoOrbital Au 19   px \
	OrthoOrbital Au 19   py \
	OrthoOrbital Au 19   pz \
	OrthoOrbital Au 19   d \
	OrthoOrbital Au 19   dxy \
	OrthoOrbital Au 19   dyz \
	OrthoOrbital Au 19   dz2 \
	OrthoOrbital Au 19   dxz \
	OrthoOrbital Au 19   dx2-y2 \
	OrthoOrbital Au 20   s \
	OrthoOrbital Au 20   p \
	OrthoOrbital Au 20   px \
	OrthoOrbital Au 20   py \
	OrthoOrbital Au 20   pz \
	OrthoOrbital Au 20   d \
	OrthoOrbital Au 20   dxy \
	OrthoOrbital Au 20   dyz \
	OrthoOrbital Au 20   dz2 \
	OrthoOrbital Au 20   dxz \
	OrthoOrbital Au 20   dx2-y2 \
	OrthoOrbital Au 21   s \
	OrthoOrbital Au 21   p \
	OrthoOrbital Au 21   px \
	OrthoOrbital Au 21   py \
	OrthoOrbital Au 21   pz \
	OrthoOrbital Au 21   d \
	OrthoOrbital Au 21   dxy \
	OrthoOrbital Au 21   dyz \
	OrthoOrbital Au 21   dz2 \
	OrthoOrbital Au 21   dxz \
	OrthoOrbital Au 21   dx2-y2 \
	OrthoOrbital Au 22   s \
	OrthoOrbital Au 22   p \
	OrthoOrbital Au 22   px \
	OrthoOrbital Au 22   py \
	OrthoOrbital Au 22   pz \
	OrthoOrbital Au 22   d \
	OrthoOrbital Au 22   dxy \
	OrthoOrbital Au 22   dyz \
	OrthoOrbital Au 22   dz2 \
	OrthoOrbital Au 22   dxz \
	OrthoOrbital Au 22   dx2-y2 \
	OrthoOrbital Au 23   s \
	OrthoOrbital Au 23   p \
	OrthoOrbital Au 23   px \
	OrthoOrbital Au 23   py \
	OrthoOrbital Au 23   pz \
	OrthoOrbital Au 23   d \
	OrthoOrbital Au 23   dxy \
	OrthoOrbital Au 23   dyz \
	OrthoOrbital Au 23   dz2 \
	OrthoOrbital Au 23   dxz \
	OrthoOrbital Au 23   dx2-y2 \
	OrthoOrbital Au 24   s \
	OrthoOrbital Au 24   p \
	OrthoOrbital Au 24   px \
	OrthoOrbital Au 24   py \
	OrthoOrbital Au 24   pz \
	OrthoOrbital Au 24   d \
	OrthoOrbital Au 24   dxy \
	OrthoOrbital Au 24   dyz \
	OrthoOrbital Au 24   dz2 \
	OrthoOrbital Au 24   dxz \
	OrthoOrbital Au 24   dx2-y2 \
	OrthoOrbital C 1   s \
	OrthoOrbital C 1   p \
	OrthoOrbital C 1   px \
	OrthoOrbital C 1   py \
	OrthoOrbital C 1   pz \
	OrthoOrbital O 1   s \
	OrthoOrbital O 1   p \
	OrthoOrbital O 1   px \
	OrthoOrbital O 1   py \
	OrthoOrbital O 1   pz
dump End ElecDensity KEdensity BandEigs EigStats RhoAtom DOS Kpoints
dump Ionic State IonicPositions Lattice EigStats Ecomponents
dump 
dump 
dump 
dump 
dump 
dump 
dump 
dump 
dump-name jdft.$VAR
elec-cutoff 20
elec-eigen-algo Davidson
elec-ex-corr gga-PBE
elec-initial-magnetization 0.000000 no
elec-n-bands 251
elec-smearing Fermi 0.001
electronic-minimize  \
	dirUpdateScheme      FletcherReeves \
	linminMethod         DirUpdateRecommended \
	nIterations          100 \
	history              15 \
	knormThreshold       0 \
	energyDiffThreshold  1e-07 \
	nEnergyDiff          2 \
	alphaTstart          1 \
	alphaTmin            1e-10 \
	updateTestStepSize   yes \
	alphaTreduceFactor   0.1 \
	alphaTincreaseFactor 3 \
	nAlphaAdjustMax      3 \
	wolfeEnergy          0.0001 \
	wolfeGradient        0.9 \
	fdTest               no
exchange-regularization WignerSeitzTruncated
fluid LinearPCM 298.000000 1.013250
fluid-anion F- 0.5 MeanFieldLJ \
	epsBulk 1 \
	pMol 0 \
	epsInf 1 \
	Pvap 0 \
	sigmaBulk 0 \
	Rvdw 2.24877 \
	Res 0 \
	tauNuc 343133
fluid-cation Na+ 0.5 MeanFieldLJ \
	epsBulk 1 \
	pMol 0 \
	epsInf 1 \
	Pvap 0 \
	sigmaBulk 0 \
	Rvdw 2.19208 \
	Res 0 \
	tauNuc 343133
fluid-ex-corr lda-TF lda-PZ
fluid-gummel-loop 10 1.000000e-05
fluid-minimize  \
	dirUpdateScheme      PolakRibiere \
	linminMethod         DirUpdateRecommended \
	nIterations          400 \
	history              15 \
	knormThreshold       1e-11 \
	energyDiffThreshold  0 \
	nEnergyDiff          2 \
	alphaTstart          1 \
	alphaTmin            1e-10 \
	updateTestStepSize   yes \
	alphaTreduceFactor   0.1 \
	alphaTincreaseFactor 3 \
	nAlphaAdjustMax      6 \
	wolfeEnergy          0.0001 \
	wolfeGradient        0.9 \
	fdTest               no
fluid-solvent H2O 55.338 ScalarEOS \
	epsBulk 78.4 \
	pMol 0.92466 \
	epsInf 1.77 \
	Pvap 1.06736e-10 \
	sigmaBulk 4.62e-05 \
	Rvdw 2.61727 \
	Res 1.42 \
	tauNuc 343133 \
	poleEl 15 7 1
forces-output-coords Positions
ion Ni   0.000000000000000   0.000000000000000   5.529229000000000 0
ion Ni   0.000000000000000   7.459552000000000   5.529229000000000 0
ion Ni   7.459552000000000   0.000000000000000   5.529229000000000 0
ion Ni   7.459552000000000   7.459552000000000   5.529229000000000 0
ion Ni   0.000000000000000   0.000000000000000  12.874440999999997 0
ion Ni   0.000000000000000   7.459552000000000  12.874440999999997 0
ion Ni   7.459552000000000   0.000000000000000  12.874440999999997 0
ion Ni   7.459552000000000   7.459552000000000  12.874440999999997 0
ion Au   0.000000000000000   3.729776000000000   1.785862000000000 0
ion Au   0.000000000000000  11.189328000000000   1.785862000000000 0
ion Au   7.459552000000000   3.729776000000000   1.785862000000000 0
ion Au   7.459552000000000  11.189328000000000   1.785862000000000 0
ion Au   3.729776000000000   3.729776000000000   5.578730999999999 0
ion Au   3.729776000000000  11.189328000000000   5.578730999999999 0
ion Au  11.189328000000000   3.729776000000000   5.578730999999999 0
ion Au  11.189328000000000  11.189328000000000   5.578730999999999 0
ion Au   3.729776000000000   0.000000000000000   1.785862000000000 0
ion Au   3.729776000000000   7.459552000000000   1.785862000000000 0
ion Au  11.189328000000000   0.000000000000000   1.785862000000000 0
ion Au  11.189328000000000   7.459552000000000   1.785862000000000 0
ion Au   0.000000000000000   3.729776000000000   9.365556999999999 0
ion Au   0.000000000000000  11.189328000000000   9.365556999999999 0
ion Au   7.459552000000000   3.729776000000000   9.365556999999999 0
ion Au   7.459552000000000  11.189328000000000   9.365556999999999 0
ion Au   3.729776000000000   3.729776000000000  13.391163999999998 0
ion Au   3.729776000000000  11.189328000000000  13.391163999999998 0
ion Au  11.189328000000000   3.729776000000000  13.391163999999998 0
ion Au  11.189328000000000  11.189328000000000  13.391163999999998 0
ion Au   3.729776000000000   0.000000000000000   9.365556999999999 0
ion Au   3.729776000000000   7.459552000000000   9.365556999999999 0
ion Au  11.189328000000000   0.000000000000000   9.365556999999999 0
ion Au  11.189328000000000   7.459552000000000   9.365556999999999 0
ion C   7.459552000000000   3.729776000000000  13.968443999999998 1  Linear 0 0 1
ion O   7.519645999999999   3.729776000000000  16.123821999999997 1  Linear 0 0 1
ion-species /projects/musgravc/apps/jdftx-1.6.0/build/pseudopotentials/GBRV_v1.5/$ID_pbe_v1.uspp
ion-species /projects/musgravc/apps/jdftx-1.6.0/build/pseudopotentials/GBRV_v1.5/$ID_pbe_v1.2.uspp
ion-species /projects/musgravc/apps/jdftx-1.6.0/build/pseudopotentials/GBRV_v1.5/$ID_pbe_v1.4.uspp
ion-species /projects/musgravc/apps/jdftx-1.6.0/build/pseudopotentials/GBRV_v1.5/$ID_pbe_v1.5.uspp
ion-width Ecut
ionic-minimize  \
	dirUpdateScheme      L-BFGS \
	linminMethod         DirUpdateRecommended \
	nIterations          100 \
	history              15 \
	knormThreshold       0.0001 \
	energyDiffThreshold  1e-06 \
	nEnergyDiff          2 \
	alphaTstart          1 \
	alphaTmin            1e-10 \
	updateTestStepSize   yes \
	alphaTreduceFactor   0.1 \
	alphaTincreaseFactor 3 \
	nAlphaAdjustMax      3 \
	wolfeEnergy          0.0001 \
	wolfeGradient        0.9 \
	fdTest               no
kpoint   0.000000000000   0.000000000000   0.000000000000  1.00000000000000
kpoint-folding 4 4 1 
latt-move-scale 0 0 0
latt-scale 1 1 1 
lattice  \
	  14.919104000000001    0.000000000000000    0.000000000000000  \
	   0.000000000000000   14.919104000000001    0.000000000000000  \
	   0.000000000000000    0.000000000000000   44.757313000000003 
lattice-minimize  \
	dirUpdateScheme      L-BFGS \
	linminMethod         DirUpdateRecommended \
	nIterations          0 \
	history              15 \
	knormThreshold       0 \
	energyDiffThreshold  1e-06 \
	nEnergyDiff          2 \
	alphaTstart          1 \
	alphaTmin            1e-10 \
	updateTestStepSize   yes \
	alphaTreduceFactor   0.1 \
	alphaTincreaseFactor 3 \
	nAlphaAdjustMax      3 \
	wolfeEnergy          0.0001 \
	wolfeGradient        0.9 \
	fdTest               no
lcao-params 30 1e-06 0.001
pcm-variant CANDLE
spintype z-spin
subspace-rotation-factor 1 yes
symmetries automatic
symmetry-threshold 0.0001
van-der-waals D3



---------- Setting up symmetries ----------

Found 16 point-group symmetries of the bravais lattice
Found 2 space-group symmetries with basis
Applied RMS atom displacement 0 bohrs to make symmetries exact.

---------- Initializing the Grid ----------
R = 
[      14.9191            0            0  ]
[            0      14.9191            0  ]
[            0            0      44.7573  ]
unit cell volume = 9962.07
G =
[    0.42115          0          0  ]
[          0    0.42115          0  ]
[          0          0   0.140383  ]
Minimum fftbox size, Smin = [  64  64  184  ]
Chosen fftbox size, S = [  64  64  192  ]

---------- Exchange Correlation functional ----------
Initalized PBE GGA exchange.
Initalized PBE GGA correlation.

---------- Setting up pseudopotentials ----------
Width of ionic core gaussian charges (only for fluid interactions / plotting) set to 0.397384

Reading pseudopotential file '/projects/musgravc/apps/jdftx-1.6.0/build/pseudopotentials/GBRV_v1.5/ni_pbe_v1.4.uspp':
  Title: Ni.  Created by USPP 7.3.6 on 1-4-15
  Reference state energy: -170.398381.  18 valence electrons in orbitals:
    |300>  occupation: 2  eigenvalue: -4.804705
    |310>  occupation: 6  eigenvalue: -3.347751
    |320>  occupation: 8  eigenvalue: -1.042415
    |400>  occupation: 0  eigenvalue: -0.795539
    |410>  occupation: 0  eigenvalue: -0.551375
  lMax: 2  lLocal: 3  QijEcut: 6.5
  6 projectors sampled on a log grid with 611 points:
    l: 0  eig: -4.804708  rCut: 1.44
    l: 0  eig: -0.795541  rCut: 1.44
    l: 1  eig: -3.347753  rCut: 1.55
    l: 1  eig: 0.500000  rCut: 1.55
    l: 2  eig: -1.042418  rCut: 1.5
    l: 2  eig: -0.450000  rCut: 1.5
  Partial core density with radius 0.65
  Transforming core density to a uniform radial grid of dG=0.02 with 1173 points.
  Transforming local potential to a uniform radial grid of dG=0.02 with 1173 points.
  Transforming nonlocal projectors to a uniform radial grid of dG=0.02 with 432 points.
  Transforming density augmentations to a uniform radial grid of dG=0.02 with 1173 points.
  Transforming atomic orbitals to a uniform radial grid of dG=0.02 with 432 points.
  Core radius for overlap checks: 1.55 bohrs.

Reading pseudopotential file '/projects/musgravc/apps/jdftx-1.6.0/build/pseudopotentials/GBRV_v1.5/au_pbe_v1.uspp':
  Title: Au.  Created by USPP 7.3.6 on 14-9-2013
  Reference state energy: -57.375295.  11 valence electrons in orbitals:
    |520>  occupation: 10  eigenvalue: -0.252742
    |600>  occupation: 1  eigenvalue: -0.211744
    |610>  occupation: 0  eigenvalue: -0.028291
  lMax: 3  lLocal: -1  QijEcut: 5
  7 projectors sampled on a log grid with 755 points:
    l: 0  eig: -0.211744  rCut: 2.3
    l: 0  eig: 0.500000  rCut: 2.3
    l: 1  eig: -0.028291  rCut: 2.35
    l: 1  eig: 0.850000  rCut: 2.35
    l: 2  eig: -0.252741  rCut: 2.1
    l: 2  eig: 1.000000  rCut: 2.1
    l: 3  eig: 0.000000  rCut: 2.5
  Partial core density with radius 1
  Transforming core density to a uniform radial grid of dG=0.02 with 1173 points.
  Transforming local potential to a uniform radial grid of dG=0.02 with 1173 points.
  Transforming nonlocal projectors to a uniform radial grid of dG=0.02 with 432 points.
  Transforming density augmentations to a uniform radial grid of dG=0.02 with 1173 points.
  Transforming atomic orbitals to a uniform radial grid of dG=0.02 with 432 points.
  Core radius for overlap checks: 2.50 bohrs.

Reading pseudopotential file '/projects/musgravc/apps/jdftx-1.6.0/build/pseudopotentials/GBRV_v1.5/c_pbe_v1.2.uspp':
  Title: C.  Created by USPP 7.3.6 on 3-2-2014
  Reference state energy: -5.406344.  4 valence electrons in orbitals:
    |200>  occupation: 2  eigenvalue: -0.504890
    |210>  occupation: 2  eigenvalue: -0.194356
  lMax: 1  lLocal: 2  QijEcut: 5
  4 projectors sampled on a log grid with 503 points:
    l: 0  eig: -0.504890  rCut: 1.3
    l: 0  eig: 0.000000  rCut: 1.3
    l: 1  eig: -0.194357  rCut: 1.3
    l: 1  eig: 0.000000  rCut: 1.3
  Partial core density with radius 1.1
  Transforming core density to a uniform radial grid of dG=0.02 with 1173 points.
  Transforming local potential to a uniform radial grid of dG=0.02 with 1173 points.
  Transforming nonlocal projectors to a uniform radial grid of dG=0.02 with 432 points.
  Transforming density augmentations to a uniform radial grid of dG=0.02 with 1173 points.
  Transforming atomic orbitals to a uniform radial grid of dG=0.02 with 432 points.
  Core radius for overlap checks: 1.30 bohrs.

Reading pseudopotential file '/projects/musgravc/apps/jdftx-1.6.0/build/pseudopotentials/GBRV_v1.5/o_pbe_v1.2.uspp':
  Title: O.  Created by USPP 7.3.6 on 3-2-2014
  Reference state energy: -15.894388.  6 valence electrons in orbitals:
    |200>  occupation: 2  eigenvalue: -0.878823
    |210>  occupation: 4  eigenvalue: -0.332131
  lMax: 2  lLocal: 2  QijEcut: 6
  5 projectors sampled on a log grid with 511 points:
    l: 0  eig: -0.878823  rCut: 1.25
    l: 0  eig: 0.000000  rCut: 1.25
    l: 1  eig: -0.332132  rCut: 1.25
    l: 1  eig: 0.000000  rCut: 1.25
    l: 2  eig: 1.000000  rCut: 1.25
  Partial core density with radius 0.7
  Transforming core density to a uniform radial grid of dG=0.02 with 1173 points.
  Transforming local potential to a uniform radial grid of dG=0.02 with 1173 points.
  Transforming nonlocal projectors to a uniform radial grid of dG=0.02 with 432 points.
  Transforming density augmentations to a uniform radial grid of dG=0.02 with 1173 points.
  Transforming atomic orbitals to a uniform radial grid of dG=0.02 with 432 points.
  Core radius for overlap checks: 1.25 bohrs.

Initialized 4 species with 34 total atoms.

Folded 1 k-points by 4x4x1 to 16 k-points.

---------- Setting up k-points, bands, fillings ----------
Adding inversion symmetry to k-mesh for non-inversion-symmetric unit cell.
Reduced to 9 k-points under symmetry. 
Computing the number of bands and number of electrons
Calculating initial fillings.
nElectrons: 418.000000   nBands: 251   nStates: 18

----- Setting up reduced wavefunction bases (one per k-point) -----
average nbasis = 42558.188 , ideal nbasis = 42558.712

----- Initializing Supercell corresponding to k-point mesh -----
Lattice vector linear combinations in supercell:
[   4   0   0  ]
[   0   4   0  ]
[   0   0   1  ]
Supercell lattice vectors:
[  59.6764  0  0  ]
[  0  59.6764  0  ]
[  0  0  44.7573  ]

Initializing DFT-D3 calculator:
	Parameters set for gga-PBE functional
	s6:  1.000  s_r6:  1.217
	s8:  0.722  s_r8:  1.000
	Per-atom parameters loaded for:
	Ni:  sqrtQ[a0]:  5.285  Rcov[a0]:  1.871  CN: [ 0.00 1.79 6.55 6.29 ]
	Au:  sqrtQ[a0]:  5.707  Rcov[a0]:  2.135  CN: [ 0.00 0.98 ]
	 C:  sqrtQ[a0]:  3.105  Rcov[a0]:  1.417  CN: [ 0.00 0.99 2.00 3.00 3.98 ]
	 O:  sqrtQ[a0]:  2.594  Rcov[a0]:  1.191  CN: [ 0.00 0.99 1.99 ]

Initializing DFT-D2 calculator for fluid / solvation:
	Ni:  C6:  187.33 Eh-a0^6  R0: 2.952 a0
	Au:  C6:  815.23 Eh-a0^6  R0: 3.326 a0 (WARNING: beyond Grimme's data set)
	 C:  C6:   30.35 Eh-a0^6  R0: 2.744 a0
	 O:  C6:   12.14 Eh-a0^6  R0: 2.536 a0

---------- Setting up ewald sum ----------
Optimum gaussian width for ewald sums = 4.769213 bohr.
Real space sum over 847 unit cells with max indices [  5  5  3  ]
Reciprocal space sum over 5577 terms with max indices [  6  6  16  ]

Computing DFT-D3 correction:
# coordination-number Ni 6.407 6.407 6.407 6.407 4.843 4.843 5.785 5.785
# coordination-number Au 5.867 5.867 5.867 5.867 8.415 8.414 8.415 8.414 5.867 5.867 5.867 5.867 8.412 8.411 9.029 8.412 6.137 4.849 6.209 4.849 8.417 8.417 8.417 8.417
# coordination-number C 5.389
# coordination-number O 1.812
# diagonal-C6 Ni 135.19 135.19 135.19 135.19 141.33 141.33 138.90 138.90
# diagonal-C6 Au 317.16 317.16 317.16 317.16 317.16 317.16 317.16 317.16 317.16 317.16 317.16 317.16 317.16 317.16 317.16 317.16 317.16 317.16 317.16 317.16 317.16 317.16 317.16 317.16
# diagonal-C6 C 18.21
# diagonal-C6 O 10.53
EvdW_6 =   -0.204530
EvdW_8 =   -0.386726

---------- Allocating electronic variables ----------
Initializing wave functions:  linear combination of atomic orbitals
Ni pseudo-atom occupations:   s ( 2 0 )  p ( 6 0 )  d ( 10 )
Au pseudo-atom occupations:   s ( 1 )  p ( 0 )  d ( 10 )
C pseudo-atom occupations:   s ( 2 )  p ( 2 )
O pseudo-atom occupations:   s ( 2 )  p ( 4 )
	FillingsUpdate:  mu: -1.575840025  nElectrons: 418.000000  magneticMoment: [ Abs: 0.01178  Tot: -0.00455 ]
LCAOMinimize: Iter:   0  F: -1972.4013546834353292  |grad|_K:  2.972e-02  alpha:  1.000e+00
LCAOMinimize: 	Step increased F by 9.774459e+02, reducing alpha to 2.821282e-02.
	FillingsUpdate:  mu: -0.916038221  nElectrons: 418.000000  magneticMoment: [ Abs: 0.00777  Tot: +0.00175 ]
LCAOMinimize: Iter:   1  F: -2008.5387872391463588  |grad|_K:  1.913e-02  alpha:  2.821e-02  linmin: -1.083e-01  cgtest:  8.802e-01  t[s]:    124.56
LCAOMinimize: Encountered beta<0, resetting CG.
LCAOMinimize: 	Predicted alpha/alphaT>3.000000, increasing alphaT to 8.463846e-02.
LCAOMinimize: 	Wrong curvature in test step, increasing alphaT to 2.539154e-01.
	FillingsUpdate:  mu: +0.650586550  nElectrons: 418.000000  magneticMoment: [ Abs: 0.00711  Tot: +0.00015 ]
LCAOMinimize: Iter:   2  F: -2115.8901703854753578  |grad|_K:  4.558e-02  alpha: -5.432e-02  linmin: -1.329e-02  cgtest: -1.332e-01  t[s]:    171.47
LCAOMinimize: 	Step increased F by 7.389296e+02, reducing alpha to 4.496881e-02.
LCAOMinimize: 	Step increased F by 6.455587e+02, reducing alpha to 4.496881e-03.
LCAOMinimize: 	Step increased F by 6.240135e+01, reducing alpha to 4.496881e-04.
LCAOMinimize: 	Step failed to reduce F after 3 attempts. Quitting step.
LCAOMinimize: 	Undoing step.
LCAOMinimize: 	Step failed: resetting search direction.
	FillingsUpdate:  mu: +3.227646661  nElectrons: 418.000000  magneticMoment: [ Abs: 0.00419  Tot: -0.00054 ]
LCAOMinimize: Iter:   3  F: -2070.7134035021881573  |grad|_K:  1.024e-01  alpha:  4.497e-04
LCAOMinimize: 	Step increased F by 1.901084e+03, reducing alpha to 4.510995e-02.
LCAOMinimize: 	Step increased F by 8.807056e+01, reducing alpha to 4.510995e-03.
	FillingsUpdate:  mu: +2.316326804  nElectrons: 418.000000  magneticMoment: [ Abs: 0.00394  Tot: +0.00013 ]
LCAOMinimize: Iter:   4  F: -2153.9994808054652822  |grad|_K:  6.134e-02  alpha:  4.511e-03  linmin: -9.667e-02  cgtest:  1.093e+00  t[s]:    383.90
LCAOMinimize: Encountered beta<0, resetting CG.
LCAOMinimize: 	Predicted alpha/alphaT>3.000000, increasing alphaT to 1.353299e-02.
	FillingsUpdate:  mu: +0.838099831  nElectrons: 418.000000  magneticMoment: [ Abs: 0.00686  Tot: +0.00420 ]
LCAOMinimize: Iter:   5  F: -2204.2828098544964632  |grad|_K:  2.720e-02  alpha:  1.392e-02  linmin:  6.983e-02  cgtest: -5.598e-02  t[s]:    432.39
	FillingsUpdate:  mu: +0.484118492  nElectrons: 418.000000  magneticMoment: [ Abs: 0.00458  Tot: +0.00023 ]
LCAOMinimize: Iter:   6  F: -2217.0118741685669193  |grad|_K:  1.382e-02  alpha:  2.618e-02  linmin:  1.435e-02  cgtest: -3.853e-01  t[s]:    470.43
	FillingsUpdate:  mu: +0.234703744  nElectrons: 418.000000  magneticMoment: [ Abs: 0.00388  Tot: +0.00009 ]
LCAOMinimize: Iter:   7  F: -2221.7934022460744927  |grad|_K:  3.247e-03  alpha:  2.947e-02  linmin: -3.609e-02  cgtest: -7.694e-02  t[s]:    508.28
	FillingsUpdate:  mu: +0.179218169  nElectrons: 418.000000  magneticMoment: [ Abs: 0.00367  Tot: +0.00017 ]
LCAOMinimize: Iter:   8  F: -2222.1674944613318985  |grad|_K:  2.555e-03  alpha:  3.177e-02  linmin: -1.385e-02  cgtest: -7.525e-02  t[s]:    546.89
	FillingsUpdate:  mu: +0.186741899  nElectrons: 418.000000  magneticMoment: [ Abs: 0.00352  Tot: +0.00014 ]
LCAOMinimize: Iter:   9  F: -2222.4982697699447272  |grad|_K:  1.810e-03  alpha:  4.521e-02  linmin: -1.138e-02  cgtest:  1.113e-01  t[s]:    584.66
	FillingsUpdate:  mu: +0.107550542  nElectrons: 418.000000  magneticMoment: [ Abs: 0.00350  Tot: -0.00003 ]
LCAOMinimize: Iter:  10  F: -2222.6861338203507330  |grad|_K:  1.469e-03  alpha:  5.457e-02  linmin: -4.268e-04  cgtest:  1.914e-02  t[s]:    622.55
	FillingsUpdate:  mu: +0.047160501  nElectrons: 418.000000  magneticMoment: [ Abs: 0.00368  Tot: +0.00029 ]
LCAOMinimize: Iter:  11  F: -2222.7966723437884866  |grad|_K:  1.310e-03  alpha:  5.211e-02  linmin:  5.683e-03  cgtest: -3.010e-02  t[s]:    660.35
	FillingsUpdate:  mu: +0.069730153  nElectrons: 418.000000  magneticMoment: [ Abs: 0.00363  Tot: +0.00033 ]
LCAOMinimize: Iter:  12  F: -2222.8401823096987755  |grad|_K:  1.294e-03  alpha:  2.920e-02  linmin:  1.482e-03  cgtest:  7.910e-02  t[s]:    698.35
	FillingsUpdate:  mu: +0.081307786  nElectrons: 418.000000  magneticMoment: [ Abs: 0.00339  Tot: +0.00022 ]
LCAOMinimize: Iter:  13  F: -2222.9330099680610147  |grad|_K:  5.699e-04  alpha:  5.670e-02  linmin: -7.714e-03  cgtest: -2.639e-02  t[s]:    736.29
	FillingsUpdate:  mu: +0.085032816  nElectrons: 418.000000  magneticMoment: [ Abs: 0.00342  Tot: +0.00037 ]
LCAOMinimize: Iter:  14  F: -2222.9466743711486743  |grad|_K:  4.979e-04  alpha:  4.113e-02  linmin:  4.872e-06  cgtest: -4.816e-02  t[s]:    774.21
	FillingsUpdate:  mu: +0.096455418  nElectrons: 418.000000  magneticMoment: [ Abs: 0.00339  Tot: +0.00038 ]
LCAOMinimize: Iter:  15  F: -2222.9567755784928522  |grad|_K:  4.806e-04  alpha:  4.182e-02  linmin: -6.838e-04  cgtest:  3.304e-02  t[s]:    811.88
	FillingsUpdate:  mu: +0.076536790  nElectrons: 418.000000  magneticMoment: [ Abs: 0.00339  Tot: +0.00035 ]
LCAOMinimize: Iter:  16  F: -2222.9635794653499943  |grad|_K:  2.360e-04  alpha:  3.011e-02  linmin: -2.489e-04  cgtest: -4.855e-02  t[s]:    850.61
	FillingsUpdate:  mu: +0.074241996  nElectrons: 418.000000  magneticMoment: [ Abs: 0.00349  Tot: +0.00049 ]
LCAOMinimize: Iter:  17  F: -2222.9684318557101506  |grad|_K:  2.490e-04  alpha:  8.983e-02  linmin:  1.062e-03  cgtest: -4.464e-02  t[s]:    888.64
	FillingsUpdate:  mu: +0.070861601  nElectrons: 418.000000  magneticMoment: [ Abs: 0.00350  Tot: +0.00047 ]
LCAOMinimize: Iter:  18  F: -2222.9701377809919904  |grad|_K:  1.200e-04  alpha:  2.818e-02  linmin: -1.744e-03  cgtest:  3.874e-02  t[s]:    926.42
	FillingsUpdate:  mu: +0.068270411  nElectrons: 418.000000  magneticMoment: [ Abs: 0.00351  Tot: +0.00047 ]
LCAOMinimize: Iter:  19  F: -2222.9704366877513166  |grad|_K:  6.575e-05  alpha:  2.103e-02  linmin:  3.344e-04  cgtest: -3.193e-02  t[s]:    964.23
LCAOMinimize: 	Predicted alpha/alphaT>3.000000, increasing alphaT to 6.307837e-02.
	FillingsUpdate:  mu: +0.072221660  nElectrons: 418.000000  magneticMoment: [ Abs: 0.00356  Tot: +0.00051 ]
LCAOMinimize: Iter:  20  F: -2222.9707326895563710  |grad|_K:  5.564e-05  alpha:  7.034e-02  linmin: -4.431e-04  cgtest:  9.267e-03  t[s]:   1012.69
	FillingsUpdate:  mu: +0.071683529  nElectrons: 418.000000  magneticMoment: [ Abs: 0.00363  Tot: +0.00057 ]
LCAOMinimize: Iter:  21  F: -2222.9709634829114293  |grad|_K:  6.803e-05  alpha:  7.639e-02  linmin:  4.350e-04  cgtest: -1.464e-03  t[s]:   1050.46
	FillingsUpdate:  mu: +0.068819382  nElectrons: 418.000000  magneticMoment: [ Abs: 0.00371  Tot: +0.00063 ]
LCAOMinimize: Iter:  22  F: -2222.9711159515704821  |grad|_K:  4.637e-05  alpha:  3.390e-02  linmin: -1.748e-04  cgtest:  1.660e-02  t[s]:   1088.42
	FillingsUpdate:  mu: +0.068727134  nElectrons: 418.000000  magneticMoment: [ Abs: 0.00374  Tot: +0.00066 ]
LCAOMinimize: Iter:  23  F: -2222.9711636097185874  |grad|_K:  2.027e-05  alpha:  2.264e-02  linmin: -2.215e-06  cgtest: -1.266e-02  t[s]:   1126.62
LCAOMinimize: 	Predicted alpha/alphaT>3.000000, increasing alphaT to 6.790810e-02.
	FillingsUpdate:  mu: +0.069764254  nElectrons: 418.000000  magneticMoment: [ Abs: 0.00384  Tot: +0.00074 ]
LCAOMinimize: Iter:  24  F: -2222.9712125492392261  |grad|_K:  1.338e-05  alpha:  1.224e-01  linmin:  1.934e-04  cgtest:  1.794e-05  t[s]:   1175.21
	FillingsUpdate:  mu: +0.069741706  nElectrons: 418.000000  magneticMoment: [ Abs: 0.00387  Tot: +0.00077 ]
LCAOMinimize: Iter:  25  F: -2222.9712192626316209  |grad|_K:  1.315e-05  alpha:  3.858e-02  linmin:  5.458e-05  cgtest:  1.013e-03  t[s]:   1213.12
	FillingsUpdate:  mu: +0.070117138  nElectrons: 418.000000  magneticMoment: [ Abs: 0.00394  Tot: +0.00083 ]
LCAOMinimize: Iter:  26  F: -2222.9712271291659818  |grad|_K:  1.360e-05  alpha:  4.674e-02  linmin:  5.818e-06  cgtest:  6.215e-05  t[s]:   1250.98
	FillingsUpdate:  mu: +0.069918590  nElectrons: 418.000000  magneticMoment: [ Abs: 0.00401  Tot: +0.00089 ]
LCAOMinimize: Iter:  27  F: -2222.9712333577349455  |grad|_K:  6.000e-06  alpha:  3.459e-02  linmin: -1.479e-05  cgtest: -1.706e-03  t[s]:   1288.97
LCAOMinimize: 	Predicted alpha/alphaT>3.000000, increasing alphaT to 1.037605e-01.
	FillingsUpdate:  mu: +0.069345120  nElectrons: 418.000000  magneticMoment: [ Abs: 0.00417  Tot: +0.00104 ]
LCAOMinimize: Iter:  28  F: -2222.9712385427947083  |grad|_K:  6.886e-06  alpha:  1.479e-01  linmin:  6.275e-05  cgtest: -2.614e-04  t[s]:   1337.50
	FillingsUpdate:  mu: +0.069466907  nElectrons: 418.000000  magneticMoment: [ Abs: 0.00424  Tot: +0.00110 ]
LCAOMinimize: Iter:  29  F: -2222.9712400307134885  |grad|_K:  6.014e-06  alpha:  3.229e-02  linmin:  9.498e-05  cgtest: -1.422e-04  t[s]:   1375.33
	FillingsUpdate:  mu: +0.069516637  nElectrons: 418.000000  magneticMoment: [ Abs: 0.00434  Tot: +0.00119 ]
LCAOMinimize: Iter:  30  F: -2222.9712415387848523  |grad|_K:  5.469e-06  alpha:  4.284e-02  linmin: -6.501e-05  cgtest:  3.080e-03  t[s]:   1413.24
LCAOMinimize: None of the convergence criteria satisfied after 30 iterations.
----- createFluidSolver() ----- (Fluid-side solver setup)
   Initializing fluid molecule 'H2O'
     Initializing site 'O'
       Electron density: proportional to exp(-r/0.36935)*erfc((r-0.51523)/0.36823) with norm 6.826
       Charge density: gaussian nuclear width 0.478731 with net site charge 0.826
       Polarizability: cuspless exponential with width 0.32 and norm 3.73
       Hard sphere radius: 2.57003 bohrs
       Positions in reference frame:
         [ +0.000000 +0.000000 +0.000000 ]
     Initializing site 'H'
       Electron density: proportional to exp(-r/0.34641)*erfc((r-0)/0.390882) with norm 0.587
       Charge density: gaussian nuclear width 0.377945 with net site charge -0.413
       Polarizability: cuspless exponential with width 0.39 and norm 3.3
       Positions in reference frame:
         [ +0.000000 -1.441945 +1.122523 ]
         [ +0.000000 +1.441945 +1.122523 ]
     Net charge: 0   dipole magnitude: 0.927204
     Initializing spherical shell mfKernel with radius 2.61727 Bohr
     deltaS corrections:
       site 'O': -7.54299
       site 'H': -6.83917
   Initializing fluid molecule 'Na+'
     Initializing site 'Na'
       Electron density: proportional to exp(-r/0.19682)*erfc((r-0.71491)/0.41314) with norm 8.1383
       Charge density: gaussian nuclear width 0.365347 with net site charge -1
       Hard sphere radius: 1.86327 bohrs
       Positions in reference frame:
         [ +0.000000 +0.000000 +0.000000 ]
     Net charge: -1   dipole magnitude: 0
     Initializing gaussian mfKernel with width: 1.55004 Bohr
     deltaS corrections:
       site 'Na': -22.3555
   Initializing fluid molecule 'F-'
     Initializing site 'F'
       Electron density: proportional to exp(-r/0.38886)*erfc((r-0)/0.438782) with norm 8
       Charge density: gaussian nuclear width 0.374796 with net site charge 1
       Hard sphere radius: 2.39995 bohrs
       Positions in reference frame:
         [ +0.000000 +0.000000 +0.000000 ]
     Net charge: 1   dipole magnitude: 0
     Initializing gaussian mfKernel with width: 1.59012 Bohr
     deltaS corrections:
       site 'F': -9.04335

Correction to mu due to finite nuclear width = -0.0416319
   Cavity determined by nc: 0.00142 and sigma: 0.707107
   Nonlocal vdW cavity from gaussian model electron density with norm = 8 and sigma = 0.993594 bohr
   Charge asymmetry in cavity with sensitivity pCavity = 36.5 e-bohr/Eh
   Electrostatic cavity expanded by eta = 1.46 bohrs
   Weighted density cavitation model constrained by Nbulk: 0.0049383 bohr^-3, Pvap: 3.14029 kPa, Rvdw: 2.61727 bohr and sigmaBulk: 4.62e-05 Eh/bohr^2 at T: 298 K.
   Weighted density dispersion model using vdW pair potentials with single solvent site with sqrtC6eff: 0.77 SI.


---- Citations for features of the code used in this run ----

   Software package:
      R. Sundararaman, K. Letchworth-Weaver, K.A. Schwarz, D. Gunceler, Y. Ozhabes and T.A. Arias, 'JDFTx: software for joint density-functional theory', SoftwareX 6, 278 (2017)

   gga-PBE exchange-correlation functional:
      J.P. Perdew, K. Burke and M. Ernzerhof, Phys. Rev. Lett. 77, 3865 (1996)

   Pseudopotentials:
      KF Garrity, JW Bennett, KM Rabe and D Vanderbilt, Comput. Mater. Sci. 81, 446 (2014)

   DFT-D3 dispersion correction:
      S. Grimme, J. Antony, S. Ehrlich and H. Krieg, J. Chem. Phys. 132, 154104 (2010)

   DFT-D2 dispersion correction:
      S. Grimme, J. Comput. Chem. 27, 1787 (2006)

   Charge-asymmetric nonlocally-determined local-electric (CANDLE) solvation model:
      R. Sundararaman and W.A. Goddard III, J. Chem. Phys. 142, 064107 (2015)

   Total energy minimization with Auxiliary Hamiltonian:
      C. Freysoldt, S. Boeck, and J. Neugebauer, Phys. Rev. B 79, 241103(R) (2009)

   Linear-tetrahedron sampling for density of states:
      G. Lehmann and M. Taut, Phys. status solidi (b) 54, 469 (1972)

This list may not be complete. Please suggest additional citations or
report any other bugs at https://github.com/shankar1729/jdftx/issues

Initialization completed successfully at t[s]:   1425.67


Computing DFT-D3 correction:
# coordination-number Ni 6.407 6.407 6.407 6.407 4.843 4.843 5.785 5.785
# coordination-number Au 5.867 5.867 5.867 5.867 8.415 8.414 8.415 8.414 5.867 5.867 5.867 5.867 8.412 8.411 9.029 8.412 6.137 4.849 6.209 4.849 8.417 8.417 8.417 8.417
# coordination-number C 5.389
# coordination-number O 1.812
# diagonal-C6 Ni 135.19 135.19 135.19 135.19 141.33 141.33 138.90 138.90
# diagonal-C6 Au 317.16 317.16 317.16 317.16 317.16 317.16 317.16 317.16 317.16 317.16 317.16 317.16 317.16 317.16 317.16 317.16 317.16 317.16 317.16 317.16 317.16 317.16 317.16 317.16
# diagonal-C6 C 18.21
# diagonal-C6 O 10.53
EvdW_6 =   -0.204530
EvdW_8 =   -0.386726
Fluid solver invoked on fresh (random / LCAO) wavefunctions
Running a vacuum solve first:

-------- Initial electronic minimization -----------
	FillingsUpdate:  mu: +0.069516645  nElectrons: 418.000000  magneticMoment: [ Abs: 0.00434  Tot: +0.00119 ]
ElecMinimize: Iter:   0  F: -2222.971241538785762  |grad|_K:  8.183e-05  alpha:  1.000e+00
	FillingsUpdate:  mu: +0.046743213  nElectrons: 418.000000  magneticMoment: [ Abs: 0.00420  Tot: +0.00140 ]
	SubspaceRotationAdjust: set factor to 0.742
ElecMinimize: Iter:   1  F: -2223.352839966830288  |grad|_K:  1.142e-04  alpha:  2.904e-01  linmin: -2.551e-05  t[s]:   1521.98
	FillingsUpdate:  mu: +0.160613070  nElectrons: 418.000000  magneticMoment: [ Abs: 0.00278  Tot: +0.00034 ]
	SubspaceRotationAdjust: set factor to 0.451
ElecMinimize: Iter:   2  F: -2223.552112171031240  |grad|_K:  8.486e-05  alpha:  1.120e-01  linmin:  4.921e-04  t[s]:   1583.28
	FillingsUpdate:  mu: +0.161474999  nElectrons: 418.000000  magneticMoment: [ Abs: 0.00275  Tot: +0.00044 ]
	SubspaceRotationAdjust: set factor to 0.458
ElecMinimize: Iter:   3  F: -2223.605945983539186  |grad|_K:  5.548e-05  alpha:  4.442e-02  linmin: -1.187e-04  t[s]:   1644.68
ElecMinimize: 	Predicted alpha/alphaT>3.000000, increasing alphaT to 1.332523e-01.
	FillingsUpdate:  mu: +0.089156254  nElectrons: 418.000000  magneticMoment: [ Abs: 0.00269  Tot: +0.00062 ]
	SubspaceRotationAdjust: set factor to 0.308
ElecMinimize: Iter:   4  F: -2223.696898488550232  |grad|_K:  5.850e-05  alpha:  1.460e-01  linmin:  4.299e-05  t[s]:   1722.36
	FillingsUpdate:  mu: +0.059553193  nElectrons: 418.000000  magneticMoment: [ Abs: 0.00257  Tot: +0.00068 ]
	SubspaceRotationAdjust: set factor to 0.34
ElecMinimize: Iter:   5  F: -2223.727576796829908  |grad|_K:  3.521e-05  alpha:  4.937e-02  linmin:  5.868e-05  t[s]:   1783.60
	FillingsUpdate:  mu: +0.096680479  nElectrons: 418.000000  magneticMoment: [ Abs: 0.00240  Tot: +0.00072 ]
	SubspaceRotationAdjust: set factor to 0.305
ElecMinimize: Iter:   6  F: -2223.758225554389810  |grad|_K:  3.287e-05  alpha:  1.302e-01  linmin: -2.561e-05  t[s]:   1844.96
	FillingsUpdate:  mu: +0.070453253  nElectrons: 418.000000  magneticMoment: [ Abs: 0.00228  Tot: +0.00071 ]
	SubspaceRotationAdjust: set factor to 0.301
ElecMinimize: Iter:   7  F: -2223.773706308359124  |grad|_K:  2.265e-05  alpha:  7.255e-02  linmin: -1.490e-05  t[s]:   1906.41
	FillingsUpdate:  mu: +0.073949738  nElectrons: 418.000000  magneticMoment: [ Abs: 0.00208  Tot: +0.00063 ]
	SubspaceRotationAdjust: set factor to 0.308
ElecMinimize: Iter:   8  F: -2223.785550986745420  |grad|_K:  2.165e-05  alpha:  1.189e-01  linmin: -3.028e-06  t[s]:   1967.84
	FillingsUpdate:  mu: +0.079695021  nElectrons: 418.000000  magneticMoment: [ Abs: 0.00192  Tot: +0.00059 ]
	SubspaceRotationAdjust: set factor to 0.334
ElecMinimize: Iter:   9  F: -2223.792873297557435  |grad|_K:  1.591e-05  alpha:  8.131e-02  linmin: -1.628e-06  t[s]:   2029.13
	FillingsUpdate:  mu: +0.084261840  nElectrons: 418.000000  magneticMoment: [ Abs: 0.00180  Tot: +0.00061 ]
	SubspaceRotationAdjust: set factor to 0.388
ElecMinimize: Iter:  10  F: -2223.798115729039637  |grad|_K:  1.381e-05  alpha:  1.073e-01  linmin: -1.784e-05  t[s]:   2090.67
	FillingsUpdate:  mu: +0.082420870  nElectrons: 418.000000  magneticMoment: [ Abs: 0.00171  Tot: +0.00062 ]
	SubspaceRotationAdjust: set factor to 0.345
ElecMinimize: Iter:  11  F: -2223.801359450508244  |grad|_K:  1.245e-05  alpha:  8.787e-02  linmin: -5.172e-06  t[s]:   2152.00
	FillingsUpdate:  mu: +0.078070737  nElectrons: 418.000000  magneticMoment: [ Abs: 0.00155  Tot: +0.00056 ]
	SubspaceRotationAdjust: set factor to 0.299
ElecMinimize: Iter:  12  F: -2223.804457356331113  |grad|_K:  8.934e-06  alpha:  1.034e-01  linmin: -1.426e-04  t[s]:   2213.35
	FillingsUpdate:  mu: +0.074635037  nElectrons: 418.000000  magneticMoment: [ Abs: 0.00148  Tot: +0.00054 ]
	SubspaceRotationAdjust: set factor to 0.263
ElecMinimize: Iter:  13  F: -2223.805611234174194  |grad|_K:  6.557e-06  alpha:  7.431e-02  linmin: -9.937e-06  t[s]:   2274.66
	FillingsUpdate:  mu: +0.072016760  nElectrons: 418.000000  magneticMoment: [ Abs: 0.00139  Tot: +0.00053 ]
	SubspaceRotationAdjust: set factor to 0.273
ElecMinimize: Iter:  14  F: -2223.806866259295930  |grad|_K:  6.370e-06  alpha:  1.513e-01  linmin:  1.531e-05  t[s]:   2336.04
	FillingsUpdate:  mu: +0.070208422  nElectrons: 418.000000  magneticMoment: [ Abs: 0.00133  Tot: +0.00054 ]
	SubspaceRotationAdjust: set factor to 0.25
ElecMinimize: Iter:  15  F: -2223.807753702379159  |grad|_K:  5.735e-06  alpha:  1.134e-01  linmin:  8.284e-06  t[s]:   2397.28
	FillingsUpdate:  mu: +0.074304706  nElectrons: 418.000000  magneticMoment: [ Abs: 0.00124  Tot: +0.00052 ]
	SubspaceRotationAdjust: set factor to 0.322
ElecMinimize: Iter:  16  F: -2223.808559042272009  |grad|_K:  3.924e-06  alpha:  1.271e-01  linmin: -8.547e-06  t[s]:   2458.66
	FillingsUpdate:  mu: +0.074782731  nElectrons: 418.000000  magneticMoment: [ Abs: 0.00119  Tot: +0.00050 ]
	SubspaceRotationAdjust: set factor to 0.283
ElecMinimize: Iter:  17  F: -2223.808826049964409  |grad|_K:  3.139e-06  alpha:  8.996e-02  linmin: -1.491e-06  t[s]:   2519.94
	FillingsUpdate:  mu: +0.073865418  nElectrons: 418.000000  magneticMoment: [ Abs: 0.00111  Tot: +0.00048 ]
	SubspaceRotationAdjust: set factor to 0.332
ElecMinimize: Iter:  18  F: -2223.809216203136202  |grad|_K:  3.185e-06  alpha:  2.054e-01  linmin:  2.638e-06  t[s]:   2581.28
	FillingsUpdate:  mu: +0.073073778  nElectrons: 418.000000  magneticMoment: [ Abs: 0.00107  Tot: +0.00046 ]
	SubspaceRotationAdjust: set factor to 0.276
ElecMinimize: Iter:  19  F: -2223.809397279701898  |grad|_K:  2.419e-06  alpha:  9.257e-02  linmin: -2.072e-06  t[s]:   2643.47
	FillingsUpdate:  mu: +0.073670046  nElectrons: 418.000000  magneticMoment: [ Abs: 0.00100  Tot: +0.00044 ]
	SubspaceRotationAdjust: set factor to 0.314
ElecMinimize: Iter:  20  F: -2223.809579887031305  |grad|_K:  1.992e-06  alpha:  1.617e-01  linmin: -5.577e-08  t[s]:   2704.96
	FillingsUpdate:  mu: +0.073889345  nElectrons: 418.000000  magneticMoment: [ Abs: 0.00096  Tot: +0.00043 ]
	SubspaceRotationAdjust: set factor to 0.287
ElecMinimize: Iter:  21  F: -2223.809670590340374  |grad|_K:  1.701e-06  alpha:  1.185e-01  linmin: -2.607e-07  t[s]:   2766.37
	FillingsUpdate:  mu: +0.073136067  nElectrons: 418.000000  magneticMoment: [ Abs: 0.00092  Tot: +0.00041 ]
	SubspaceRotationAdjust: set factor to 0.29
ElecMinimize: Iter:  22  F: -2223.809741981042862  |grad|_K:  1.314e-06  alpha:  1.280e-01  linmin:  6.248e-07  t[s]:   2827.75
	FillingsUpdate:  mu: +0.073271763  nElectrons: 418.000000  magneticMoment: [ Abs: 0.00088  Tot: +0.00040 ]
	SubspaceRotationAdjust: set factor to 0.282
ElecMinimize: Iter:  23  F: -2223.809794254178087  |grad|_K:  1.181e-06  alpha:  1.571e-01  linmin:  8.789e-07  t[s]:   2889.17
	FillingsUpdate:  mu: +0.073679728  nElectrons: 418.000000  magneticMoment: [ Abs: 0.00084  Tot: +0.00039 ]
	SubspaceRotationAdjust: set factor to 0.275
ElecMinimize: Iter:  24  F: -2223.809827973365827  |grad|_K:  9.846e-07  alpha:  1.254e-01  linmin: -3.866e-07  t[s]:   2950.54
	FillingsUpdate:  mu: +0.073799205  nElectrons: 418.000000  magneticMoment: [ Abs: 0.00081  Tot: +0.00037 ]
	SubspaceRotationAdjust: set factor to 0.293
ElecMinimize: Iter:  25  F: -2223.809851928851458  |grad|_K:  6.518e-07  alpha:  1.281e-01  linmin: -5.185e-07  t[s]:   3012.01
	FillingsUpdate:  mu: +0.073593072  nElectrons: 418.000000  magneticMoment: [ Abs: 0.00078  Tot: +0.00036 ]
	SubspaceRotationAdjust: set factor to 0.276
ElecMinimize: Iter:  26  F: -2223.809866110204439  |grad|_K:  7.628e-07  alpha:  1.731e-01  linmin:  8.778e-07  t[s]:   3073.20
	FillingsUpdate:  mu: +0.073474051  nElectrons: 418.000000  magneticMoment: [ Abs: 0.00075  Tot: +0.00035 ]
	SubspaceRotationAdjust: set factor to 0.312
ElecMinimize: Iter:  27  F: -2223.809879647509206  |grad|_K:  4.291e-07  alpha:  1.207e-01  linmin:  5.975e-08  t[s]:   3134.59
	FillingsUpdate:  mu: +0.073591113  nElectrons: 418.000000  magneticMoment: [ Abs: 0.00073  Tot: +0.00034 ]
	SubspaceRotationAdjust: set factor to 0.312
ElecMinimize: Iter:  28  F: -2223.809885230260988  |grad|_K:  4.345e-07  alpha:  1.573e-01  linmin:  7.806e-08  t[s]:   3196.08
	FillingsUpdate:  mu: +0.073563958  nElectrons: 418.000000  magneticMoment: [ Abs: 0.00070  Tot: +0.00033 ]
	SubspaceRotationAdjust: set factor to 0.26
ElecMinimize: Iter:  29  F: -2223.809889433456647  |grad|_K:  3.503e-07  alpha:  1.154e-01  linmin: -7.133e-09  t[s]:   3257.56
	FillingsUpdate:  mu: +0.073475612  nElectrons: 418.000000  magneticMoment: [ Abs: 0.00067  Tot: +0.00032 ]
	SubspaceRotationAdjust: set factor to 0.316
ElecMinimize: Iter:  30  F: -2223.809893811379879  |grad|_K:  2.962e-07  alpha:  1.850e-01  linmin:  2.818e-07  t[s]:   3318.96
	FillingsUpdate:  mu: +0.073526354  nElectrons: 418.000000  magneticMoment: [ Abs: 0.00065  Tot: +0.00031 ]
	SubspaceRotationAdjust: set factor to 0.257
ElecMinimize: Iter:  31  F: -2223.809895749755469  |grad|_K:  2.132e-07  alpha:  1.146e-01  linmin: -1.998e-08  t[s]:   3380.32
	FillingsUpdate:  mu: +0.073592732  nElectrons: 418.000000  magneticMoment: [ Abs: 0.00063  Tot: +0.00030 ]
	SubspaceRotationAdjust: set factor to 0.243
ElecMinimize: Iter:  32  F: -2223.809897044252011  |grad|_K:  1.956e-07  alpha:  1.477e-01  linmin:  1.513e-07  t[s]:   3441.80
	FillingsUpdate:  mu: +0.073625414  nElectrons: 418.000000  magneticMoment: [ Abs: 0.00060  Tot: +0.00029 ]
	SubspaceRotationAdjust: set factor to 0.262
ElecMinimize: Iter:  33  F: -2223.809898492177581  |grad|_K:  1.482e-07  alpha:  1.962e-01  linmin:  1.665e-07  t[s]:   3503.19
	FillingsUpdate:  mu: +0.073602079  nElectrons: 418.000000  magneticMoment: [ Abs: 0.00058  Tot: +0.00028 ]
	SubspaceRotationAdjust: set factor to 0.233
ElecMinimize: Iter:  34  F: -2223.809899063412558  |grad|_K:  1.289e-07  alpha:  1.349e-01  linmin: -1.846e-07  t[s]:   3565.53
	FillingsUpdate:  mu: +0.073551500  nElectrons: 418.000000  magneticMoment: [ Abs: 0.00056  Tot: +0.00027 ]
	SubspaceRotationAdjust: set factor to 0.256
ElecMinimize: Iter:  35  F: -2223.809899598837546  |grad|_K:  9.227e-08  alpha:  1.671e-01  linmin:  3.469e-07  t[s]:   3627.05
	FillingsUpdate:  mu: +0.073553087  nElectrons: 418.000000  magneticMoment: [ Abs: 0.00055  Tot: +0.00026 ]
	SubspaceRotationAdjust: set factor to 0.252
ElecMinimize: Iter:  36  F: -2223.809899912640049  |grad|_K:  8.958e-08  alpha:  1.911e-01  linmin: -1.494e-06  t[s]:   3688.44
	FillingsUpdate:  mu: +0.073560799  nElectrons: 418.000000  magneticMoment: [ Abs: 0.00053  Tot: +0.00025 ]
	SubspaceRotationAdjust: set factor to 0.231
ElecMinimize: Iter:  37  F: -2223.809900119491431  |grad|_K:  6.371e-08  alpha:  1.335e-01  linmin:  1.374e-06  t[s]:   3749.68
	FillingsUpdate:  mu: +0.073552070  nElectrons: 418.000000  magneticMoment: [ Abs: 0.00051  Tot: +0.00024 ]
	SubspaceRotationAdjust: set factor to 0.227
ElecMinimize: Iter:  38  F: -2223.809900260810082  |grad|_K:  5.717e-08  alpha:  1.804e-01  linmin: -3.058e-06  t[s]:   3811.11
	FillingsUpdate:  mu: +0.073565430  nElectrons: 418.000000  magneticMoment: [ Abs: 0.00050  Tot: +0.00024 ]
	SubspaceRotationAdjust: set factor to 0.238
ElecMinimize: Iter:  39  F: -2223.809900368835770  |grad|_K:  4.241e-08  alpha:  1.711e-01  linmin:  2.220e-08  t[s]:   3873.31
	FillingsUpdate:  mu: +0.073584034  nElectrons: 418.000000  magneticMoment: [ Abs: 0.00048  Tot: +0.00023 ]
	SubspaceRotationAdjust: set factor to 0.213
ElecMinimize: Iter:  40  F: -2223.809900422981173  |grad|_K:  3.831e-08  alpha:  1.558e-01  linmin:  1.613e-06  t[s]:   3934.72
	FillingsUpdate:  mu: +0.073580703  nElectrons: 418.000000  magneticMoment: [ Abs: 0.00047  Tot: +0.00022 ]
	SubspaceRotationAdjust: set factor to 0.24
ElecMinimize: Iter:  41  F: -2223.809900476140683  |grad|_K:  2.824e-08  alpha:  1.884e-01  linmin:  2.175e-08  t[s]:   3996.03
ElecMinimize: Converged (|Delta F|<1.000000e-07 for 2 iters).
Setting wave functions to eigenvectors of Hamiltonian
Converging empty states (this may take a while): |deigs|: 2.298e-03
Vacuum energy after initial minimize, F = -2223.809900476140683


-------- Electronic minimization -----------
	Linear fluid (dielectric constant: 78.4, screening length: 8.12261 Bohr) occupying 0.476170 of unit cell:	Completed after 22 iterations at t[s]:   4356.59
	FillingsUpdate:  mu: -0.183524993  nElectrons: 418.000000  magneticMoment: [ Abs: 0.00038  Tot: +0.00017 ]
ElecMinimize: Iter:   0  F: -2223.816990959760460  |grad|_K:  1.024e-06  alpha:  1.000e+00
	Linear fluid (dielectric constant: 78.4, screening length: 8.12261 Bohr) occupying 0.477176 of unit cell:	Completed after 14 iterations at t[s]:   4410.24
	Linear fluid (dielectric constant: 78.4, screening length: 8.12261 Bohr) occupying 0.477137 of unit cell:	Completed after 3 iterations at t[s]:   4429.84
	FillingsUpdate:  mu: -0.180797242  nElectrons: 418.000000  magneticMoment: [ Abs: 0.00036  Tot: +0.00016 ]
	SubspaceRotationAdjust: set factor to 0.242
ElecMinimize: Iter:   1  F: -2223.817185087510552  |grad|_K:  1.591e-06  alpha:  9.601e-01  linmin: -8.672e-08  t[s]:   4452.80
	Linear fluid (dielectric constant: 78.4, screening length: 8.12261 Bohr) occupying 0.479652 of unit cell:	Completed after 18 iterations at t[s]:   4479.74
	Linear fluid (dielectric constant: 78.4, screening length: 8.12261 Bohr) occupying 0.477599 of unit cell:	Completed after 18 iterations at t[s]:   4501.83
	FillingsUpdate:  mu: -0.180987155  nElectrons: 418.000000  magneticMoment: [ Abs: 0.00035  Tot: +0.00016 ]
	SubspaceRotationAdjust: set factor to 0.22
ElecMinimize: Iter:   2  F: -2223.817267564334088  |grad|_K:  1.027e-06  alpha:  1.693e-01  linmin:  4.027e-07  t[s]:   4525.30
	Linear fluid (dielectric constant: 78.4, screening length: 8.12261 Bohr) occupying 0.477822 of unit cell:	Completed after 11 iterations at t[s]:   4551.37
	Linear fluid (dielectric constant: 78.4, screening length: 8.12261 Bohr) occupying 0.477878 of unit cell:	Completed after 7 iterations at t[s]:   4571.15
	FillingsUpdate:  mu: -0.181370374  nElectrons: 418.000000  magneticMoment: [ Abs: 0.00034  Tot: +0.00015 ]
	SubspaceRotationAdjust: set factor to 0.157
ElecMinimize: Iter:   3  F: -2223.817310533863747  |grad|_K:  8.701e-07  alpha:  2.119e-01  linmin: -1.853e-07  t[s]:   4594.11
	Linear fluid (dielectric constant: 78.4, screening length: 8.12261 Bohr) occupying 0.478095 of unit cell:	Completed after 10 iterations at t[s]:   4619.78
	Linear fluid (dielectric constant: 78.4, screening length: 8.12261 Bohr) occupying 0.478070 of unit cell:	Completed after 2 iterations at t[s]:   4638.67
	FillingsUpdate:  mu: -0.180877680  nElectrons: 418.000000  magneticMoment: [ Abs: 0.00033  Tot: +0.00015 ]
	SubspaceRotationAdjust: set factor to 0.177
ElecMinimize: Iter:   4  F: -2223.817338041093990  |grad|_K:  5.548e-07  alpha:  1.878e-01  linmin:  7.115e-08  t[s]:   4661.83
	Linear fluid (dielectric constant: 78.4, screening length: 8.12261 Bohr) occupying 0.478149 of unit cell:	Completed after 9 iterations at t[s]:   4687.22
	Linear fluid (dielectric constant: 78.4, screening length: 8.12261 Bohr) occupying 0.478212 of unit cell:	Completed after 8 iterations at t[s]:   4707.47
	FillingsUpdate:  mu: -0.180489490  nElectrons: 418.000000  magneticMoment: [ Abs: 0.00032  Tot: +0.00014 ]
	SubspaceRotationAdjust: set factor to 0.183
ElecMinimize: Iter:   5  F: -2223.817358076978962  |grad|_K:  4.258e-07  alpha:  3.391e-01  linmin:  3.004e-07  t[s]:   4731.04
	Linear fluid (dielectric constant: 78.4, screening length: 8.12261 Bohr) occupying 0.478291 of unit cell:	Completed after 8 iterations at t[s]:   4756.35
	Linear fluid (dielectric constant: 78.4, screening length: 8.12261 Bohr) occupying 0.478266 of unit cell:	Completed after 3 iterations at t[s]:   4775.43
	FillingsUpdate:  mu: -0.180744793  nElectrons: 418.000000  magneticMoment: [ Abs: 0.00032  Tot: +0.00014 ]
	SubspaceRotationAdjust: set factor to 0.167
ElecMinimize: Iter:   6  F: -2223.817366068192769  |grad|_K:  3.390e-07  alpha:  2.298e-01  linmin:  1.849e-08  t[s]:   4798.38
	Linear fluid (dielectric constant: 78.4, screening length: 8.12261 Bohr) occupying 0.478300 of unit cell:	Completed after 6 iterations at t[s]:   4823.21
	Linear fluid (dielectric constant: 78.4, screening length: 8.12261 Bohr) occupying 0.478311 of unit cell:	Completed after 4 iterations at t[s]:   4842.54
	FillingsUpdate:  mu: -0.180533476  nElectrons: 418.000000  magneticMoment: [ Abs: 0.00031  Tot: +0.00013 ]
	SubspaceRotationAdjust: set factor to 0.187
ElecMinimize: Iter:   7  F: -2223.817372904222339  |grad|_K:  2.201e-07  alpha:  3.092e-01  linmin:  2.041e-07  t[s]:   4865.50
	Linear fluid (dielectric constant: 78.4, screening length: 8.12261 Bohr) occupying 0.478328 of unit cell:	Completed after 2 iterations at t[s]:   4889.64
	Linear fluid (dielectric constant: 78.4, screening length: 8.12261 Bohr) occupying 0.478333 of unit cell:	Completed after 2 iterations at t[s]:   4908.40
	FillingsUpdate:  mu: -0.180564010  nElectrons: 418.000000  magneticMoment: [ Abs: 0.00030  Tot: +0.00013 ]
	SubspaceRotationAdjust: set factor to 0.189
ElecMinimize: Iter:   8  F: -2223.817376782134943  |grad|_K:  2.280e-07  alpha:  4.165e-01  linmin: -9.523e-08  t[s]:   4931.51
	Linear fluid (dielectric constant: 78.4, screening length: 8.12261 Bohr) occupying 0.478357 of unit cell:	Completed after 9 iterations at t[s]:   4956.92
	Linear fluid (dielectric constant: 78.4, screening length: 8.12261 Bohr) occupying 0.478343 of unit cell:	Completed after 7 iterations at t[s]:   4976.64
	FillingsUpdate:  mu: -0.180512159  nElectrons: 418.000000  magneticMoment: [ Abs: 0.00029  Tot: +0.00012 ]
	SubspaceRotationAdjust: set factor to 0.156
ElecMinimize: Iter:   9  F: -2223.817378460521923  |grad|_K:  1.503e-07  alpha:  1.675e-01  linmin:  7.982e-08  t[s]:   4999.94
	Linear fluid (dielectric constant: 78.4, screening length: 8.12261 Bohr) occupying 0.478348 of unit cell:	Completed after 2 iterations at t[s]:   5025.13
	Linear fluid (dielectric constant: 78.4, screening length: 8.12261 Bohr) occupying 0.478353 of unit cell:	Completed after 2 iterations at t[s]:   5043.97
	FillingsUpdate:  mu: -0.180478659  nElectrons: 418.000000  magneticMoment: [ Abs: 0.00029  Tot: +0.00012 ]
	SubspaceRotationAdjust: set factor to 0.156
ElecMinimize: Iter:  10  F: -2223.817379909031843  |grad|_K:  1.409e-07  alpha:  3.334e-01  linmin: -2.930e-08  t[s]:   5067.04
	Linear fluid (dielectric constant: 78.4, screening length: 8.12261 Bohr) occupying 0.478362 of unit cell:	Completed after 3 iterations at t[s]:   5091.55
	Linear fluid (dielectric constant: 78.4, screening length: 8.12261 Bohr) occupying 0.478360 of unit cell:	Completed after 1 iterations at t[s]:   5109.95
	FillingsUpdate:  mu: -0.180613427  nElectrons: 418.000000  magneticMoment: [ Abs: 0.00028  Tot: +0.00011 ]
	SubspaceRotationAdjust: set factor to 0.157
ElecMinimize: Iter:  11  F: -2223.817380811295607  |grad|_K:  9.888e-08  alpha:  2.381e-01  linmin: -2.649e-07  t[s]:   5132.99
	Linear fluid (dielectric constant: 78.4, screening length: 8.12261 Bohr) occupying 0.478365 of unit cell:	Completed after 1 iterations at t[s]:   5157.05
	Linear fluid (dielectric constant: 78.4, screening length: 8.12261 Bohr) occupying 0.478366 of unit cell:	Completed after 2 iterations at t[s]:   5175.75
	FillingsUpdate:  mu: -0.180588335  nElectrons: 418.000000  magneticMoment: [ Abs: 0.00027  Tot: +0.00011 ]
	SubspaceRotationAdjust: set factor to 0.159
ElecMinimize: Iter:  12  F: -2223.817381411586666  |grad|_K:  8.447e-08  alpha:  3.164e-01  linmin: -1.422e-07  t[s]:   5198.97
	Linear fluid (dielectric constant: 78.4, screening length: 8.12261 Bohr) occupying 0.478373 of unit cell:	Completed after 2 iterations at t[s]:   5223.12
	Linear fluid (dielectric constant: 78.4, screening length: 8.12261 Bohr) occupying 0.478372 of unit cell:	Completed after 1 iterations at t[s]:   5241.79
	FillingsUpdate:  mu: -0.180524896  nElectrons: 418.000000  magneticMoment: [ Abs: 0.00027  Tot: +0.00011 ]
	SubspaceRotationAdjust: set factor to 0.152
ElecMinimize: Iter:  13  F: -2223.817381770291831  |grad|_K:  7.147e-08  alpha:  2.591e-01  linmin:  5.413e-07  t[s]:   5264.67
	Linear fluid (dielectric constant: 78.4, screening length: 8.12261 Bohr) occupying 0.478377 of unit cell:	Completed after 2 iterations at t[s]:   5288.94
	Linear fluid (dielectric constant: 78.4, screening length: 8.12261 Bohr) occupying 0.478377 of unit cell:	Completed after 0 iterations at t[s]:   5307.08
	FillingsUpdate:  mu: -0.180554170  nElectrons: 418.000000  magneticMoment: [ Abs: 0.00026  Tot: +0.00010 ]
	SubspaceRotationAdjust: set factor to 0.152
ElecMinimize: Iter:  14  F: -2223.817382026853011  |grad|_K:  5.432e-08  alpha:  2.653e-01  linmin: -9.140e-07  t[s]:   5330.75
	Linear fluid (dielectric constant: 78.4, screening length: 8.12261 Bohr) occupying 0.478381 of unit cell:	Completed after 1 iterations at t[s]:   5354.74
	Linear fluid (dielectric constant: 78.4, screening length: 8.12261 Bohr) occupying 0.478381 of unit cell:	Completed after 0 iterations at t[s]:   5373.05
	FillingsUpdate:  mu: -0.180552889  nElectrons: 418.000000  magneticMoment: [ Abs: 0.00026  Tot: +0.00010 ]
	SubspaceRotationAdjust: set factor to 0.148
ElecMinimize: Iter:  15  F: -2223.817382196499238  |grad|_K:  4.195e-08  alpha:  2.903e-01  linmin: -9.461e-07  t[s]:   5395.98
	Linear fluid (dielectric constant: 78.4, screening length: 8.12261 Bohr) occupying 0.478385 of unit cell:	Completed after 2 iterations at t[s]:   5420.42
	Linear fluid (dielectric constant: 78.4, screening length: 8.12261 Bohr) occupying 0.478384 of unit cell:	Completed after 0 iterations at t[s]:   5438.50
	FillingsUpdate:  mu: -0.180543541  nElectrons: 418.000000  magneticMoment: [ Abs: 0.00025  Tot: +0.00010 ]
	SubspaceRotationAdjust: set factor to 0.147
ElecMinimize: Iter:  16  F: -2223.817382290970727  |grad|_K:  3.875e-08  alpha:  2.690e-01  linmin:  1.267e-06  t[s]:   5461.47
	Linear fluid (dielectric constant: 78.4, screening length: 8.12261 Bohr) occupying 0.478388 of unit cell:	Completed after 1 iterations at t[s]:   5485.45
	Linear fluid (dielectric constant: 78.4, screening length: 8.12261 Bohr) occupying 0.478388 of unit cell:	Completed after 0 iterations at t[s]:   5503.72
	FillingsUpdate:  mu: -0.180556555  nElectrons: 418.000000  magneticMoment: [ Abs: 0.00025  Tot: +0.00009 ]
	SubspaceRotationAdjust: set factor to 0.147
ElecMinimize: Iter:  17  F: -2223.817382365926733  |grad|_K:  2.692e-08  alpha:  2.710e-01  linmin: -9.824e-07  t[s]:   5526.70
ElecMinimize: Converged (|Delta F|<1.000000e-07 for 2 iters).
Setting wave functions to eigenvectors of Hamiltonian
Converging empty states (this may take a while): |deigs|: 1.789e-04
Single-point solvation energy estimate, DeltaF = -0.007481889786050

Computing DFT-D3 correction:
# coordination-number Ni 6.407 6.407 6.407 6.407 4.843 4.843 5.785 5.785
# coordination-number Au 5.867 5.867 5.867 5.867 8.415 8.414 8.415 8.414 5.867 5.867 5.867 5.867 8.412 8.411 9.029 8.412 6.137 4.849 6.209 4.849 8.417 8.417 8.417 8.417
# coordination-number C 5.389
# coordination-number O 1.812
# diagonal-C6 Ni 135.19 135.19 135.19 135.19 141.33 141.33 138.90 138.90
# diagonal-C6 Au 317.16 317.16 317.16 317.16 317.16 317.16 317.16 317.16 317.16 317.16 317.16 317.16 317.16 317.16 317.16 317.16 317.16 317.16 317.16 317.16 317.16 317.16 317.16 317.16
# diagonal-C6 C 18.21
# diagonal-C6 O 10.53
EvdW_6 =   -0.204530
EvdW_8 =   -0.386726

# Ionic positions in cartesian coordinates:
ion Ni   0.000000000000000   0.000000000000000   5.529229000000000 0
ion Ni   0.000000000000000   7.459552000000000   5.529229000000000 0
ion Ni   7.459552000000000   0.000000000000000   5.529229000000000 0
ion Ni   7.459552000000000   7.459552000000000   5.529229000000000 0
ion Ni   0.000000000000000   0.000000000000000  12.874440999999997 0
ion Ni   0.000000000000000   7.459552000000000  12.874440999999997 0
ion Ni   7.459552000000000   0.000000000000000  12.874440999999997 0
ion Ni   7.459552000000000   7.459552000000000  12.874440999999997 0
ion Au   0.000000000000000   3.729776000000000   1.785862000000000 0
ion Au   0.000000000000000  11.189328000000000   1.785862000000000 0
ion Au   7.459552000000000   3.729776000000000   1.785862000000000 0
ion Au   7.459552000000000  11.189328000000000   1.785862000000000 0
ion Au   3.729776000000000   3.729776000000000   5.578730999999999 0
ion Au   3.729776000000000  11.189328000000000   5.578730999999999 0
ion Au  11.189328000000000   3.729776000000000   5.578730999999999 0
ion Au  11.189328000000000  11.189328000000000   5.578730999999999 0
ion Au   3.729776000000000   0.000000000000000   1.785862000000000 0
ion Au   3.729776000000000   7.459552000000000   1.785862000000000 0
ion Au  11.189328000000000   0.000000000000000   1.785862000000000 0
ion Au  11.189328000000000   7.459552000000000   1.785862000000000 0
ion Au   0.000000000000000   3.729776000000000   9.365556999999999 0
ion Au   0.000000000000000  11.189328000000000   9.365556999999999 0
ion Au   7.459552000000000   3.729776000000000   9.365556999999999 0
ion Au   7.459552000000000  11.189328000000000   9.365556999999999 0
ion Au   3.729776000000000   3.729776000000000  13.391163999999998 0
ion Au   3.729776000000000  11.189328000000000  13.391163999999998 0
ion Au  11.189328000000000   3.729776000000000  13.391163999999998 0
ion Au  11.189328000000000  11.189328000000000  13.391163999999998 0
ion Au   3.729776000000000   0.000000000000000   9.365556999999999 0
ion Au   3.729776000000000   7.459552000000000   9.365556999999999 0
ion Au  11.189328000000000   0.000000000000000   9.365556999999999 0
ion Au  11.189328000000000   7.459552000000000   9.365556999999999 0
ion C   7.459552000000000   3.729776000000000  13.968443999999998 1  Linear 0 0 1
ion O   7.519645999999999   3.729776000000000  16.123821999999997 1  Linear 0 0 1

# Forces in Cartesian coordinates:
force Ni   0.000022154538069  -0.000115304206787  -0.001013804764533 0
force Ni   0.000022154538069   0.000115304206787  -0.001013804764533 0
force Ni   0.000020714420515   0.000321049626826   0.000579494013332 0
force Ni   0.000020714420515  -0.000321049626826   0.000579494013332 0
force Ni   0.000065167959087   0.000871978036036   0.000259904092894 0
force Ni   0.000065167959087  -0.000871978036036   0.000259904092894 0
force Ni  -0.000380812738859   0.002205062043143  -0.002532685903081 0
force Ni  -0.000380812738859  -0.002205062043143  -0.002532685903081 0
force Au  -0.000009458763854   0.000000000000000   0.000250208073166 0
force Au  -0.000004427402122   0.000000000000000   0.000271164785384 0
force Au  -0.000030563055227   0.000000000000000  -0.000085587093597 0
force Au   0.000002114960517   0.000000000000000   0.000105000392183 0
force Au  -0.000796846133614   0.000000000000000   0.000657588204848 0
force Au  -0.000573629939468   0.000000000000000  -0.000241013671749 0
force Au   0.000732409244665   0.000000000000000   0.000538652275869 0
force Au   0.000582511286529   0.000000000000000  -0.000217999644958 0
force Au   0.000258284846614   0.000007551543736  -0.000055034389442 0
force Au   0.000258284846614  -0.000007551543736  -0.000055034389442 0
force Au  -0.000251927475640  -0.000003407126637  -0.000031659564735 0
force Au  -0.000251927475640   0.000003407126637  -0.000031659564735 0
force Au  -0.000203599262279   0.000000000000000   0.001999552424306 0
force Au  -0.000001519114855   0.000000000000000   0.000700034165480 0
force Au   0.000105945983934   0.000000000000000  -0.029314220492834 0
force Au  -0.000006763143172   0.000000000000000   0.001272416017272 0
force Au  -0.067058247270566   0.000000000000000  -0.022062208126325 0
force Au  -0.000158105848915   0.000000000000000  -0.001141556148404 0
force Au   0.070942775395612   0.000000000000000  -0.024591699307374 0
force Au   0.000067078700460   0.000000000000000  -0.001252773968149 0
force Au  -0.001053983742911  -0.002862649178941  -0.002800756763917 0
force Au  -0.001053983742911   0.002862649178941  -0.002800756763917 0
force Au   0.001054363342356  -0.002803992069606  -0.002689067238518 0
force Au   0.001054363342356   0.002803992069606  -0.002689067238518 0
force C  -0.006101271809333   0.000000000000000  -0.125925073427723 1  Linear 0 0 1
force O   0.002709261835608   0.000000000000000   0.212957160911095 1  Linear 0 0 1

# Energy components:
   A_diel =       -0.0078924386098819
   Eewald =     6523.9536024811613970
       EH =     8624.9426323333318578
     Eloc =   -17637.2178385706611152
      Enl =      109.7216363610894092
     EvdW =       -0.5912559980015405
      Exc =     -894.5799305659022593
 Exc_core =      551.1448541395425309
       KE =      498.8185075462148461
-------------------------------------
     Etot =    -2223.8156847118343649
       TS =        0.0016976540924841
-------------------------------------
        F =    -2223.8173823659267327


Dumping 'jdft.fillings' ... done
Dumping 'jdft.wfns' ... done
Dumping 'jdft.fluidState' ... done
Dumping 'jdft.ionpos' ... done
Dumping 'jdft.lattice' ... done
Dumping 'jdft.eigenvals' ... done
Dumping 'jdft.eigStats' ... 
	eMin: -3.938864 at state 0 ( [ +0.000000 +0.000000 +0.000000 ] spin 1 )
	HOMO: -0.181013 at state 0 ( [ +0.000000 +0.000000 +0.000000 ] spin 1 )
	mu  : -0.180557
	LUMO: -0.180369 at state 6 ( [ +0.500000 +0.000000 +0.000000 ] spin 1 )
	eMax: +0.074856 at state 9 ( [ +0.000000 +0.000000 +0.000000 ] spin -1 )
	HOMO-LUMO gap: +0.000644
	Optical gap  : +0.001128 at state 0 ( [ +0.000000 +0.000000 +0.000000 ] spin 1 )
Dumping 'jdft.Ecomponents' ... done
IonicMinimize: Iter:   0  F: -2223.817382365926733  |grad|_K:  1.749e-01  t[s]:   5825.11

#--- Lowdin population analysis ---
# oxidation-state Ni +0.225 +0.225 +0.222 +0.222 +0.259 +0.259 +0.183 +0.183
# magnetic-moments Ni +0.000 +0.000 +0.000 +0.000 -0.000 -0.000 +0.000 +0.000
# oxidation-state Au -0.009 -0.009 -0.012 -0.012 -0.073 -0.073 -0.073 -0.073 -0.011 -0.011 -0.011 -0.011 -0.115 -0.101 -0.036 -0.095 +0.056 -0.062 +0.061 -0.062 -0.101 -0.101 -0.101 -0.101
# magnetic-moments Au -0.000 -0.000 -0.000 -0.000 -0.000 -0.000 -0.000 -0.000 -0.000 -0.000 -0.000 -0.000 +0.000 -0.000 -0.000 -0.000 +0.000 -0.000 +0.000 -0.000 -0.000 -0.000 -0.000 -0.000
# oxidation-state C +0.219
# magnetic-moments C -0.000
# oxidation-state O -0.130
# magnetic-moments O -0.000


Computing DFT-D3 correction:
# coordination-number Ni 6.407 6.407 6.407 6.407 4.843 4.843 5.783 5.783
# coordination-number Au 5.867 5.867 5.867 5.867 8.415 8.414 8.415 8.414 5.867 5.867 5.867 5.867 8.412 8.411 9.078 8.412 6.098 4.849 6.163 4.849 8.417 8.417 8.417 8.417
# coordination-number C 5.456
# coordination-number O 1.709
# diagonal-C6 Ni 135.19 135.19 135.19 135.19 141.33 141.33 138.91 138.91
# diagonal-C6 Au 317.16 317.16 317.16 317.16 317.16 317.16 317.16 317.16 317.16 317.16 317.16 317.16 317.16 317.16 317.16 317.16 317.16 317.16 317.16 317.16 317.16 317.16 317.16 317.16
# diagonal-C6 C 18.21
# diagonal-C6 O 10.71
EvdW_6 =   -0.204518
EvdW_8 =   -0.386763

-------- Electronic minimization -----------
	Linear fluid (dielectric constant: 78.4, screening length: 8.12261 Bohr) occupying 0.478323 of unit cell:	Completed after 20 iterations at t[s]:   5854.22
	FillingsUpdate:  mu: -0.173878395  nElectrons: 418.000000  magneticMoment: [ Abs: 0.00021  Tot: +0.00007 ]
ElecMinimize: Iter:   0  F: -2223.726592745898870  |grad|_K:  3.206e-05  alpha:  1.000e+00
	Linear fluid (dielectric constant: 78.4, screening length: 8.12261 Bohr) occupying 0.478010 of unit cell:	Completed after 22 iterations at t[s]:   5910.70
	Linear fluid (dielectric constant: 78.4, screening length: 8.12261 Bohr) occupying 0.478145 of unit cell:	Completed after 20 iterations at t[s]:   5932.75
	FillingsUpdate:  mu: -0.176752052  nElectrons: 418.000000  magneticMoment: [ Abs: 0.00021  Tot: +0.00006 ]
	SubspaceRotationAdjust: set factor to 0.14
ElecMinimize: Iter:   1  F: -2223.823292957797094  |grad|_K:  9.117e-06  alpha:  4.933e-01  linmin:  1.569e-03  t[s]:   5956.07
	Linear fluid (dielectric constant: 78.4, screening length: 8.12261 Bohr) occupying 0.478041 of unit cell:	Completed after 20 iterations at t[s]:   5983.53
	Linear fluid (dielectric constant: 78.4, screening length: 8.12261 Bohr) occupying 0.478073 of unit cell:	Completed after 19 iterations at t[s]:   6006.40
	FillingsUpdate:  mu: -0.178618195  nElectrons: 418.000000  magneticMoment: [ Abs: 0.00021  Tot: +0.00006 ]
	SubspaceRotationAdjust: set factor to 0.122
ElecMinimize: Iter:   2  F: -2223.828183251396240  |grad|_K:  8.013e-06  alpha:  3.087e-01  linmin:  2.663e-06  t[s]:   6029.32
	Linear fluid (dielectric constant: 78.4, screening length: 8.12261 Bohr) occupying 0.477990 of unit cell:	Completed after 15 iterations at t[s]:   6056.35
	Linear fluid (dielectric constant: 78.4, screening length: 8.12261 Bohr) occupying 0.478026 of unit cell:	Completed after 13 iterations at t[s]:   6076.89
	FillingsUpdate:  mu: -0.182642797  nElectrons: 418.000000  magneticMoment: [ Abs: 0.00021  Tot: +0.00006 ]
	SubspaceRotationAdjust: set factor to 0.141
ElecMinimize: Iter:   3  F: -2223.830267450352949  |grad|_K:  3.373e-06  alpha:  1.681e-01  linmin: -3.122e-05  t[s]:   6100.30
	Linear fluid (dielectric constant: 78.4, screening length: 8.12261 Bohr) occupying 0.478007 of unit cell:	Completed after 11 iterations at t[s]:   6126.48
	Linear fluid (dielectric constant: 78.4, screening length: 8.12261 Bohr) occupying 0.477978 of unit cell:	Completed after 12 iterations at t[s]:   6147.00
	FillingsUpdate:  mu: -0.181212370  nElectrons: 418.000000  magneticMoment: [ Abs: 0.00021  Tot: +0.00006 ]
	SubspaceRotationAdjust: set factor to 0.147
ElecMinimize: Iter:   4  F: -2223.831250753878066  |grad|_K:  3.420e-06  alpha:  4.484e-01  linmin:  2.173e-05  t[s]:   6170.13
	Linear fluid (dielectric constant: 78.4, screening length: 8.12261 Bohr) occupying 0.477922 of unit cell:	Completed after 13 iterations at t[s]:   6196.71
	Linear fluid (dielectric constant: 78.4, screening length: 8.12261 Bohr) occupying 0.477948 of unit cell:	Completed after 9 iterations at t[s]:   6216.66
	FillingsUpdate:  mu: -0.181860812  nElectrons: 418.000000  magneticMoment: [ Abs: 0.00020  Tot: +0.00006 ]
	SubspaceRotationAdjust: set factor to 0.159
ElecMinimize: Iter:   5  F: -2223.831741658420924  |grad|_K:  2.512e-06  alpha:  2.180e-01  linmin:  1.528e-06  t[s]:   6240.70
	Linear fluid (dielectric constant: 78.4, screening length: 8.12261 Bohr) occupying 0.477936 of unit cell:	Completed after 14 iterations at t[s]:   6267.53
	Linear fluid (dielectric constant: 78.4, screening length: 8.12261 Bohr) occupying 0.477928 of unit cell:	Completed after 15 iterations at t[s]:   6288.48
	FillingsUpdate:  mu: -0.183037182  nElectrons: 418.000000  magneticMoment: [ Abs: 0.00020  Tot: +0.00006 ]
	SubspaceRotationAdjust: set factor to 0.164
ElecMinimize: Iter:   6  F: -2223.832237310265555  |grad|_K:  2.044e-06  alpha:  4.081e-01  linmin:  2.565e-05  t[s]:   6311.94
	Linear fluid (dielectric constant: 78.4, screening length: 8.12261 Bohr) occupying 0.477933 of unit cell:	Completed after 14 iterations at t[s]:   6338.20
	Linear fluid (dielectric constant: 78.4, screening length: 8.12261 Bohr) occupying 0.477933 of unit cell:	Completed after 3 iterations at t[s]:   6357.60
	FillingsUpdate:  mu: -0.183712867  nElectrons: 418.000000  magneticMoment: [ Abs: 0.00020  Tot: +0.00005 ]
	SubspaceRotationAdjust: set factor to 0.17
ElecMinimize: Iter:   7  F: -2223.832580311944184  |grad|_K:  2.004e-06  alpha:  4.269e-01  linmin:  7.789e-06  t[s]:   6380.68
	Linear fluid (dielectric constant: 78.4, screening length: 8.12261 Bohr) occupying 0.477999 of unit cell:	Completed after 13 iterations at t[s]:   6407.22
	Linear fluid (dielectric constant: 78.4, screening length: 8.12261 Bohr) occupying 0.477976 of unit cell:	Completed after 10 iterations at t[s]:   6427.38
	FillingsUpdate:  mu: -0.181848140  nElectrons: 418.000000  magneticMoment: [ Abs: 0.00019  Tot: +0.00005 ]
	SubspaceRotationAdjust: set factor to 0.175
ElecMinimize: Iter:   8  F: -2223.832792589638302  |grad|_K:  1.879e-06  alpha:  2.746e-01  linmin: -6.723e-07  t[s]:   6450.68
	Linear fluid (dielectric constant: 78.4, screening length: 8.12261 Bohr) occupying 0.478022 of unit cell:	Completed after 11 iterations at t[s]:   6476.85
	Linear fluid (dielectric constant: 78.4, screening length: 8.12261 Bohr) occupying 0.478028 of unit cell:	Completed after 6 iterations at t[s]:   6496.27
	FillingsUpdate:  mu: -0.181602101  nElectrons: 418.000000  magneticMoment: [ Abs: 0.00019  Tot: +0.00005 ]
	SubspaceRotationAdjust: set factor to 0.171
ElecMinimize: Iter:   9  F: -2223.833003801618815  |grad|_K:  1.630e-06  alpha:  3.102e-01  linmin:  7.098e-06  t[s]:   6520.35
	Linear fluid (dielectric constant: 78.4, screening length: 8.12261 Bohr) occupying 0.478089 of unit cell:	Completed after 14 iterations at t[s]:   6547.19
	Linear fluid (dielectric constant: 78.4, screening length: 8.12261 Bohr) occupying 0.478073 of unit cell:	Completed after 9 iterations at t[s]:   6567.07
	FillingsUpdate:  mu: -0.182804511  nElectrons: 418.000000  magneticMoment: [ Abs: 0.00019  Tot: +0.00004 ]
	SubspaceRotationAdjust: set factor to 0.146
ElecMinimize: Iter:  10  F: -2223.833120646283078  |grad|_K:  1.211e-06  alpha:  2.283e-01  linmin:  6.119e-07  t[s]:   6590.23
	Linear fluid (dielectric constant: 78.4, screening length: 8.12261 Bohr) occupying 0.478108 of unit cell:	Completed after 10 iterations at t[s]:   6615.88
	Linear fluid (dielectric constant: 78.4, screening length: 8.12261 Bohr) occupying 0.478125 of unit cell:	Completed after 6 iterations at t[s]:   6635.75
	FillingsUpdate:  mu: -0.182068986  nElectrons: 418.000000  magneticMoment: [ Abs: 0.00018  Tot: +0.00004 ]
	SubspaceRotationAdjust: set factor to 0.153
ElecMinimize: Iter:  11  F: -2223.833217169516502  |grad|_K:  1.095e-06  alpha:  3.413e-01  linmin:  2.200e-06  t[s]:   6658.63
	Linear fluid (dielectric constant: 78.4, screening length: 8.12261 Bohr) occupying 0.478171 of unit cell:	Completed after 9 iterations at t[s]:   6684.20
	Linear fluid (dielectric constant: 78.4, screening length: 8.12261 Bohr) occupying 0.478170 of unit cell:	Completed after 1 iterations at t[s]:   6702.87
	FillingsUpdate:  mu: -0.182108062  nElectrons: 418.000000  magneticMoment: [ Abs: 0.00018  Tot: +0.00004 ]
	SubspaceRotationAdjust: set factor to 0.164
ElecMinimize: Iter:  12  F: -2223.833294530611511  |grad|_K:  7.813e-07  alpha:  3.349e-01  linmin:  8.996e-06  t[s]:   6725.91
	Linear fluid (dielectric constant: 78.4, screening length: 8.12261 Bohr) occupying 0.478189 of unit cell:	Completed after 9 iterations at t[s]:   6751.32
	Linear fluid (dielectric constant: 78.4, screening length: 8.12261 Bohr) occupying 0.478187 of unit cell:	Completed after 2 iterations at t[s]:   6770.44
	FillingsUpdate:  mu: -0.182043497  nElectrons: 418.000000  magneticMoment: [ Abs: 0.00017  Tot: +0.00003 ]
	SubspaceRotationAdjust: set factor to 0.162
ElecMinimize: Iter:  13  F: -2223.833330208871757  |grad|_K:  6.759e-07  alpha:  3.037e-01  linmin:  1.688e-06  t[s]:   6793.31
	Linear fluid (dielectric constant: 78.4, screening length: 8.12261 Bohr) occupying 0.478197 of unit cell:	Completed after 10 iterations at t[s]:   6819.23
	Linear fluid (dielectric constant: 78.4, screening length: 8.12261 Bohr) occupying 0.478195 of unit cell:	Completed after 7 iterations at t[s]:   6839.65
	FillingsUpdate:  mu: -0.181967739  nElectrons: 418.000000  magneticMoment: [ Abs: 0.00017  Tot: +0.00003 ]
	SubspaceRotationAdjust: set factor to 0.131
ElecMinimize: Iter:  14  F: -2223.833350041833455  |grad|_K:  5.014e-07  alpha:  2.253e-01  linmin: -9.231e-07  t[s]:   6862.63
	Linear fluid (dielectric constant: 78.4, screening length: 8.12261 Bohr) occupying 0.478190 of unit cell:	Completed after 7 iterations at t[s]:   6887.92
	Linear fluid (dielectric constant: 78.4, screening length: 8.12261 Bohr) occupying 0.478189 of unit cell:	Completed after 2 iterations at t[s]:   6906.69
	FillingsUpdate:  mu: -0.182127409  nElectrons: 418.000000  magneticMoment: [ Abs: 0.00017  Tot: +0.00003 ]
	SubspaceRotationAdjust: set factor to 0.131
ElecMinimize: Iter:  15  F: -2223.833363987649136  |grad|_K:  3.981e-07  alpha:  2.875e-01  linmin: -6.779e-06  t[s]:   6929.68
	Linear fluid (dielectric constant: 78.4, screening length: 8.12261 Bohr) occupying 0.478178 of unit cell:	Completed after 3 iterations at t[s]:   6954.13
	Linear fluid (dielectric constant: 78.4, screening length: 8.12261 Bohr) occupying 0.478178 of unit cell:	Completed after 0 iterations at t[s]:   6972.30
	FillingsUpdate:  mu: -0.182161000  nElectrons: 418.000000  magneticMoment: [ Abs: 0.00017  Tot: +0.00003 ]
	SubspaceRotationAdjust: set factor to 0.138
[...]
ElecMinimize: Converged (|Delta F|<1.000000e-07 for 2 iters).
Setting wave functions to eigenvectors of Hamiltonian
Converging empty states (this may take a while): |deigs|: 2.138e-09

Computing DFT-D3 correction:
# coordination-number Ni 6.407 6.407 6.407 6.407 4.842 4.842 5.284 5.284
# coordination-number Au 5.867 5.867 5.867 5.867 8.414 8.414 8.414 8.414 5.867 5.867 5.867 5.867 8.411 8.411 8.448 8.411 5.765 4.848 5.771 4.848 8.412 8.412 8.412 8.412
# coordination-number C 3.702
# coordination-number O 1.086
# diagonal-C6 Ni 135.19 135.19 135.19 135.19 141.33 141.33 140.62 140.62
# diagonal-C6 Au 317.16 317.16 317.16 317.16 317.16 317.16 317.16 317.16 317.16 317.16 317.16 317.16 317.16 317.16 317.16 317.16 317.16 317.16 317.16 317.16 317.16 317.16 317.16 317.16
# diagonal-C6 C 19.29
# diagonal-C6 O 12.74
EvdW_6 =   -0.203709
EvdW_8 =   -0.386240

# Ionic positions in cartesian coordinates:
ion Ni   0.000000000000000   0.000000000000000   5.529229000000000 0
ion Ni   0.000000000000000   7.459552000000000   5.529229000000000 0
ion Ni   7.459552000000000   0.000000000000000   5.529229000000000 0
ion Ni   7.459552000000000   7.459552000000000   5.529229000000000 0
ion Ni   0.000000000000000   0.000000000000000  12.874440999999997 0
ion Ni   0.000000000000000   7.459552000000000  12.874440999999997 0
ion Ni   7.459552000000000   0.000000000000000  12.874440999999997 0
ion Ni   7.459552000000000   7.459552000000000  12.874440999999997 0
ion Au   0.000000000000000   3.729776000000000   1.785862000000000 0
ion Au   0.000000000000000  11.189328000000000   1.785862000000000 0
ion Au   7.459552000000000   3.729776000000000   1.785862000000000 0
ion Au   7.459552000000000  11.189328000000000   1.785862000000000 0
ion Au   3.729776000000000   3.729776000000000   5.578730999999999 0
ion Au   3.729776000000000  11.189328000000000   5.578730999999999 0
ion Au  11.189328000000000   3.729776000000000   5.578730999999999 0
ion Au  11.189328000000000  11.189328000000000   5.578730999999999 0
ion Au   3.729776000000000   0.000000000000000   1.785862000000000 0
ion Au   3.729776000000000   7.459552000000000   1.785862000000000 0
ion Au  11.189328000000000   0.000000000000000   1.785862000000000 0
ion Au  11.189328000000000   7.459552000000000   1.785862000000000 0
ion Au   0.000000000000000   3.729776000000000   9.365556999999999 0
ion Au   0.000000000000000  11.189328000000000   9.365556999999999 0
ion Au   7.459552000000000   3.729776000000000   9.365556999999999 0
ion Au   7.459552000000000  11.189328000000000   9.365556999999999 0
ion Au   3.729776000000000   3.729776000000000  13.391163999999998 0
ion Au   3.729776000000000  11.189328000000000  13.391163999999998 0
ion Au  11.189328000000000   3.729776000000000  13.391163999999998 0
ion Au  11.189328000000000  11.189328000000000  13.391163999999998 0
ion Au   3.729776000000000   0.000000000000000   9.365556999999999 0
ion Au   3.729776000000000   7.459552000000000   9.365556999999999 0
ion Au  11.189328000000000   0.000000000000000   9.365556999999999 0
ion Au  11.189328000000000   7.459552000000000   9.365556999999999 0
ion C   7.459552000000000   3.729776000000000  15.310767855929972 1  Linear 0 0 1
ion O   7.519645999999999   3.729776000000000  17.571322506085892 1  Linear 0 0 1

# Forces in Cartesian coordinates:
force Ni   0.000004104419334   0.000014058685436  -0.000623340164130 0
force Ni   0.000004104419334  -0.000014058685436  -0.000623340164130 0
force Ni   0.000017726519805  -0.000407017796899   0.000662560266910 0
force Ni   0.000017726519805   0.000407017796899   0.000662560266910 0
force Ni  -0.000016336611142   0.000585975390495   0.000194295449177 0
force Ni  -0.000016336611142  -0.000585975390495   0.000194295449177 0
force Ni  -0.000071423958433   0.010214310049236   0.007474507419667 0
force Ni  -0.000071423958433  -0.010214310049236   0.007474507419667 0
force Au  -0.000013506742315   0.000000000000000   0.000064875115278 0
force Au   0.000001332244950   0.000000000000000   0.000203531334484 0
force Au  -0.000005078221412   0.000000000000000   0.000020295042968 0
force Au   0.000000409404062   0.000000000000000   0.000358306907932 0
force Au  -0.001042663632828   0.000000000000000   0.000339238624463 0
force Au  -0.000320548102853   0.000000000000000   0.000087008756352 0
force Au   0.001030833362357   0.000000000000000   0.000326255439910 0
force Au   0.000326178827121   0.000000000000000   0.000079526479285 0
force Au   0.000140923596511  -0.000041370483893   0.000055627258606 0
force Au   0.000140923596511   0.000041370483893   0.000055627258606 0
force Au  -0.000141612891081  -0.000037353505697   0.000060606384015 0
force Au  -0.000141612891081   0.000037353505697   0.000060606384015 0
force Au   0.000064363625235   0.000000000000000   0.003682649118925 0
force Au  -0.000001352664180   0.000000000000000  -0.000171103228521 0
force Au   0.000070330816649   0.000000000000000  -0.012473771374401 0
force Au  -0.000013851432277   0.000000000000000   0.001757314905661 0
force Au  -0.004889911550214   0.000000000000000  -0.000520532977375 0
force Au  -0.000584114362066   0.000000000000000  -0.001764687887344 0
force Au   0.005524756774444   0.000000000000000  -0.002068625656070 0
force Au   0.000568612696716   0.000000000000000  -0.001797913268961 0
force Au  -0.000228067983922  -0.001087879873095  -0.001674858850837 0
force Au  -0.000228067983922   0.001087879873095  -0.001674858850837 0
force Au   0.000216919375049  -0.001059259102071  -0.001614230598373 0
force Au   0.000216919375049   0.001059259102071  -0.001614230598373 0
force C   0.001058052815326   0.000000000000000   0.000444751622153 1  Linear 0 0 1
force O  -0.001953569855825   0.000000000000000  -0.000326466230946 1  Linear 0 0 1

# Energy components:
   A_diel =       -0.0082754159585829
   Eewald =     6429.0461508396338104
       EH =     8529.3844413582228299
     Eloc =   -17446.3748336465723696
      Enl =      109.7033774486718869
     EvdW =       -0.5899485607620717
      Exc =     -894.3176260325660678
 Exc_core =      551.1448212613868236
       KE =      498.1257526755430831
-------------------------------------
     Etot =    -2223.8861400724003943
       TS =        0.0019148173692805
-------------------------------------
        F =    -2223.8880548897695917


Dumping 'jdft.fillings' ... done
Dumping 'jdft.wfns' ... done
Dumping 'jdft.fluidState' ... done
Dumping 'jdft.ionpos' ... done
Dumping 'jdft.lattice' ... done
Dumping 'jdft.eigenvals' ... done
Dumping 'jdft.eigStats' ... 
	eMin: -3.945619 at state 9 ( [ +0.000000 +0.000000 +0.000000 ] spin -1 )
	HOMO: -0.183249 at state 6 ( [ +0.500000 +0.000000 +0.000000 ] spin 1 )
	mu  : -0.183171
	LUMO: -0.183123 at state 0 ( [ +0.000000 +0.000000 +0.000000 ] spin 1 )
	eMax: +0.071165 at state 9 ( [ +0.000000 +0.000000 +0.000000 ] spin -1 )
	HOMO-LUMO gap: +0.000125
	Optical gap  : +0.000686 at state 14 ( [ +0.250000 +0.500000 +0.000000 ] spin -1 )
Dumping 'jdft.Ecomponents' ... done
IonicMinimize: Iter:  18  F: -2223.888054889769592  |grad|_K:  3.901e-04  alpha:  1.000e+00  linmin: -5.322e-04  t[s]:  46166.15

#--- Lowdin population analysis ---
# oxidation-state Ni +0.223 +0.223 +0.224 +0.224 +0.281 +0.281 +0.219 +0.219
# magnetic-moments Ni +0.013 +0.013 +0.027 +0.027 -0.382 -0.382 -0.095 -0.095
# oxidation-state Au -0.007 -0.005 -0.004 -0.008 -0.074 -0.073 -0.074 -0.073 -0.006 -0.006 -0.006 -0.006 -0.109 -0.101 -0.071 -0.094 -0.017 -0.050 -0.016 -0.050 -0.100 -0.100 -0.100 -0.100
# magnetic-moments Au +0.001 -0.000 +0.003 +0.003 +0.001 +0.002 +0.001 +0.002 +0.002 +0.002 +0.002 +0.002 +0.008 +0.006 +0.000 +0.001 +0.009 +0.006 +0.009 +0.006 +0.003 +0.003 +0.003 +0.003
# oxidation-state C +0.232
# magnetic-moments C +0.010
# oxidation-state O -0.158
# magnetic-moments O +0.009


Computing DFT-D3 correction:
# coordination-number Ni 6.407 6.407 6.407 6.407 4.842 4.842 5.283 5.283
# coordination-number Au 5.867 5.867 5.867 5.867 8.414 8.414 8.414 8.414 5.867 5.867 5.867 5.867 8.411 8.411 8.448 8.411 5.765 4.848 5.771 4.848 8.412 8.412 8.412 8.412
# coordination-number C 3.700
# coordination-number O 1.086
# diagonal-C6 Ni 135.19 135.19 135.19 135.19 141.33 141.33 140.62 140.62
# diagonal-C6 Au 317.16 317.16 317.16 317.16 317.16 317.16 317.16 317.16 317.16 317.16 317.16 317.16 317.16 317.16 317.16 317.16 317.16 317.16 317.16 317.16 317.16 317.16 317.16 317.16
# diagonal-C6 C 19.31
# diagonal-C6 O 12.74
EvdW_6 =   -0.203709
EvdW_8 =   -0.386240

-------- Electronic minimization -----------
	Linear fluid (dielectric constant: 78.4, screening length: 8.12261 Bohr) occupying 0.469816 of unit cell:	Completed after 5 iterations at t[s]:  46195.04
	FillingsUpdate:  mu: -0.183111774  nElectrons: 418.000000  magneticMoment: [ Abs: 1.27896  Tot: -0.76728 ]
ElecMinimize: Iter:   0  F: -2223.888053879510153  |grad|_K:  1.678e-07  alpha:  1.000e+00
	Linear fluid (dielectric constant: 78.4, screening length: 8.12261 Bohr) occupying 0.469809 of unit cell:	Completed after 10 iterations at t[s]:  46248.06
	Linear fluid (dielectric constant: 78.4, screening length: 8.12261 Bohr) occupying 0.469815 of unit cell:	Completed after 11 iterations at t[s]:  46268.82
	FillingsUpdate:  mu: -0.183121426  nElectrons: 418.000000  magneticMoment: [ Abs: 1.27940  Tot: -0.76771 ]
	SubspaceRotationAdjust: set factor to 0.16
ElecMinimize: Iter:   1  F: -2223.888054468453447  |grad|_K:  7.645e-08  alpha:  1.070e-01  linmin: -2.809e-04  t[s]:  46292.10
	Linear fluid (dielectric constant: 78.4, screening length: 8.12261 Bohr) occupying 0.469815 of unit cell:	Completed after 1 iterations at t[s]:  46316.13
	Linear fluid (dielectric constant: 78.4, screening length: 8.12261 Bohr) occupying 0.469815 of unit cell:	Completed after 1 iterations at t[s]:  46334.69
	FillingsUpdate:  mu: -0.183138631  nElectrons: 418.000000  magneticMoment: [ Abs: 1.27946  Tot: -0.76776 ]
	SubspaceRotationAdjust: set factor to 0.16
ElecMinimize: Iter:   2  F: -2223.888054800478585  |grad|_K:  4.711e-08  alpha:  2.909e-01  linmin: -5.985e-04  t[s]:  46357.74
	Linear fluid (dielectric constant: 78.4, screening length: 8.12261 Bohr) occupying 0.469815 of unit cell:	Completed after 2 iterations at t[s]:  46381.93
	Linear fluid (dielectric constant: 78.4, screening length: 8.12261 Bohr) occupying 0.469815 of unit cell:	Completed after 2 iterations at t[s]:  46400.94
	FillingsUpdate:  mu: -0.183157812  nElectrons: 418.000000  magneticMoment: [ Abs: 1.27960  Tot: -0.76791 ]
	SubspaceRotationAdjust: set factor to 0.148
ElecMinimize: Iter:   3  F: -2223.888054868655217  |grad|_K:  3.122e-08  alpha:  1.595e-01  linmin:  3.639e-04  t[s]:  46424.72
	Linear fluid (dielectric constant: 78.4, screening length: 8.12261 Bohr) occupying 0.469815 of unit cell:	Completed after 1 iterations at t[s]:  46448.78
	Linear fluid (dielectric constant: 78.4, screening length: 8.12261 Bohr) occupying 0.469815 of unit cell:	Completed after 1 iterations at t[s]:  46467.32
	FillingsUpdate:  mu: -0.183152665  nElectrons: 418.000000  magneticMoment: [ Abs: 1.27963  Tot: -0.76792 ]
	SubspaceRotationAdjust: set factor to 0.193
ElecMinimize: Iter:   4  F: -2223.888054928650945  |grad|_K:  1.952e-08  alpha:  3.221e-01  linmin: -1.480e-03  t[s]:  46490.25
ElecMinimize: Converged (|Delta F|<1.000000e-07 for 2 iters).
Setting wave functions to eigenvectors of Hamiltonian
Converging empty states (this may take a while): |deigs|: 1.280e-09

Computing DFT-D3 correction:
# coordination-number Ni 6.407 6.407 6.407 6.407 4.842 4.842 5.283 5.283
# coordination-number Au 5.867 5.867 5.867 5.867 8.414 8.414 8.414 8.414 5.867 5.867 5.867 5.867 8.411 8.411 8.448 8.411 5.765 4.848 5.771 4.848 8.412 8.412 8.412 8.412
# coordination-number C 3.700
# coordination-number O 1.086
# diagonal-C6 Ni 135.19 135.19 135.19 135.19 141.33 141.33 140.62 140.62
# diagonal-C6 Au 317.16 317.16 317.16 317.16 317.16 317.16 317.16 317.16 317.16 317.16 317.16 317.16 317.16 317.16 317.16 317.16 317.16 317.16 317.16 317.16 317.16 317.16 317.16 317.16
# diagonal-C6 C 19.31
# diagonal-C6 O 12.74
EvdW_6 =   -0.203709
EvdW_8 =   -0.386240

# Ionic positions in cartesian coordinates:
ion Ni   0.000000000000000   0.000000000000000   5.529229000000000 0
ion Ni   0.000000000000000   7.459552000000000   5.529229000000000 0
ion Ni   7.459552000000000   0.000000000000000   5.529229000000000 0
ion Ni   7.459552000000000   7.459552000000000   5.529229000000000 0
ion Ni   0.000000000000000   0.000000000000000  12.874440999999997 0
ion Ni   0.000000000000000   7.459552000000000  12.874440999999997 0
ion Ni   7.459552000000000   0.000000000000000  12.874440999999997 0
ion Ni   7.459552000000000   7.459552000000000  12.874440999999997 0
ion Au   0.000000000000000   3.729776000000000   1.785862000000000 0
ion Au   0.000000000000000  11.189328000000000   1.785862000000000 0
ion Au   7.459552000000000   3.729776000000000   1.785862000000000 0
ion Au   7.459552000000000  11.189328000000000   1.785862000000000 0
ion Au   3.729776000000000   3.729776000000000   5.578730999999999 0
ion Au   3.729776000000000  11.189328000000000   5.578730999999999 0
ion Au  11.189328000000000   3.729776000000000   5.578730999999999 0
ion Au  11.189328000000000  11.189328000000000   5.578730999999999 0
ion Au   3.729776000000000   0.000000000000000   1.785862000000000 0
ion Au   3.729776000000000   7.459552000000000   1.785862000000000 0
ion Au  11.189328000000000   0.000000000000000   1.785862000000000 0
ion Au  11.189328000000000   7.459552000000000   1.785862000000000 0
ion Au   0.000000000000000   3.729776000000000   9.365556999999999 0
ion Au   0.000000000000000  11.189328000000000   9.365556999999999 0
ion Au   7.459552000000000   3.729776000000000   9.365556999999999 0
ion Au   7.459552000000000  11.189328000000000   9.365556999999999 0
ion Au   3.729776000000000   3.729776000000000  13.391163999999998 0
ion Au   3.729776000000000  11.189328000000000  13.391163999999998 0
ion Au  11.189328000000000   3.729776000000000  13.391163999999998 0
ion Au  11.189328000000000  11.189328000000000  13.391163999999998 0
ion Au   3.729776000000000   0.000000000000000   9.365556999999999 0
ion Au   3.729776000000000   7.459552000000000   9.365556999999999 0
ion Au  11.189328000000000   0.000000000000000   9.365556999999999 0
ion Au  11.189328000000000   7.459552000000000   9.365556999999999 0
ion C   7.459552000000000   3.729776000000000  15.312390175044019 1  Linear 0 0 1
ion O   7.519645999999999   3.729776000000000  17.572743280807341 1  Linear 0 0 1

# Forces in Cartesian coordinates:
force Ni   0.000003995393491   0.000013644681884  -0.000630863285187 0
force Ni   0.000003995393491  -0.000013644681884  -0.000630863285187 0
force Ni   0.000017802849682  -0.000407179427028   0.000657352831525 0
force Ni   0.000017802849682   0.000407179427028   0.000657352831525 0
force Ni  -0.000014676111601   0.000581473769698   0.000256920203127 0
force Ni  -0.000014676111601  -0.000581473769698   0.000256920203127 0
force Ni  -0.000072653520527   0.010243664605228   0.007546749257174 0
force Ni  -0.000072653520527  -0.010243664605228   0.007546749257174 0
force Au  -0.000013466356261   0.000000000000000   0.000066391426391 0
force Au   0.000001330464689   0.000000000000000   0.000204006516592 0
force Au  -0.000004949531335   0.000000000000000   0.000024040121311 0
force Au   0.000000384457488   0.000000000000000   0.000362433743759 0
force Au  -0.001057631487146   0.000000000000000   0.000328962361879 0
force Au  -0.000335745532352   0.000000000000000   0.000077933928978 0
force Au   0.001045798485693   0.000000000000000   0.000315987899264 0
force Au   0.000341391974915   0.000000000000000   0.000070404759632 0
force Au   0.000132840900541  -0.000041123924166   0.000058031081227 0
force Au   0.000132840900541   0.000041123924166   0.000058031081227 0
force Au  -0.000133535838639  -0.000037107229360   0.000063009895744 0
force Au  -0.000133535838639   0.000037107229360   0.000063009895744 0
force Au   0.000064656513254   0.000000000000000   0.003670584574338 0
force Au  -0.000001250506795   0.000000000000000  -0.000184551415830 0
force Au   0.000070066973043   0.000000000000000  -0.012489733025333 0
force Au  -0.000013960007932   0.000000000000000   0.001755409336682 0
force Au  -0.004820359771471   0.000000000000000  -0.000484744416930 0
force Au  -0.000592878817646   0.000000000000000  -0.001744371202461 0
force Au   0.005452769415420   0.000000000000000  -0.002039699050147 0
force Au   0.000577311961246   0.000000000000000  -0.001782481447316 0
force Au  -0.000233347628515  -0.001086988771574  -0.001686086102639 0
force Au  -0.000233347628515   0.001086988771574  -0.001686086102639 0
force Au   0.000222162822714  -0.001058551477620  -0.001625859295448 0
force Au   0.000222162822714   0.001058551477620  -0.001625859295448 0
force C   0.001046071251535   0.000000000000000   0.000351321021244 1  Linear 0 0 1
force O  -0.001959295126451   0.000000000000000  -0.000376900750862 1  Linear 0 0 1

# Energy components:
   A_diel =       -0.0082686837059759
   Eewald =     6428.9473794263949458
       EH =     8529.2869522669207072
     Eloc =   -17446.1789746470349201
      Enl =      109.7039817257772825
     EvdW =       -0.5899491883799698
      Exc =     -894.3175087375409475
 Exc_core =      551.1448213377821048
       KE =      498.1254267899927868
-------------------------------------
     Etot =    -2223.8861397097944064
       TS =        0.0019152188564490
-------------------------------------
        F =    -2223.8880549286509449


Dumping 'jdft.fillings' ... done
Dumping 'jdft.wfns' ... done
Dumping 'jdft.fluidState' ... done
Dumping 'jdft.ionpos' ... done
Dumping 'jdft.lattice' ... done
Dumping 'jdft.eigenvals' ... done
Dumping 'jdft.eigStats' ... 
	eMin: -3.945599 at state 9 ( [ +0.000000 +0.000000 +0.000000 ] spin -1 )
	HOMO: -0.183229 at state 6 ( [ +0.500000 +0.000000 +0.000000 ] spin 1 )
	mu  : -0.183153
	LUMO: -0.183113 at state 0 ( [ +0.000000 +0.000000 +0.000000 ] spin 1 )
	eMax: +0.071181 at state 9 ( [ +0.000000 +0.000000 +0.000000 ] spin -1 )
	HOMO-LUMO gap: +0.000116
	Optical gap  : +0.000685 at state 14 ( [ +0.250000 +0.500000 +0.000000 ] spin -1 )
Dumping 'jdft.Ecomponents' ... done
IonicMinimize: Iter:  19  F: -2223.888054928650945  |grad|_K:  3.643e-04  alpha:  1.000e+00  linmin: -6.594e-04  t[s]:  46554.78
IonicMinimize: Converged (|Delta F|<1.000000e-06 for 2 iters).

#--- Lowdin population analysis ---
# oxidation-state Ni +0.223 +0.223 +0.224 +0.224 +0.282 +0.282 +0.219 +0.219
# magnetic-moments Ni +0.013 +0.013 +0.027 +0.027 -0.382 -0.382 -0.095 -0.095
# oxidation-state Au -0.007 -0.005 -0.004 -0.008 -0.074 -0.073 -0.074 -0.073 -0.006 -0.006 -0.006 -0.006 -0.109 -0.101 -0.071 -0.094 -0.018 -0.050 -0.017 -0.050 -0.100 -0.100 -0.100 -0.100
# magnetic-moments Au +0.001 -0.000 +0.003 +0.003 +0.001 +0.002 +0.001 +0.002 +0.002 +0.002 +0.002 +0.002 +0.008 +0.006 +0.000 +0.001 +0.009 +0.006 +0.009 +0.006 +0.003 +0.003 +0.003 +0.003
# oxidation-state C +0.232
# magnetic-moments C +0.010
# oxidation-state O -0.158
# magnetic-moments O +0.009


Dumping 'jdft.n_up' ... done
Dumping 'jdft.n_dn' ... done
Dumping 'jdft.tau_up' ... done
Dumping 'jdft.tau_dn' ... done
Dumping 'jdft.eigenvals' ... done
Dumping 'jdft.eigStats' ... 
	eMin: -3.945599 at state 9 ( [ +0.000000 +0.000000 +0.000000 ] spin -1 )
	HOMO: -0.183229 at state 6 ( [ +0.500000 +0.000000 +0.000000 ] spin 1 )
	mu  : -0.183153
	LUMO: -0.183113 at state 0 ( [ +0.000000 +0.000000 +0.000000 ] spin 1 )
	eMax: +0.071181 at state 9 ( [ +0.000000 +0.000000 +0.000000 ] spin -1 )
	HOMO-LUMO gap: +0.000116
	Optical gap  : +0.000685 at state 14 ( [ +0.250000 +0.500000 +0.000000 ] spin -1 )
Dumping 'jdft.kPts' ... done
Dumping 'jdft.kMap' ... done
Dumping 'jdft.dosUp' ... done.
Dumping 'jdft.dosDn' ... done.
End date and time: Tue Mar  1 02:55:13 2022  (Duration: 0-12:56:33.28)
Done!
