
*************** JDFTx 1.6.0  ***************

Start date and time: Mon Feb 28 22:57:14 2022
Executable /projects/musgravc/apps/jdftx-1.6.1/build/jdftx with command-line: -i in
Running on hosts (process indices):  shas0343.rc.int.colorado.edu (0-23)
Divided in process groups (process indices):  0 (0)  1 (1)  2 (2)  3 (3)  4 (4)  5 (5)  6 (6)  7 (7)  8 (8)  9 (9)  10 (10)  11 (11)  12 (12)  13 (13)  14 (14)  15 (15)  16 (16)  17 (17)  18 (18)  19 (19)  20 (20)  21 (21)  22 (22)  23 (23)
Resource initialization completed at t[s]:      0.00
Run totals: 24 processes, 24 threads, 0 GPUs


Input parsed successfully to the following command list (including defaults):

basis kpoint-dependent
converge-empty-states yes
coords-type Cartesian
core-overlap-check none
coulomb-interaction Periodic
davidson-band-ratio 1.1
density-of-states Etol 1.000000e-06 Esigma 1.000000e-03 \
		Complete \
	Total \
	OrthoOrbital Ni 1   s \
	OrthoOrbital Ni 1   p \
	OrthoOrbital Ni 1   px \
	OrthoOrbital Ni 1   py \
	OrthoOrbital Ni 1   pz \
	OrthoOrbital Ni 1   d \
	OrthoOrbital Ni 1   dxy \
	OrthoOrbital Ni 1   dyz \
	OrthoOrbital Ni 1   dz2 \
	OrthoOrbital Ni 1   dxz \
	OrthoOrbital Ni 1   dx2-y2 \
	OrthoOrbital Ni 2   s \
	OrthoOrbital Ni 2   p \
	OrthoOrbital Ni 2   px \
	OrthoOrbital Ni 2   py \
	OrthoOrbital Ni 2   pz \
	OrthoOrbital Ni 2   d \
	OrthoOrbital Ni 2   dxy \
	OrthoOrbital Ni 2   dyz \
	OrthoOrbital Ni 2   dz2 \
	OrthoOrbital Ni 2   dxz \
	OrthoOrbital Ni 2   dx2-y2 \
	OrthoOrbital Ni 3   s \
	OrthoOrbital Ni 3   p \
	OrthoOrbital Ni 3   px \
	OrthoOrbital Ni 3   py \
	OrthoOrbital Ni 3   pz \
	OrthoOrbital Ni 3   d \
	OrthoOrbital Ni 3   dxy \
	OrthoOrbital Ni 3   dyz \
	OrthoOrbital Ni 3   dz2 \
	OrthoOrbital Ni 3   dxz \
	OrthoOrbital Ni 3   dx2-y2 \
	OrthoOrbital Ni 4   s \
	OrthoOrbital Ni 4   p \
	OrthoOrbital Ni 4   px \
	OrthoOrbital Ni 4   py \
	OrthoOrbital Ni 4   pz \
	OrthoOrbital Ni 4   d \
	OrthoOrbital Ni 4   dxy \
	OrthoOrbital Ni 4   dyz \
	OrthoOrbital Ni 4   dz2 \
	OrthoOrbital Ni 4   dxz \
	OrthoOrbital Ni 4   dx2-y2 \
	OrthoOrbital Ni 5   s \
	OrthoOrbital Ni 5   p \
	OrthoOrbital Ni 5   px \
	OrthoOrbital Ni 5   py \
	OrthoOrbital Ni 5   pz \
	OrthoOrbital Ni 5   d \
	OrthoOrbital Ni 5   dxy \
	OrthoOrbital Ni 5   dyz \
	OrthoOrbital Ni 5   dz2 \
	OrthoOrbital Ni 5   dxz \
	OrthoOrbital Ni 5   dx2-y2 \
	OrthoOrbital Ni 6   s \
	OrthoOrbital Ni 6   p \
	OrthoOrbital Ni 6   px \
	OrthoOrbital Ni 6   py \
	OrthoOrbital Ni 6   pz \
	OrthoOrbital Ni 6   d \
	OrthoOrbital Ni 6   dxy \
	OrthoOrbital Ni 6   dyz \
	OrthoOrbital Ni 6   dz2 \
	OrthoOrbital Ni 6   dxz \
	OrthoOrbital Ni 6   dx2-y2 \
	OrthoOrbital Ni 7   s \
	OrthoOrbital Ni 7   p \
	OrthoOrbital Ni 7   px \
	OrthoOrbital Ni 7   py \
	OrthoOrbital Ni 7   pz \
	OrthoOrbital Ni 7   d \
	OrthoOrbital Ni 7   dxy \
	OrthoOrbital Ni 7   dyz \
	OrthoOrbital Ni 7   dz2 \
	OrthoOrbital Ni 7   dxz \
	OrthoOrbital Ni 7   dx2-y2 \
	OrthoOrbital Ni 8   s \
	OrthoOrbital Ni 8   p \
	OrthoOrbital Ni 8   px \
	OrthoOrbital Ni 8   py \
	OrthoOrbital Ni 8   pz \
	OrthoOrbital Ni 8   d \
	OrthoOrbital Ni 8   dxy \
	OrthoOrbital Ni 8   dyz \
	OrthoOrbital Ni 8   dz2 \
	OrthoOrbital Ni 8   dxz \
	OrthoOrbital Ni 8   dx2-y2 \
	OrthoOrbital Au 1   s \
	OrthoOrbital Au 1   p \
	OrthoOrbital Au 1   px \
	OrthoOrbital Au 1   py \
	OrthoOrbital Au 1   pz \
	OrthoOrbital Au 1   d \
	OrthoOrbital Au 1   dxy \
	OrthoOrbital Au 1   dyz \
	OrthoOrbital Au 1   dz2 \
	OrthoOrbital Au 1   dxz \
	OrthoOrbital Au 1   dx2-y2 \
	OrthoOrbital Au 2   s \
	OrthoOrbital Au 2   p \
	OrthoOrbital Au 2   px \
	OrthoOrbital Au 2   py \
	OrthoOrbital Au 2   pz \
	OrthoOrbital Au 2   d \
	OrthoOrbital Au 2   dxy \
	OrthoOrbital Au 2   dyz \
	OrthoOrbital Au 2   dz2 \
	OrthoOrbital Au 2   dxz \
	OrthoOrbital Au 2   dx2-y2 \
	OrthoOrbital Au 3   s \
	OrthoOrbital Au 3   p \
	OrthoOrbital Au 3   px \
	OrthoOrbital Au 3   py \
	OrthoOrbital Au 3   pz \
	OrthoOrbital Au 3   d \
	OrthoOrbital Au 3   dxy \
	OrthoOrbital Au 3   dyz \
	OrthoOrbital Au 3   dz2 \
	OrthoOrbital Au 3   dxz \
	OrthoOrbital Au 3   dx2-y2 \
	OrthoOrbital Au 4   s \
	OrthoOrbital Au 4   p \
	OrthoOrbital Au 4   px \
	OrthoOrbital Au 4   py \
	OrthoOrbital Au 4   pz \
	OrthoOrbital Au 4   d \
	OrthoOrbital Au 4   dxy \
	OrthoOrbital Au 4   dyz \
	OrthoOrbital Au 4   dz2 \
	OrthoOrbital Au 4   dxz \
	OrthoOrbital Au 4   dx2-y2 \
	OrthoOrbital Au 5   s \
	OrthoOrbital Au 5   p \
	OrthoOrbital Au 5   px \
	OrthoOrbital Au 5   py \
	OrthoOrbital Au 5   pz \
	OrthoOrbital Au 5   d \
	OrthoOrbital Au 5   dxy \
	OrthoOrbital Au 5   dyz \
	OrthoOrbital Au 5   dz2 \
	OrthoOrbital Au 5   dxz \
	OrthoOrbital Au 5   dx2-y2 \
	OrthoOrbital Au 6   s \
	OrthoOrbital Au 6   p \
	OrthoOrbital Au 6   px \
	OrthoOrbital Au 6   py \
	OrthoOrbital Au 6   pz \
	OrthoOrbital Au 6   d \
	OrthoOrbital Au 6   dxy \
	OrthoOrbital Au 6   dyz \
	OrthoOrbital Au 6   dz2 \
	OrthoOrbital Au 6   dxz \
	OrthoOrbital Au 6   dx2-y2 \
	OrthoOrbital Au 7   s \
	OrthoOrbital Au 7   p \
	OrthoOrbital Au 7   px \
	OrthoOrbital Au 7   py \
	OrthoOrbital Au 7   pz \
	OrthoOrbital Au 7   d \
	OrthoOrbital Au 7   dxy \
	OrthoOrbital Au 7   dyz \
	OrthoOrbital Au 7   dz2 \
	OrthoOrbital Au 7   dxz \
	OrthoOrbital Au 7   dx2-y2 \
	OrthoOrbital Au 8   s \
	OrthoOrbital Au 8   p \
	OrthoOrbital Au 8   px \
	OrthoOrbital Au 8   py \
	OrthoOrbital Au 8   pz \
	OrthoOrbital Au 8   d \
	OrthoOrbital Au 8   dxy \
	OrthoOrbital Au 8   dyz \
	OrthoOrbital Au 8   dz2 \
	OrthoOrbital Au 8   dxz \
	OrthoOrbital Au 8   dx2-y2 \
	OrthoOrbital Au 9   s \
	OrthoOrbital Au 9   p \
	OrthoOrbital Au 9   px \
	OrthoOrbital Au 9   py \
	OrthoOrbital Au 9   pz \
	OrthoOrbital Au 9   d \
	OrthoOrbital Au 9   dxy \
	OrthoOrbital Au 9   dyz \
	OrthoOrbital Au 9   dz2 \
	OrthoOrbital Au 9   dxz \
	OrthoOrbital Au 9   dx2-y2 \
	OrthoOrbital Au 10   s \
	OrthoOrbital Au 10   p \
	OrthoOrbital Au 10   px \
	OrthoOrbital Au 10   py \
	OrthoOrbital Au 10   pz \
	OrthoOrbital Au 10   d \
	OrthoOrbital Au 10   dxy \
	OrthoOrbital Au 10   dyz \
	OrthoOrbital Au 10   dz2 \
	OrthoOrbital Au 10   dxz \
	OrthoOrbital Au 10   dx2-y2 \
	OrthoOrbital Au 11   s \
	OrthoOrbital Au 11   p \
	OrthoOrbital Au 11   px \
	OrthoOrbital Au 11   py \
	OrthoOrbital Au 11   pz \
	OrthoOrbital Au 11   d \
	OrthoOrbital Au 11   dxy \
	OrthoOrbital Au 11   dyz \
	OrthoOrbital Au 11   dz2 \
	OrthoOrbital Au 11   dxz \
	OrthoOrbital Au 11   dx2-y2 \
	OrthoOrbital Au 12   s \
	OrthoOrbital Au 12   p \
	OrthoOrbital Au 12   px \
	OrthoOrbital Au 12   py \
	OrthoOrbital Au 12   pz \
	OrthoOrbital Au 12   d \
	OrthoOrbital Au 12   dxy \
	OrthoOrbital Au 12   dyz \
	OrthoOrbital Au 12   dz2 \
	OrthoOrbital Au 12   dxz \
	OrthoOrbital Au 12   dx2-y2 \
	OrthoOrbital Au 13   s \
	OrthoOrbital Au 13   p \
	OrthoOrbital Au 13   px \
	OrthoOrbital Au 13   py \
	OrthoOrbital Au 13   pz \
	OrthoOrbital Au 13   d \
	OrthoOrbital Au 13   dxy \
	OrthoOrbital Au 13   dyz \
	OrthoOrbital Au 13   dz2 \
	OrthoOrbital Au 13   dxz \
	OrthoOrbital Au 13   dx2-y2 \
	OrthoOrbital Au 14   s \
	OrthoOrbital Au 14   p \
	OrthoOrbital Au 14   px \
	OrthoOrbital Au 14   py \
	OrthoOrbital Au 14   pz \
	OrthoOrbital Au 14   d \
	OrthoOrbital Au 14   dxy \
	OrthoOrbital Au 14   dyz \
	OrthoOrbital Au 14   dz2 \
	OrthoOrbital Au 14   dxz \
	OrthoOrbital Au 14   dx2-y2 \
	OrthoOrbital Au 15   s \
	OrthoOrbital Au 15   p \
	OrthoOrbital Au 15   px \
	OrthoOrbital Au 15   py \
	OrthoOrbital Au 15   pz \
	OrthoOrbital Au 15   d \
	OrthoOrbital Au 15   dxy \
	OrthoOrbital Au 15   dyz \
	OrthoOrbital Au 15   dz2 \
	OrthoOrbital Au 15   dxz \
	OrthoOrbital Au 15   dx2-y2 \
	OrthoOrbital Au 16   s \
	OrthoOrbital Au 16   p \
	OrthoOrbital Au 16   px \
	OrthoOrbital Au 16   py \
	OrthoOrbital Au 16   pz \
	OrthoOrbital Au 16   d \
	OrthoOrbital Au 16   dxy \
	OrthoOrbital Au 16   dyz \
	OrthoOrbital Au 16   dz2 \
	OrthoOrbital Au 16   dxz \
	OrthoOrbital Au 16   dx2-y2 \
	OrthoOrbital Au 17   s \
	OrthoOrbital Au 17   p \
	OrthoOrbital Au 17   px \
	OrthoOrbital Au 17   py \
	OrthoOrbital Au 17   pz \
	OrthoOrbital Au 17   d \
	OrthoOrbital Au 17   dxy \
	OrthoOrbital Au 17   dyz \
	OrthoOrbital Au 17   dz2 \
	OrthoOrbital Au 17   dxz \
	OrthoOrbital Au 17   dx2-y2 \
	OrthoOrbital Au 18   s \
	OrthoOrbital Au 18   p \
	OrthoOrbital Au 18   px \
	OrthoOrbital Au 18   py \
	OrthoOrbital Au 18   pz \
	OrthoOrbital Au 18   d \
	OrthoOrbital Au 18   dxy \
	OrthoOrbital Au 18   dyz \
	OrthoOrbital Au 18   dz2 \
	OrthoOrbital Au 18   dxz \
	OrthoOrbital Au 18   dx2-y2 \
	OrthoOrbital Au 19   s \
	OrthoOrbital Au 19   p \
	OrthoOrbital Au 19   px \
	OrthoOrbital Au 19   py \
	OrthoOrbital Au 19   pz \
	OrthoOrbital Au 19   d \
	OrthoOrbital Au 19   dxy \
	OrthoOrbital Au 19   dyz \
	OrthoOrbital Au 19   dz2 \
	OrthoOrbital Au 19   dxz \
	OrthoOrbital Au 19   dx2-y2 \
	OrthoOrbital Au 20   s \
	OrthoOrbital Au 20   p \
	OrthoOrbital Au 20   px \
	OrthoOrbital Au 20   py \
	OrthoOrbital Au 20   pz \
	OrthoOrbital Au 20   d \
	OrthoOrbital Au 20   dxy \
	OrthoOrbital Au 20   dyz \
	OrthoOrbital Au 20   dz2 \
	OrthoOrbital Au 20   dxz \
	OrthoOrbital Au 20   dx2-y2 \
	OrthoOrbital Au 21   s \
	OrthoOrbital Au 21   p \
	OrthoOrbital Au 21   px \
	OrthoOrbital Au 21   py \
	OrthoOrbital Au 21   pz \
	OrthoOrbital Au 21   d \
	OrthoOrbital Au 21   dxy \
	OrthoOrbital Au 21   dyz \
	OrthoOrbital Au 21   dz2 \
	OrthoOrbital Au 21   dxz \
	OrthoOrbital Au 21   dx2-y2 \
	OrthoOrbital Au 22   s \
	OrthoOrbital Au 22   p \
	OrthoOrbital Au 22   px \
	OrthoOrbital Au 22   py \
	OrthoOrbital Au 22   pz \
	OrthoOrbital Au 22   d \
	OrthoOrbital Au 22   dxy \
	OrthoOrbital Au 22   dyz \
	OrthoOrbital Au 22   dz2 \
	OrthoOrbital Au 22   dxz \
	OrthoOrbital Au 22   dx2-y2 \
	OrthoOrbital Au 23   s \
	OrthoOrbital Au 23   p \
	OrthoOrbital Au 23   px \
	OrthoOrbital Au 23   py \
	OrthoOrbital Au 23   pz \
	OrthoOrbital Au 23   d \
	OrthoOrbital Au 23   dxy \
	OrthoOrbital Au 23   dyz \
	OrthoOrbital Au 23   dz2 \
	OrthoOrbital Au 23   dxz \
	OrthoOrbital Au 23   dx2-y2 \
	OrthoOrbital Au 24   s \
	OrthoOrbital Au 24   p \
	OrthoOrbital Au 24   px \
	OrthoOrbital Au 24   py \
	OrthoOrbital Au 24   pz \
	OrthoOrbital Au 24   d \
	OrthoOrbital Au 24   dxy \
	OrthoOrbital Au 24   dyz \
	OrthoOrbital Au 24   dz2 \
	OrthoOrbital Au 24   dxz \
	OrthoOrbital Au 24   dx2-y2 \
	OrthoOrbital C 1   s \
	OrthoOrbital C 1   p \
	OrthoOrbital C 1   px \
	OrthoOrbital C 1   py \
	OrthoOrbital C 1   pz \
	OrthoOrbital O 1   s \
	OrthoOrbital O 1   p \
	OrthoOrbital O 1   px \
	OrthoOrbital O 1   py \
	OrthoOrbital O 1   pz
dump End ElecDensity KEdensity BandEigs EigStats RhoAtom DOS Kpoints
dump Ionic State IonicPositions Lattice EigStats Ecomponents
dump 
dump 
dump 
dump 
dump 
dump 
dump 
dump 
dump-name jdft.$VAR
elec-cutoff 20
elec-eigen-algo Davidson
elec-ex-corr gga-PBE
elec-initial-magnetization 0.000000 no
elec-n-bands 251
elec-smearing Fermi 0.001
electronic-minimize  \
	dirUpdateScheme      FletcherReeves \
	linminMethod         DirUpdateRecommended \
	nIterations          100 \
	history              15 \
	knormThreshold       0 \
	energyDiffThreshold  1e-07 \
	nEnergyDiff          2 \
	alphaTstart          1 \
	alphaTmin            1e-10 \
	updateTestStepSize   yes \
	alphaTreduceFactor   0.1 \
	alphaTincreaseFactor 3 \
	nAlphaAdjustMax      3 \
	wolfeEnergy          0.0001 \
	wolfeGradient        0.9 \
	fdTest               no
exchange-regularization WignerSeitzTruncated
fluid LinearPCM 298.000000 1.013250
fluid-anion F- 0.5 MeanFieldLJ \
	epsBulk 1 \
	pMol 0 \
	epsInf 1 \
	Pvap 0 \
	sigmaBulk 0 \
	Rvdw 2.24877 \
	Res 0 \
	tauNuc 343133
fluid-cation Na+ 0.5 MeanFieldLJ \
	epsBulk 1 \
	pMol 0 \
	epsInf 1 \
	Pvap 0 \
	sigmaBulk 0 \
	Rvdw 2.19208 \
	Res 0 \
	tauNuc 343133
fluid-ex-corr lda-TF lda-PZ
fluid-gummel-loop 10 1.000000e-05
fluid-minimize  \
	dirUpdateScheme      PolakRibiere \
	linminMethod         DirUpdateRecommended \
	nIterations          400 \
	history              15 \
	knormThreshold       1e-11 \
	energyDiffThreshold  0 \
	nEnergyDiff          2 \
	alphaTstart          1 \
	alphaTmin            1e-10 \
	updateTestStepSize   yes \
	alphaTreduceFactor   0.1 \
	alphaTincreaseFactor 3 \
	nAlphaAdjustMax      6 \
	wolfeEnergy          0.0001 \
	wolfeGradient        0.9 \
	fdTest               no
fluid-solvent H2O 55.338 ScalarEOS \
	epsBulk 78.4 \
	pMol 0.92466 \
	epsInf 1.77 \
	Pvap 1.06736e-10 \
	sigmaBulk 4.62e-05 \
	Rvdw 2.61727 \
	Res 1.42 \
	tauNuc 343133 \
	poleEl 15 7 1
forces-output-coords Positions
ion Ni   0.000000000000000   0.000000000000000   5.529229000000000 0
ion Ni   0.000000000000000   7.459552000000000   5.529229000000000 0
ion Ni   7.459552000000000   0.000000000000000   5.529229000000000 0
ion Ni   7.459552000000000   7.459552000000000   5.529229000000000 0
ion Ni   0.000000000000000   0.000000000000000  12.874440999999997 0
ion Ni   0.000000000000000   7.459552000000000  12.874440999999997 0
ion Ni   7.459552000000000   0.000000000000000  12.874440999999997 0
ion Ni   7.459552000000000   7.459552000000000  12.874440999999997 0
ion Au   0.000000000000000   3.729776000000000   1.785862000000000 0
ion Au   0.000000000000000  11.189328000000000   1.785862000000000 0
ion Au   7.459552000000000   3.729776000000000   1.785862000000000 0
ion Au   7.459552000000000  11.189328000000000   1.785862000000000 0
ion Au   3.729776000000000   3.729776000000000   5.578730999999999 0
ion Au   3.729776000000000  11.189328000000000   5.578730999999999 0
ion Au  11.189328000000000   3.729776000000000   5.578730999999999 0
ion Au  11.189328000000000  11.189328000000000   5.578730999999999 0
ion Au   3.729776000000000   0.000000000000000   1.785862000000000 0
ion Au   3.729776000000000   7.459552000000000   1.785862000000000 0
ion Au  11.189328000000000   0.000000000000000   1.785862000000000 0
ion Au  11.189328000000000   7.459552000000000   1.785862000000000 0
ion Au   0.000000000000000   3.729776000000000   9.365556999999999 0
ion Au   0.000000000000000  11.189328000000000   9.365556999999999 0
ion Au   7.459552000000000   3.729776000000000   9.365556999999999 0
ion Au   7.459552000000000  11.189328000000000   9.365556999999999 0
ion Au   3.729776000000000   3.729776000000000  13.391163999999998 0
ion Au   3.729776000000000  11.189328000000000  13.391163999999998 0
ion Au  11.189328000000000   3.729776000000000  13.391163999999998 0
ion Au  11.189328000000000  11.189328000000000  13.391163999999998 0
ion Au   3.729776000000000   0.000000000000000   9.365556999999999 0
ion Au   3.729776000000000   7.459552000000000   9.365556999999999 0
ion Au  11.189328000000000   0.000000000000000   9.365556999999999 0
ion Au  11.189328000000000   7.459552000000000   9.365556999999999 0
ion C   3.729776000000000   3.729776000000000  17.170605999999996 1  Linear 0 0 1
ion O   3.789870000000000   3.729776000000000  19.325983999999995 1  Linear 0 0 1
ion-species /projects/musgravc/apps/jdftx-1.6.0/build/pseudopotentials/GBRV_v1.5/$ID_pbe_v1.uspp
ion-species /projects/musgravc/apps/jdftx-1.6.0/build/pseudopotentials/GBRV_v1.5/$ID_pbe_v1.2.uspp
ion-species /projects/musgravc/apps/jdftx-1.6.0/build/pseudopotentials/GBRV_v1.5/$ID_pbe_v1.4.uspp
ion-species /projects/musgravc/apps/jdftx-1.6.0/build/pseudopotentials/GBRV_v1.5/$ID_pbe_v1.5.uspp
ion-width Ecut
ionic-minimize  \
	dirUpdateScheme      L-BFGS \
	linminMethod         DirUpdateRecommended \
	nIterations          100 \
	history              15 \
	knormThreshold       0.0001 \
	energyDiffThreshold  1e-06 \
	nEnergyDiff          2 \
	alphaTstart          1 \
	alphaTmin            1e-10 \
	updateTestStepSize   yes \
	alphaTreduceFactor   0.1 \
	alphaTincreaseFactor 3 \
	nAlphaAdjustMax      3 \
	wolfeEnergy          0.0001 \
	wolfeGradient        0.9 \
	fdTest               no
kpoint   0.000000000000   0.000000000000   0.000000000000  1.00000000000000
kpoint-folding 4 4 1 
latt-move-scale 0 0 0
latt-scale 1 1 1 
lattice  \
	  14.919104000000001    0.000000000000000    0.000000000000000  \
	   0.000000000000000   14.919104000000001    0.000000000000000  \
	   0.000000000000000    0.000000000000000   44.757313000000003 
lattice-minimize  \
	dirUpdateScheme      L-BFGS \
	linminMethod         DirUpdateRecommended \
	nIterations          0 \
	history              15 \
	knormThreshold       0 \
	energyDiffThreshold  1e-06 \
	nEnergyDiff          2 \
	alphaTstart          1 \
	alphaTmin            1e-10 \
	updateTestStepSize   yes \
	alphaTreduceFactor   0.1 \
	alphaTincreaseFactor 3 \
	nAlphaAdjustMax      3 \
	wolfeEnergy          0.0001 \
	wolfeGradient        0.9 \
	fdTest               no
lcao-params 30 1e-06 0.001
pcm-variant CANDLE
spintype z-spin
subspace-rotation-factor 1 yes
symmetries automatic
symmetry-threshold 0.0001
van-der-waals D3



---------- Setting up symmetries ----------

Found 16 point-group symmetries of the bravais lattice
Found 2 space-group symmetries with basis
Applied RMS atom displacement 0 bohrs to make symmetries exact.

---------- Initializing the Grid ----------
R = 
[      14.9191            0            0  ]
[            0      14.9191            0  ]
[            0            0      44.7573  ]
unit cell volume = 9962.07
G =
[    0.42115          0          0  ]
[          0    0.42115          0  ]
[          0          0   0.140383  ]
Minimum fftbox size, Smin = [  64  64  184  ]
Chosen fftbox size, S = [  64  64  192  ]

---------- Exchange Correlation functional ----------
Initalized PBE GGA exchange.
Initalized PBE GGA correlation.

---------- Setting up pseudopotentials ----------
Width of ionic core gaussian charges (only for fluid interactions / plotting) set to 0.397384

Reading pseudopotential file '/projects/musgravc/apps/jdftx-1.6.0/build/pseudopotentials/GBRV_v1.5/ni_pbe_v1.4.uspp':
  Title: Ni.  Created by USPP 7.3.6 on 1-4-15
  Reference state energy: -170.398381.  18 valence electrons in orbitals:
    |300>  occupation: 2  eigenvalue: -4.804705
    |310>  occupation: 6  eigenvalue: -3.347751
    |320>  occupation: 8  eigenvalue: -1.042415
    |400>  occupation: 0  eigenvalue: -0.795539
    |410>  occupation: 0  eigenvalue: -0.551375
  lMax: 2  lLocal: 3  QijEcut: 6.5
  6 projectors sampled on a log grid with 611 points:
    l: 0  eig: -4.804708  rCut: 1.44
    l: 0  eig: -0.795541  rCut: 1.44
    l: 1  eig: -3.347753  rCut: 1.55
    l: 1  eig: 0.500000  rCut: 1.55
    l: 2  eig: -1.042418  rCut: 1.5
    l: 2  eig: -0.450000  rCut: 1.5
  Partial core density with radius 0.65
  Transforming core density to a uniform radial grid of dG=0.02 with 1173 points.
  Transforming local potential to a uniform radial grid of dG=0.02 with 1173 points.
  Transforming nonlocal projectors to a uniform radial grid of dG=0.02 with 432 points.
  Transforming density augmentations to a uniform radial grid of dG=0.02 with 1173 points.
  Transforming atomic orbitals to a uniform radial grid of dG=0.02 with 432 points.
  Core radius for overlap checks: 1.55 bohrs.

Reading pseudopotential file '/projects/musgravc/apps/jdftx-1.6.0/build/pseudopotentials/GBRV_v1.5/au_pbe_v1.uspp':
  Title: Au.  Created by USPP 7.3.6 on 14-9-2013
  Reference state energy: -57.375295.  11 valence electrons in orbitals:
    |520>  occupation: 10  eigenvalue: -0.252742
    |600>  occupation: 1  eigenvalue: -0.211744
    |610>  occupation: 0  eigenvalue: -0.028291
  lMax: 3  lLocal: -1  QijEcut: 5
  7 projectors sampled on a log grid with 755 points:
    l: 0  eig: -0.211744  rCut: 2.3
    l: 0  eig: 0.500000  rCut: 2.3
    l: 1  eig: -0.028291  rCut: 2.35
    l: 1  eig: 0.850000  rCut: 2.35
    l: 2  eig: -0.252741  rCut: 2.1
    l: 2  eig: 1.000000  rCut: 2.1
    l: 3  eig: 0.000000  rCut: 2.5
  Partial core density with radius 1
  Transforming core density to a uniform radial grid of dG=0.02 with 1173 points.
  Transforming local potential to a uniform radial grid of dG=0.02 with 1173 points.
  Transforming nonlocal projectors to a uniform radial grid of dG=0.02 with 432 points.
  Transforming density augmentations to a uniform radial grid of dG=0.02 with 1173 points.
  Transforming atomic orbitals to a uniform radial grid of dG=0.02 with 432 points.
  Core radius for overlap checks: 2.50 bohrs.

Reading pseudopotential file '/projects/musgravc/apps/jdftx-1.6.0/build/pseudopotentials/GBRV_v1.5/c_pbe_v1.2.uspp':
  Title: C.  Created by USPP 7.3.6 on 3-2-2014
  Reference state energy: -5.406344.  4 valence electrons in orbitals:
    |200>  occupation: 2  eigenvalue: -0.504890
    |210>  occupation: 2  eigenvalue: -0.194356
  lMax: 1  lLocal: 2  QijEcut: 5
  4 projectors sampled on a log grid with 503 points:
    l: 0  eig: -0.504890  rCut: 1.3
    l: 0  eig: 0.000000  rCut: 1.3
    l: 1  eig: -0.194357  rCut: 1.3
    l: 1  eig: 0.000000  rCut: 1.3
  Partial core density with radius 1.1
  Transforming core density to a uniform radial grid of dG=0.02 with 1173 points.
  Transforming local potential to a uniform radial grid of dG=0.02 with 1173 points.
  Transforming nonlocal projectors to a uniform radial grid of dG=0.02 with 432 points.
  Transforming density augmentations to a uniform radial grid of dG=0.02 with 1173 points.
  Transforming atomic orbitals to a uniform radial grid of dG=0.02 with 432 points.
  Core radius for overlap checks: 1.30 bohrs.

Reading pseudopotential file '/projects/musgravc/apps/jdftx-1.6.0/build/pseudopotentials/GBRV_v1.5/o_pbe_v1.2.uspp':
  Title: O.  Created by USPP 7.3.6 on 3-2-2014
  Reference state energy: -15.894388.  6 valence electrons in orbitals:
    |200>  occupation: 2  eigenvalue: -0.878823
    |210>  occupation: 4  eigenvalue: -0.332131
  lMax: 2  lLocal: 2  QijEcut: 6
  5 projectors sampled on a log grid with 511 points:
    l: 0  eig: -0.878823  rCut: 1.25
    l: 0  eig: 0.000000  rCut: 1.25
    l: 1  eig: -0.332132  rCut: 1.25
    l: 1  eig: 0.000000  rCut: 1.25
    l: 2  eig: 1.000000  rCut: 1.25
  Partial core density with radius 0.7
  Transforming core density to a uniform radial grid of dG=0.02 with 1173 points.
  Transforming local potential to a uniform radial grid of dG=0.02 with 1173 points.
  Transforming nonlocal projectors to a uniform radial grid of dG=0.02 with 432 points.
  Transforming density augmentations to a uniform radial grid of dG=0.02 with 1173 points.
  Transforming atomic orbitals to a uniform radial grid of dG=0.02 with 432 points.
  Core radius for overlap checks: 1.25 bohrs.

Initialized 4 species with 34 total atoms.

Folded 1 k-points by 4x4x1 to 16 k-points.

---------- Setting up k-points, bands, fillings ----------
Adding inversion symmetry to k-mesh for non-inversion-symmetric unit cell.
Reduced to 9 k-points under symmetry. 
Computing the number of bands and number of electrons
Calculating initial fillings.
nElectrons: 418.000000   nBands: 251   nStates: 18

----- Setting up reduced wavefunction bases (one per k-point) -----
average nbasis = 42558.188 , ideal nbasis = 42558.712

----- Initializing Supercell corresponding to k-point mesh -----
Lattice vector linear combinations in supercell:
[   4   0   0  ]
[   0   4   0  ]
[   0   0   1  ]
Supercell lattice vectors:
[  59.6764  0  0  ]
[  0  59.6764  0  ]
[  0  0  44.7573  ]

Initializing DFT-D3 calculator:
	Parameters set for gga-PBE functional
	s6:  1.000  s_r6:  1.217
	s8:  0.722  s_r8:  1.000
	Per-atom parameters loaded for:
	Ni:  sqrtQ[a0]:  5.285  Rcov[a0]:  1.871  CN: [ 0.00 1.79 6.55 6.29 ]
	Au:  sqrtQ[a0]:  5.707  Rcov[a0]:  2.135  CN: [ 0.00 0.98 ]
	 C:  sqrtQ[a0]:  3.105  Rcov[a0]:  1.417  CN: [ 0.00 0.99 2.00 3.00 3.98 ]
	 O:  sqrtQ[a0]:  2.594  Rcov[a0]:  1.191  CN: [ 0.00 0.99 1.99 ]

Initializing DFT-D2 calculator for fluid / solvation:
	Ni:  C6:  187.33 Eh-a0^6  R0: 2.952 a0
	Au:  C6:  815.23 Eh-a0^6  R0: 3.326 a0 (WARNING: beyond Grimme's data set)
	 C:  C6:   30.35 Eh-a0^6  R0: 2.744 a0
	 O:  C6:   12.14 Eh-a0^6  R0: 2.536 a0

---------- Setting up ewald sum ----------
Optimum gaussian width for ewald sums = 4.769213 bohr.
Real space sum over 847 unit cells with max indices [  5  5  3  ]
Reciprocal space sum over 5577 terms with max indices [  6  6  16  ]

Computing DFT-D3 correction:
# coordination-number Ni 6.407 6.407 6.407 6.407 4.845 4.845 4.845 4.845
# coordination-number Au 5.867 5.867 5.867 5.867 8.414 8.414 8.414 8.414 5.867 5.867 5.867 5.867 8.411 8.411 8.411 8.411 5.846 4.848 4.848 4.846 8.411 8.411 8.411 8.411
# coordination-number C 2.007
# coordination-number O 1.022
# diagonal-C6 Ni 135.19 135.19 135.19 135.19 141.33 141.33 141.33 141.33
# diagonal-C6 Au 317.16 317.16 317.16 317.16 317.16 317.16 317.16 317.16 317.16 317.16 317.16 317.16 317.16 317.16 317.16 317.16 317.16 317.16 317.16 317.16 317.16 317.16 317.16 317.16
# diagonal-C6 C 29.48
# diagonal-C6 O 12.79
EvdW_6 =   -0.203494
EvdW_8 =   -0.385823

---------- Allocating electronic variables ----------
Initializing wave functions:  linear combination of atomic orbitals
Ni pseudo-atom occupations:   s ( 2 0 )  p ( 6 0 )  d ( 10 )
Au pseudo-atom occupations:   s ( 1 )  p ( 0 )  d ( 10 )
C pseudo-atom occupations:   s ( 2 )  p ( 2 )
O pseudo-atom occupations:   s ( 2 )  p ( 4 )
	FillingsUpdate:  mu: -1.532054243  nElectrons: 418.000000  magneticMoment: [ Abs: 0.01111  Tot: -0.00458 ]
LCAOMinimize: Iter:   0  F: -1969.7526591879204716  |grad|_K:  2.773e-02  alpha:  1.000e+00
LCAOMinimize: 	Step increased F by 8.710975e+02, reducing alpha to 2.673090e-02.
	FillingsUpdate:  mu: -1.083270756  nElectrons: 418.000000  magneticMoment: [ Abs: 0.00695  Tot: +0.00077 ]
LCAOMinimize: Iter:   1  F: -2003.8370983802262799  |grad|_K:  1.921e-02  alpha:  2.673e-02  linmin: -1.297e-01  cgtest:  9.043e-01  t[s]:    125.86
LCAOMinimize: Encountered beta<0, resetting CG.
LCAOMinimize: 	Wrong curvature in test step, increasing alphaT to 8.019270e-02.
	FillingsUpdate:  mu: -0.657289593  nElectrons: 418.000000  magneticMoment: [ Abs: 0.00783  Tot: -0.00264 ]
LCAOMinimize: Iter:   2  F: -2023.5706970063185963  |grad|_K:  1.794e-02  alpha: -5.028e-01  linmin: -1.082e-01  cgtest:  8.053e-01  t[s]:    162.64
LCAOMinimize: 	Step increased F by 3.857363e+02, reducing alpha to 2.718483e-02.
	FillingsUpdate:  mu: -0.425138616  nElectrons: 418.000000  magneticMoment: [ Abs: 0.00762  Tot: -0.00075 ]
LCAOMinimize: Iter:   3  F: -2049.9783731314137185  |grad|_K:  2.352e-02  alpha:  2.718e-02  linmin: -1.525e-01  cgtest:  6.073e-01  t[s]:    228.40
LCAOMinimize: 	Wrong curvature in test step, increasing alphaT to 8.155450e-02.
	FillingsUpdate:  mu: +1.105313157  nElectrons: 418.000000  magneticMoment: [ Abs: 0.00660  Tot: -0.00014 ]
LCAOMinimize: Iter:   4  F: -2196.7221826510153733  |grad|_K:  3.350e-02  alpha: -1.066e-02  linmin: -1.280e-02  cgtest:  3.947e-02  t[s]:    265.28
LCAOMinimize: 	Step increased F by 5.362635e+02, reducing alpha to 4.275964e-02.
LCAOMinimize: 	Step increased F by 7.911403e+01, reducing alpha to 4.275964e-03.
LCAOMinimize: 	Step increased F by 3.042141e+01, reducing alpha to 4.275964e-04.
LCAOMinimize: 	Step failed to reduce F after 3 attempts. Quitting step.
LCAOMinimize: 	Undoing step.
LCAOMinimize: 	Step failed: resetting search direction.
	FillingsUpdate:  mu: +2.195071071  nElectrons: 418.000000  magneticMoment: [ Abs: 0.00362  Tot: -0.00016 ]
LCAOMinimize: Iter:   5  F: -2169.3330854929972702  |grad|_K:  5.078e-02  alpha:  4.276e-04
LCAOMinimize: 	Step increased F by 1.537410e+03, reducing alpha to 3.661598e-02.
LCAOMinimize: 	Step increased F by 1.643338e+01, reducing alpha to 3.661598e-03.
	FillingsUpdate:  mu: +1.843050856  nElectrons: 418.000000  magneticMoment: [ Abs: 0.00359  Tot: -0.00010 ]
LCAOMinimize: Iter:   6  F: -2188.2093690253659588  |grad|_K:  4.380e-02  alpha:  3.662e-03  linmin: -9.112e-02  cgtest:  9.104e-01  t[s]:    480.26
LCAOMinimize: Encountered beta<0, resetting CG.
	FillingsUpdate:  mu: +1.115108402  nElectrons: 418.000000  magneticMoment: [ Abs: 0.00389  Tot: +0.00013 ]
LCAOMinimize: Iter:   7  F: -2209.2144966772862062  |grad|_K:  2.297e-02  alpha:  8.034e-03  linmin: -9.869e-02  cgtest:  9.626e-01  t[s]:    518.66
LCAOMinimize: Encountered beta<0, resetting CG.
	FillingsUpdate:  mu: +0.860200193  nElectrons: 418.000000  magneticMoment: [ Abs: 0.00458  Tot: +0.00049 ]
LCAOMinimize: Iter:   8  F: -2214.9805765256401173  |grad|_K:  1.107e-02  alpha:  1.022e-02  linmin: -1.172e-01  cgtest:  8.527e-01  t[s]:    557.13
LCAOMinimize: Encountered beta<0, resetting CG.
LCAOMinimize: 	Predicted alpha/alphaT>3.000000, increasing alphaT to 3.065257e-02.
	FillingsUpdate:  mu: +0.330846574  nElectrons: 418.000000  magneticMoment: [ Abs: 0.00429  Tot: +0.00027 ]
LCAOMinimize: Iter:   9  F: -2218.9487299702045675  |grad|_K:  1.386e-02  alpha:  5.097e-02  linmin:  6.460e-02  cgtest: -1.087e-01  t[s]:    606.45
	FillingsUpdate:  mu: +0.206244490  nElectrons: 418.000000  magneticMoment: [ Abs: 0.00429  Tot: +0.00043 ]
LCAOMinimize: Iter:  10  F: -2219.2461180497962232  |grad|_K:  1.381e-02  alpha:  1.021e-02  linmin:  4.255e-03  cgtest:  9.977e-01  t[s]:    644.81
LCAOMinimize: Encountered beta<0, resetting CG.
	FillingsUpdate:  mu: +0.345416806  nElectrons: 418.000000  magneticMoment: [ Abs: 0.00473  Tot: +0.00087 ]
LCAOMinimize: Iter:  11  F: -2221.4114375800322705  |grad|_K:  7.627e-03  alpha:  1.817e-02  linmin:  1.249e-01  cgtest: -7.646e-01  t[s]:    683.32
LCAOMinimize: 	Bad step direction: g.d > 0.
LCAOMinimize: 	Undoing step.
LCAOMinimize: 	Step failed: resetting search direction.
	FillingsUpdate:  mu: +0.345416806  nElectrons: 418.000000  magneticMoment: [ Abs: 0.00473  Tot: +0.00087 ]
LCAOMinimize: Iter:  12  F: -2221.4114375800322705  |grad|_K:  7.627e-03  alpha:  0.000e+00
	FillingsUpdate:  mu: +0.135334678  nElectrons: 418.000000  magneticMoment: [ Abs: 0.00438  Tot: +0.00022 ]
LCAOMinimize: Iter:  13  F: -2222.2302599186446059  |grad|_K:  1.905e-03  alpha:  1.357e-02  linmin:  1.886e-02  cgtest: -2.655e-02  t[s]:    749.20
LCAOMinimize: 	Predicted alpha/alphaT>3.000000, increasing alphaT to 4.070307e-02.
	FillingsUpdate:  mu: +0.216926748  nElectrons: 418.000000  magneticMoment: [ Abs: 0.00423  Tot: +0.00097 ]
LCAOMinimize: Iter:  14  F: -2222.5436826149125409  |grad|_K:  1.854e-03  alpha:  9.495e-02  linmin:  8.103e-03  cgtest:  1.265e-01  t[s]:    798.49
	FillingsUpdate:  mu: +0.196178008  nElectrons: 418.000000  magneticMoment: [ Abs: 0.00464  Tot: +0.00150 ]
LCAOMinimize: Iter:  15  F: -2222.6777599471420217  |grad|_K:  1.832e-03  alpha:  3.579e-02  linmin: -1.116e-02  cgtest:  1.714e-01  t[s]:    836.87
	FillingsUpdate:  mu: +0.097041103  nElectrons: 418.000000  magneticMoment: [ Abs: 0.00456  Tot: +0.00110 ]
LCAOMinimize: Iter:  16  F: -2222.8285290083003929  |grad|_K:  1.425e-03  alpha:  4.305e-02  linmin:  1.288e-02  cgtest: -5.590e-01  t[s]:    875.30
	FillingsUpdate:  mu: +0.019798939  nElectrons: 418.000000  magneticMoment: [ Abs: 0.00473  Tot: +0.00119 ]
LCAOMinimize: Iter:  17  F: -2222.8632936176763906  |grad|_K:  1.121e-03  alpha:  2.334e-02  linmin: -1.556e-03  cgtest:  7.409e-01  t[s]:    914.30
	FillingsUpdate:  mu: +0.056677831  nElectrons: 418.000000  magneticMoment: [ Abs: 0.00481  Tot: +0.00143 ]
LCAOMinimize: Iter:  18  F: -2222.9008831036840093  |grad|_K:  1.096e-03  alpha:  2.991e-02  linmin: -1.058e-02  cgtest:  2.976e-02  t[s]:    952.71
	FillingsUpdate:  mu: +0.087901812  nElectrons: 418.000000  magneticMoment: [ Abs: 0.00469  Tot: +0.00149 ]
LCAOMinimize: Iter:  19  F: -2222.9355177235465817  |grad|_K:  5.079e-04  alpha:  2.757e-02  linmin: -7.371e-03  cgtest: -1.377e-01  t[s]:    991.17
LCAOMinimize: 	Predicted alpha/alphaT>3.000000, increasing alphaT to 8.271419e-02.
	FillingsUpdate:  mu: +0.112768338  nElectrons: 418.000000  magneticMoment: [ Abs: 0.00503  Tot: +0.00202 ]
LCAOMinimize: Iter:  20  F: -2222.9733802018322422  |grad|_K:  5.360e-04  alpha:  1.397e-01  linmin: -7.842e-03  cgtest:  1.662e-01  t[s]:   1040.51
	FillingsUpdate:  mu: +0.101049124  nElectrons: 418.000000  magneticMoment: [ Abs: 0.00509  Tot: +0.00206 ]
LCAOMinimize: Iter:  21  F: -2222.9812218218203270  |grad|_K:  3.634e-04  alpha:  2.190e-02  linmin: -2.962e-02  cgtest:  1.790e-01  t[s]:   1078.94
	FillingsUpdate:  mu: +0.066680052  nElectrons: 418.000000  magneticMoment: [ Abs: 0.00558  Tot: +0.00257 ]
LCAOMinimize: Iter:  22  F: -2222.9903196284476508  |grad|_K:  3.422e-04  alpha:  6.299e-02  linmin:  3.979e-03  cgtest: -2.986e-01  t[s]:   1117.45
	FillingsUpdate:  mu: +0.057076332  nElectrons: 418.000000  magneticMoment: [ Abs: 0.00586  Tot: +0.00286 ]
LCAOMinimize: Iter:  23  F: -2222.9935160447334965  |grad|_K:  2.845e-04  alpha:  2.873e-02  linmin: -1.945e-03  cgtest:  3.030e-01  t[s]:   1155.90
	FillingsUpdate:  mu: +0.064132386  nElectrons: 418.000000  magneticMoment: [ Abs: 0.00644  Tot: +0.00348 ]
LCAOMinimize: Iter:  24  F: -2222.9984590834665141  |grad|_K:  1.331e-04  alpha:  6.149e-02  linmin: -1.723e-03  cgtest: -9.160e-02  t[s]:   1194.31
	FillingsUpdate:  mu: +0.068946994  nElectrons: 418.000000  magneticMoment: [ Abs: 0.00658  Tot: +0.00363 ]
LCAOMinimize: Iter:  25  F: -2222.9988815902638635  |grad|_K:  1.131e-04  alpha:  2.447e-02  linmin:  9.114e-04  cgtest: -1.744e-02  t[s]:   1232.85
LCAOMinimize: 	Predicted alpha/alphaT>3.000000, increasing alphaT to 7.341862e-02.
	FillingsUpdate:  mu: +0.074660984  nElectrons: 418.000000  magneticMoment: [ Abs: 0.00764  Tot: +0.00474 ]
LCAOMinimize: Iter:  26  F: -2222.9999602338580189  |grad|_K:  8.305e-05  alpha:  8.694e-02  linmin: -1.740e-03  cgtest:  7.673e-02  t[s]:   1282.17
	FillingsUpdate:  mu: +0.072159210  nElectrons: 418.000000  magneticMoment: [ Abs: 0.00845  Tot: +0.00557 ]
LCAOMinimize: Iter:  27  F: -2223.0003463091411504  |grad|_K:  6.312e-05  alpha:  5.657e-02  linmin: -4.247e-05  cgtest: -2.215e-02  t[s]:   1320.73
	FillingsUpdate:  mu: +0.069646490  nElectrons: 418.000000  magneticMoment: [ Abs: 0.00894  Tot: +0.00606 ]
LCAOMinimize: Iter:  28  F: -2223.0004408118711581  |grad|_K:  3.954e-05  alpha:  2.428e-02  linmin: -2.619e-04  cgtest: -1.993e-03  t[s]:   1359.17
	FillingsUpdate:  mu: +0.070153074  nElectrons: 418.000000  magneticMoment: [ Abs: 0.00963  Tot: +0.00674 ]
LCAOMinimize: Iter:  29  F: -2223.0005004325157643  |grad|_K:  3.584e-05  alpha:  3.912e-02  linmin:  2.026e-04  cgtest: -5.898e-03  t[s]:   1397.67
	FillingsUpdate:  mu: +0.070430517  nElectrons: 418.000000  magneticMoment: [ Abs: 0.01093  Tot: +0.00802 ]
LCAOMinimize: Iter:  30  F: -2223.0005605063815892  |grad|_K:  1.706e-05  alpha:  4.809e-02  linmin: -3.869e-05  cgtest:  1.416e-02  t[s]:   1436.03
LCAOMinimize: None of the convergence criteria satisfied after 30 iterations.
----- createFluidSolver() ----- (Fluid-side solver setup)
   Initializing fluid molecule 'H2O'
     Initializing site 'O'
       Electron density: proportional to exp(-r/0.36935)*erfc((r-0.51523)/0.36823) with norm 6.826
       Charge density: gaussian nuclear width 0.478731 with net site charge 0.826
       Polarizability: cuspless exponential with width 0.32 and norm 3.73
       Hard sphere radius: 2.57003 bohrs
       Positions in reference frame:
         [ +0.000000 +0.000000 +0.000000 ]
     Initializing site 'H'
       Electron density: proportional to exp(-r/0.34641)*erfc((r-0)/0.390882) with norm 0.587
       Charge density: gaussian nuclear width 0.377945 with net site charge -0.413
       Polarizability: cuspless exponential with width 0.39 and norm 3.3
       Positions in reference frame:
         [ +0.000000 -1.441945 +1.122523 ]
         [ +0.000000 +1.441945 +1.122523 ]
     Net charge: 0   dipole magnitude: 0.927204
     Initializing spherical shell mfKernel with radius 2.61727 Bohr
     deltaS corrections:
       site 'O': -7.54299
       site 'H': -6.83917
   Initializing fluid molecule 'Na+'
     Initializing site 'Na'
       Electron density: proportional to exp(-r/0.19682)*erfc((r-0.71491)/0.41314) with norm 8.1383
       Charge density: gaussian nuclear width 0.365347 with net site charge -1
       Hard sphere radius: 1.86327 bohrs
       Positions in reference frame:
         [ +0.000000 +0.000000 +0.000000 ]
     Net charge: -1   dipole magnitude: 0
     Initializing gaussian mfKernel with width: 1.55004 Bohr
     deltaS corrections:
       site 'Na': -22.3555
   Initializing fluid molecule 'F-'
     Initializing site 'F'
       Electron density: proportional to exp(-r/0.38886)*erfc((r-0)/0.438782) with norm 8
       Charge density: gaussian nuclear width 0.374796 with net site charge 1
       Hard sphere radius: 2.39995 bohrs
       Positions in reference frame:
         [ +0.000000 +0.000000 +0.000000 ]
     Net charge: 1   dipole magnitude: 0
     Initializing gaussian mfKernel with width: 1.59012 Bohr
     deltaS corrections:
       site 'F': -9.04335

Correction to mu due to finite nuclear width = -0.0416319
   Cavity determined by nc: 0.00142 and sigma: 0.707107
   Nonlocal vdW cavity from gaussian model electron density with norm = 8 and sigma = 0.993594 bohr
   Charge asymmetry in cavity with sensitivity pCavity = 36.5 e-bohr/Eh
   Electrostatic cavity expanded by eta = 1.46 bohrs
   Weighted density cavitation model constrained by Nbulk: 0.0049383 bohr^-3, Pvap: 3.14029 kPa, Rvdw: 2.61727 bohr and sigmaBulk: 4.62e-05 Eh/bohr^2 at T: 298 K.
   Weighted density dispersion model using vdW pair potentials with single solvent site with sqrtC6eff: 0.77 SI.


---- Citations for features of the code used in this run ----

   Software package:
      R. Sundararaman, K. Letchworth-Weaver, K.A. Schwarz, D. Gunceler, Y. Ozhabes and T.A. Arias, 'JDFTx: software for joint density-functional theory', SoftwareX 6, 278 (2017)

   gga-PBE exchange-correlation functional:
      J.P. Perdew, K. Burke and M. Ernzerhof, Phys. Rev. Lett. 77, 3865 (1996)

   Pseudopotentials:
      KF Garrity, JW Bennett, KM Rabe and D Vanderbilt, Comput. Mater. Sci. 81, 446 (2014)

   DFT-D3 dispersion correction:
      S. Grimme, J. Antony, S. Ehrlich and H. Krieg, J. Chem. Phys. 132, 154104 (2010)

   DFT-D2 dispersion correction:
      S. Grimme, J. Comput. Chem. 27, 1787 (2006)

   Charge-asymmetric nonlocally-determined local-electric (CANDLE) solvation model:
      R. Sundararaman and W.A. Goddard III, J. Chem. Phys. 142, 064107 (2015)

   Total energy minimization with Auxiliary Hamiltonian:
      C. Freysoldt, S. Boeck, and J. Neugebauer, Phys. Rev. B 79, 241103(R) (2009)

   Linear-tetrahedron sampling for density of states:
      G. Lehmann and M. Taut, Phys. status solidi (b) 54, 469 (1972)

This list may not be complete. Please suggest additional citations or
report any other bugs at https://github.com/shankar1729/jdftx/issues

Initialization completed successfully at t[s]:   1448.66


Computing DFT-D3 correction:
# coordination-number Ni 6.407 6.407 6.407 6.407 4.845 4.845 4.845 4.845
# coordination-number Au 5.867 5.867 5.867 5.867 8.414 8.414 8.414 8.414 5.867 5.867 5.867 5.867 8.411 8.411 8.411 8.411 5.846 4.848 4.848 4.846 8.411 8.411 8.411 8.411
# coordination-number C 2.007
# coordination-number O 1.022
# diagonal-C6 Ni 135.19 135.19 135.19 135.19 141.33 141.33 141.33 141.33
# diagonal-C6 Au 317.16 317.16 317.16 317.16 317.16 317.16 317.16 317.16 317.16 317.16 317.16 317.16 317.16 317.16 317.16 317.16 317.16 317.16 317.16 317.16 317.16 317.16 317.16 317.16
# diagonal-C6 C 29.48
# diagonal-C6 O 12.79
EvdW_6 =   -0.203494
EvdW_8 =   -0.385823
Fluid solver invoked on fresh (random / LCAO) wavefunctions
Running a vacuum solve first:

-------- Initial electronic minimization -----------
	FillingsUpdate:  mu: +0.070430669  nElectrons: 418.000000  magneticMoment: [ Abs: 0.01093  Tot: +0.00802 ]
ElecMinimize: Iter:   0  F: -2223.000560506381589  |grad|_K:  8.293e-05  alpha:  1.000e+00
	FillingsUpdate:  mu: +0.044162761  nElectrons: 418.000000  magneticMoment: [ Abs: 0.01462  Tot: +0.01203 ]
	SubspaceRotationAdjust: set factor to 0.744
ElecMinimize: Iter:   1  F: -2223.407951509759641  |grad|_K:  1.159e-04  alpha:  3.028e-01  linmin: -2.535e-05  t[s]:   1546.75
	FillingsUpdate:  mu: +0.201418944  nElectrons: 418.000000  magneticMoment: [ Abs: 0.01058  Tot: +0.00847 ]
	SubspaceRotationAdjust: set factor to 0.433
ElecMinimize: Iter:   2  F: -2223.576682216279096  |grad|_K:  1.157e-04  alpha:  1.046e-01  linmin:  1.187e-03  t[s]:   1609.01
	FillingsUpdate:  mu: +0.183254705  nElectrons: 418.000000  magneticMoment: [ Abs: 0.01151  Tot: +0.00951 ]
	SubspaceRotationAdjust: set factor to 0.393
ElecMinimize: Iter:   3  F: -2223.623466631484007  |grad|_K:  6.253e-05  alpha:  3.575e-02  linmin:  2.645e-04  t[s]:   1671.45
ElecMinimize: 	Predicted alpha/alphaT>3.000000, increasing alphaT to 1.072392e-01.
	FillingsUpdate:  mu: +0.146622446  nElectrons: 418.000000  magneticMoment: [ Abs: 0.01392  Tot: +0.01199 ]
	SubspaceRotationAdjust: set factor to 0.273
ElecMinimize: Iter:   4  F: -2223.705455994287149  |grad|_K:  6.959e-05  alpha:  1.186e-01  linmin:  3.786e-05  t[s]:   1750.38
	FillingsUpdate:  mu: +0.069610171  nElectrons: 418.000000  magneticMoment: [ Abs: 0.01461  Tot: +0.01260 ]
	SubspaceRotationAdjust: set factor to 0.328
ElecMinimize: Iter:   5  F: -2223.763016078843975  |grad|_K:  3.775e-05  alpha:  5.672e-02  linmin: -1.472e-04  t[s]:   1813.51
	FillingsUpdate:  mu: +0.107904373  nElectrons: 418.000000  magneticMoment: [ Abs: 0.01524  Tot: +0.01319 ]
	SubspaceRotationAdjust: set factor to 0.255
ElecMinimize: Iter:   6  F: -2223.798989161924510  |grad|_K:  4.082e-05  alpha:  1.247e-01  linmin: -8.923e-05  t[s]:   1875.99
	FillingsUpdate:  mu: +0.081869739  nElectrons: 418.000000  magneticMoment: [ Abs: 0.01635  Tot: +0.01422 ]
	SubspaceRotationAdjust: set factor to 0.357
ElecMinimize: Iter:   7  F: -2223.821370668060808  |grad|_K:  2.334e-05  alpha:  6.808e-02  linmin: -8.930e-06  t[s]:   1938.41
	FillingsUpdate:  mu: +0.082551944  nElectrons: 418.000000  magneticMoment: [ Abs: 0.01700  Tot: +0.01478 ]
	SubspaceRotationAdjust: set factor to 0.318
ElecMinimize: Iter:   8  F: -2223.833457931363228  |grad|_K:  2.696e-05  alpha:  1.163e-01  linmin:  1.300e-04  t[s]:   2000.95
	FillingsUpdate:  mu: +0.082171663  nElectrons: 418.000000  magneticMoment: [ Abs: 0.01747  Tot: +0.01518 ]
	SubspaceRotationAdjust: set factor to 0.361
ElecMinimize: Iter:   9  F: -2223.844823048108992  |grad|_K:  1.690e-05  alpha:  8.344e-02  linmin:  5.190e-07  t[s]:   2063.37
	FillingsUpdate:  mu: +0.086740376  nElectrons: 418.000000  magneticMoment: [ Abs: 0.01806  Tot: +0.01575 ]
	SubspaceRotationAdjust: set factor to 0.363
ElecMinimize: Iter:  10  F: -2223.849449946631921  |grad|_K:  1.478e-05  alpha:  8.397e-02  linmin: -1.517e-04  t[s]:   2125.68
	FillingsUpdate:  mu: +0.086410560  nElectrons: 418.000000  magneticMoment: [ Abs: 0.01882  Tot: +0.01648 ]
	SubspaceRotationAdjust: set factor to 0.305
ElecMinimize: Iter:  11  F: -2223.854081788437725  |grad|_K:  1.373e-05  alpha:  1.082e-01  linmin: -1.257e-04  t[s]:   2188.37
	FillingsUpdate:  mu: +0.085403397  nElectrons: 418.000000  magneticMoment: [ Abs: 0.01898  Tot: +0.01661 ]
	SubspaceRotationAdjust: set factor to 0.319
ElecMinimize: Iter:  12  F: -2223.856840065703182  |grad|_K:  9.116e-06  alpha:  7.614e-02  linmin: -5.472e-05  t[s]:   2250.85
	FillingsUpdate:  mu: +0.086026543  nElectrons: 418.000000  magneticMoment: [ Abs: 0.01955  Tot: +0.01707 ]
	SubspaceRotationAdjust: set factor to 0.267
ElecMinimize: Iter:  13  F: -2223.858838930309048  |grad|_K:  8.722e-06  alpha:  1.248e-01  linmin:  9.827e-05  t[s]:   2313.33
	FillingsUpdate:  mu: +0.075809916  nElectrons: 418.000000  magneticMoment: [ Abs: 0.02048  Tot: +0.01787 ]
	SubspaceRotationAdjust: set factor to 0.312
ElecMinimize: Iter:  14  F: -2223.860008730492154  |grad|_K:  5.633e-06  alpha:  8.003e-02  linmin: -3.382e-06  t[s]:   2375.89
	FillingsUpdate:  mu: +0.077587625  nElectrons: 418.000000  magneticMoment: [ Abs: 0.02184  Tot: +0.01903 ]
	SubspaceRotationAdjust: set factor to 0.29
ElecMinimize: Iter:  15  F: -2223.861157621473467  |grad|_K:  7.655e-06  alpha:  1.877e-01  linmin:  3.018e-06  t[s]:   2438.41
	FillingsUpdate:  mu: +0.078915203  nElectrons: 418.000000  magneticMoment: [ Abs: 0.02286  Tot: +0.01986 ]
	SubspaceRotationAdjust: set factor to 0.359
ElecMinimize: Iter:  16  F: -2223.862089477913287  |grad|_K:  4.006e-06  alpha:  8.251e-02  linmin: -7.560e-07  t[s]:   2500.24
	FillingsUpdate:  mu: +0.080576735  nElectrons: 418.000000  magneticMoment: [ Abs: 0.02360  Tot: +0.02048 ]
	SubspaceRotationAdjust: set factor to 0.338
ElecMinimize: Iter:  17  F: -2223.862445491192375  |grad|_K:  4.077e-06  alpha:  1.151e-01  linmin:  1.190e-05  t[s]:   2562.11
	FillingsUpdate:  mu: +0.078569599  nElectrons: 418.000000  magneticMoment: [ Abs: 0.02482  Tot: +0.02154 ]
	SubspaceRotationAdjust: set factor to 0.305
ElecMinimize: Iter:  18  F: -2223.862757720263289  |grad|_K:  3.549e-06  alpha:  9.762e-02  linmin: -4.427e-07  t[s]:   2623.72
	FillingsUpdate:  mu: +0.078365701  nElectrons: 418.000000  magneticMoment: [ Abs: 0.02635  Tot: +0.02286 ]
	SubspaceRotationAdjust: set factor to 0.352
ElecMinimize: Iter:  19  F: -2223.863059512209475  |grad|_K:  2.937e-06  alpha:  1.242e-01  linmin: -8.781e-07  t[s]:   2685.29
	FillingsUpdate:  mu: +0.079912791  nElectrons: 418.000000  magneticMoment: [ Abs: 0.02748  Tot: +0.02382 ]
	SubspaceRotationAdjust: set factor to 0.304
ElecMinimize: Iter:  20  F: -2223.863235895826165  |grad|_K:  2.862e-06  alpha:  1.060e-01  linmin:  1.362e-06  t[s]:   2747.72
	FillingsUpdate:  mu: +0.079354067  nElectrons: 418.000000  magneticMoment: [ Abs: 0.02913  Tot: +0.02526 ]
	SubspaceRotationAdjust: set factor to 0.389
ElecMinimize: Iter:  21  F: -2223.863402145135296  |grad|_K:  1.855e-06  alpha:  1.053e-01  linmin: -2.160e-06  t[s]:   2809.30
	FillingsUpdate:  mu: +0.078110934  nElectrons: 418.000000  magneticMoment: [ Abs: 0.03060  Tot: +0.02654 ]
	SubspaceRotationAdjust: set factor to 0.346
ElecMinimize: Iter:  22  F: -2223.863488384029097  |grad|_K:  2.024e-06  alpha:  1.299e-01  linmin:  5.051e-06  t[s]:   2870.89
	FillingsUpdate:  mu: +0.078100260  nElectrons: 418.000000  magneticMoment: [ Abs: 0.03217  Tot: +0.02790 ]
	SubspaceRotationAdjust: set factor to 0.348
ElecMinimize: Iter:  23  F: -2223.863559647964394  |grad|_K:  1.366e-06  alpha:  9.031e-02  linmin:  1.780e-07  t[s]:   2932.50
	FillingsUpdate:  mu: +0.078589096  nElectrons: 418.000000  magneticMoment: [ Abs: 0.03391  Tot: +0.02942 ]
	SubspaceRotationAdjust: set factor to 0.303
ElecMinimize: Iter:  24  F: -2223.863608657664827  |grad|_K:  1.397e-06  alpha:  1.361e-01  linmin: -2.931e-06  t[s]:   2994.20
	FillingsUpdate:  mu: +0.079000239  nElectrons: 418.000000  magneticMoment: [ Abs: 0.03611  Tot: +0.03134 ]
	SubspaceRotationAdjust: set factor to 0.334
ElecMinimize: Iter:  25  F: -2223.863651606020085  |grad|_K:  9.333e-07  alpha:  1.141e-01  linmin: -4.086e-07  t[s]:   3055.77
	FillingsUpdate:  mu: +0.079358103  nElectrons: 418.000000  magneticMoment: [ Abs: 0.03752  Tot: +0.03256 ]
	SubspaceRotationAdjust: set factor to 0.27
ElecMinimize: Iter:  26  F: -2223.863669091376323  |grad|_K:  8.515e-07  alpha:  1.041e-01  linmin: -3.148e-07  t[s]:   3117.48
	FillingsUpdate:  mu: +0.078891226  nElectrons: 418.000000  magneticMoment: [ Abs: 0.04016  Tot: +0.03485 ]
	SubspaceRotationAdjust: set factor to 0.301
ElecMinimize: Iter:  27  F: -2223.863690442511597  |grad|_K:  6.286e-07  alpha:  1.527e-01  linmin:  1.764e-06  t[s]:   3179.10
	FillingsUpdate:  mu: +0.078641560  nElectrons: 418.000000  magneticMoment: [ Abs: 0.04253  Tot: +0.03691 ]
	SubspaceRotationAdjust: set factor to 0.263
ElecMinimize: Iter:  28  F: -2223.863702753158123  |grad|_K:  6.336e-07  alpha:  1.617e-01  linmin:  5.250e-07  t[s]:   3240.70
	FillingsUpdate:  mu: +0.078857763  nElectrons: 418.000000  magneticMoment: [ Abs: 0.04436  Tot: +0.03850 ]
	SubspaceRotationAdjust: set factor to 0.231
ElecMinimize: Iter:  29  F: -2223.863709652183388  |grad|_K:  3.532e-07  alpha:  8.917e-02  linmin:  3.114e-07  t[s]:   3302.23
ElecMinimize: 	Predicted alpha/alphaT>3.000000, increasing alphaT to 2.675144e-01.
	FillingsUpdate:  mu: +0.078760953  nElectrons: 418.000000  magneticMoment: [ Abs: 0.04765  Tot: +0.04134 ]
	SubspaceRotationAdjust: set factor to 0.247
ElecMinimize: Iter:  30  F: -2223.863716308835592  |grad|_K:  4.025e-07  alpha:  2.767e-01  linmin:  4.351e-07  t[s]:   3381.27
	FillingsUpdate:  mu: +0.078571598  nElectrons: 418.000000  magneticMoment: [ Abs: 0.04994  Tot: +0.04331 ]
	SubspaceRotationAdjust: set factor to 0.208
ElecMinimize: Iter:  31  F: -2223.863719751717781  |grad|_K:  2.858e-07  alpha:  1.101e-01  linmin: -1.447e-06  t[s]:   3442.77
	FillingsUpdate:  mu: +0.078812245  nElectrons: 418.000000  magneticMoment: [ Abs: 0.05293  Tot: +0.04589 ]
	SubspaceRotationAdjust: set factor to 0.206
ElecMinimize: Iter:  32  F: -2223.863722681750460  |grad|_K:  2.280e-07  alpha:  1.860e-01  linmin:  1.718e-07  t[s]:   3504.27
	FillingsUpdate:  mu: +0.078935117  nElectrons: 418.000000  magneticMoment: [ Abs: 0.05529  Tot: +0.04791 ]
	SubspaceRotationAdjust: set factor to 0.194
ElecMinimize: Iter:  33  F: -2223.863724201525656  |grad|_K:  1.999e-07  alpha:  1.517e-01  linmin: -2.463e-07  t[s]:   3565.90
	FillingsUpdate:  mu: +0.078837137  nElectrons: 418.000000  magneticMoment: [ Abs: 0.05886  Tot: +0.05098 ]
	SubspaceRotationAdjust: set factor to 0.185
ElecMinimize: Iter:  34  F: -2223.863725776651336  |grad|_K:  1.794e-07  alpha:  2.044e-01  linmin:  5.734e-07  t[s]:   3628.11
	FillingsUpdate:  mu: +0.078842120  nElectrons: 418.000000  magneticMoment: [ Abs: 0.06177  Tot: +0.05347 ]
	SubspaceRotationAdjust: set factor to 0.181
ElecMinimize: Iter:  35  F: -2223.863726702779331  |grad|_K:  1.434e-07  alpha:  1.492e-01  linmin:  2.308e-07  t[s]:   3689.71
	FillingsUpdate:  mu: +0.078857203  nElectrons: 418.000000  magneticMoment: [ Abs: 0.06560  Tot: +0.05675 ]
	SubspaceRotationAdjust: set factor to 0.196
ElecMinimize: Iter:  36  F: -2223.863727551773081  |grad|_K:  1.272e-07  alpha:  2.139e-01  linmin: -1.500e-06  t[s]:   3751.25
	FillingsUpdate:  mu: +0.078773864  nElectrons: 418.000000  magneticMoment: [ Abs: 0.06891  Tot: +0.05959 ]
	SubspaceRotationAdjust: set factor to 0.187
ElecMinimize: Iter:  37  F: -2223.863728072784397  |grad|_K:  1.221e-07  alpha:  1.669e-01  linmin:  7.310e-07  t[s]:   3812.84
	FillingsUpdate:  mu: +0.078743844  nElectrons: 418.000000  magneticMoment: [ Abs: 0.07450  Tot: +0.06438 ]
	SubspaceRotationAdjust: set factor to 0.214
ElecMinimize: Iter:  38  F: -2223.863728723828899  |grad|_K:  1.140e-07  alpha:  2.264e-01  linmin: -3.437e-07  t[s]:   3874.37
	FillingsUpdate:  mu: +0.078816984  nElectrons: 418.000000  magneticMoment: [ Abs: 0.08011  Tot: +0.06920 ]
	SubspaceRotationAdjust: set factor to 0.232
ElecMinimize: Iter:  39  F: -2223.863729223146038  |grad|_K:  1.197e-07  alpha:  1.992e-01  linmin: -9.384e-08  t[s]:   3936.55
	FillingsUpdate:  mu: +0.078847128  nElectrons: 418.000000  magneticMoment: [ Abs: 0.08834  Tot: +0.07630 ]
	SubspaceRotationAdjust: set factor to 0.228
ElecMinimize: Iter:  40  F: -2223.863729803580100  |grad|_K:  1.436e-07  alpha:  2.101e-01  linmin:  3.828e-07  t[s]:   3998.13
	FillingsUpdate:  mu: +0.078916477  nElectrons: 418.000000  magneticMoment: [ Abs: 0.10366  Tot: +0.08955 ]
	SubspaceRotationAdjust: set factor to 0.255
ElecMinimize: Iter:  41  F: -2223.863730727873190  |grad|_K:  1.610e-07  alpha:  2.323e-01  linmin: -4.137e-07  t[s]:   4059.88
	FillingsUpdate:  mu: +0.078905366  nElectrons: 418.000000  magneticMoment: [ Abs: 0.13469  Tot: +0.11639 ]
	SubspaceRotationAdjust: set factor to 0.263
ElecMinimize: Iter:  42  F: -2223.863732383614661  |grad|_K:  2.645e-07  alpha:  3.304e-01  linmin: -2.928e-06  t[s]:   4121.44
	FillingsUpdate:  mu: +0.078682575  nElectrons: 418.000000  magneticMoment: [ Abs: 0.19155  Tot: +0.16558 ]
	SubspaceRotationAdjust: set factor to 0.245
ElecMinimize: Iter:  43  F: -2223.863735341462416  |grad|_K:  3.907e-07  alpha:  2.108e-01  linmin: -3.765e-08  t[s]:   4182.94
	FillingsUpdate:  mu: +0.078388626  nElectrons: 418.000000  magneticMoment: [ Abs: 0.47520  Tot: +0.41032 ]
	SubspaceRotationAdjust: set factor to 0.241
ElecMinimize: Iter:  44  F: -2223.863741818938252  |grad|_K:  1.246e-06  alpha:  4.712e-01  linmin:  1.698e-04  t[s]:   4245.15
ElecMinimize: 	Bad step direction: g.d > 0.
ElecMinimize: 	Undoing step.
ElecMinimize: 	Step failed: resetting search direction.
	FillingsUpdate:  mu: +0.078388626  nElectrons: 418.000000  magneticMoment: [ Abs: 0.47520  Tot: +0.41032 ]
	SubspaceRotationAdjust: set factor to 0.239
ElecMinimize: Iter:  45  F: -2223.863741818941890  |grad|_K:  1.241e-06  alpha:  0.000e+00
	FillingsUpdate:  mu: +0.079030364  nElectrons: 418.000000  magneticMoment: [ Abs: 0.47898  Tot: +0.41338 ]
	SubspaceRotationAdjust: set factor to 0.166
ElecMinimize: Iter:  46  F: -2223.863770227716032  |grad|_K:  8.629e-07  alpha:  9.608e-02  linmin:  4.460e-05  t[s]:   4351.61
	FillingsUpdate:  mu: +0.079009540  nElectrons: 418.000000  magneticMoment: [ Abs: 0.49838  Tot: +0.42991 ]
	SubspaceRotationAdjust: set factor to 0.185
ElecMinimize: Iter:  47  F: -2223.863807264478055  |grad|_K:  6.325e-07  alpha:  2.590e-01  linmin:  3.268e-07  t[s]:   4413.09
	FillingsUpdate:  mu: +0.079427553  nElectrons: 418.000000  magneticMoment: [ Abs: 0.51773  Tot: +0.44613 ]
	SubspaceRotationAdjust: set factor to 0.184
ElecMinimize: Iter:  48  F: -2223.863827054620742  |grad|_K:  7.138e-07  alpha:  2.566e-01  linmin: -3.286e-06  t[s]:   4474.65
	FillingsUpdate:  mu: +0.079045064  nElectrons: 418.000000  magneticMoment: [ Abs: 0.56142  Tot: +0.48274 ]
	SubspaceRotationAdjust: set factor to 0.173
ElecMinimize: Iter:  49  F: -2223.863858066428293  |grad|_K:  7.489e-07  alpha:  3.151e-01  linmin: -3.786e-08  t[s]:   4536.68
	FillingsUpdate:  mu: +0.078052601  nElectrons: 418.000000  magneticMoment: [ Abs: 0.64025  Tot: +0.54858 ]
	SubspaceRotationAdjust: set factor to 0.182
ElecMinimize: Iter:  50  F: -2223.863902031525413  |grad|_K:  8.848e-07  alpha:  4.075e-01  linmin:  8.069e-06  t[s]:   4598.38
	FillingsUpdate:  mu: +0.079478773  nElectrons: 418.000000  magneticMoment: [ Abs: 0.74697  Tot: +0.63703 ]
	SubspaceRotationAdjust: set factor to 0.168
ElecMinimize: Iter:  51  F: -2223.863955018079650  |grad|_K:  1.117e-06  alpha:  3.567e-01  linmin: -2.136e-05  t[s]:   4659.83
	FillingsUpdate:  mu: +0.079182664  nElectrons: 418.000000  magneticMoment: [ Abs: 0.86213  Tot: +0.73246 ]
	SubspaceRotationAdjust: set factor to 0.131
	SubspaceRotationAdjust: resetting CG because factor has changed by 0.13101
ElecMinimize: 	State modified externally: resetting search direction.
ElecMinimize: Iter:  52  F: -2223.864011603589915  |grad|_K:  1.039e-06  alpha:  2.192e-01
	FillingsUpdate:  mu: +0.079300036  nElectrons: 418.000000  magneticMoment: [ Abs: 0.86674  Tot: +0.73605 ]
	SubspaceRotationAdjust: set factor to 0.178
ElecMinimize: Iter:  53  F: -2223.864042503229484  |grad|_K:  7.381e-07  alpha:  1.486e-01  linmin:  3.744e-08  t[s]:   4813.48
	FillingsUpdate:  mu: +0.078592629  nElectrons: 418.000000  magneticMoment: [ Abs: 0.89223  Tot: +0.75748 ]
	SubspaceRotationAdjust: set factor to 0.192
ElecMinimize: Iter:  54  F: -2223.864086052365565  |grad|_K:  7.683e-07  alpha:  4.152e-01  linmin:  1.633e-05  t[s]:   4874.95
	FillingsUpdate:  mu: +0.079659889  nElectrons: 418.000000  magneticMoment: [ Abs: 0.92972  Tot: +0.78871 ]
	SubspaceRotationAdjust: set factor to 0.21
ElecMinimize: Iter:  55  F: -2223.864123437986564  |grad|_K:  8.593e-07  alpha:  3.298e-01  linmin: -4.345e-06  t[s]:   4936.47
	FillingsUpdate:  mu: +0.078822670  nElectrons: 418.000000  magneticMoment: [ Abs: 1.00992  Tot: +0.85565 ]
	SubspaceRotationAdjust: set factor to 0.197
ElecMinimize: Iter:  56  F: -2223.864177962144367  |grad|_K:  1.022e-06  alpha:  3.841e-01  linmin:  5.111e-05  t[s]:   4998.07
	FillingsUpdate:  mu: +0.079329624  nElectrons: 418.000000  magneticMoment: [ Abs: 1.09042  Tot: +0.92140 ]
	SubspaceRotationAdjust: set factor to 0.167
ElecMinimize: Iter:  57  F: -2223.864224113621731  |grad|_K:  1.172e-06  alpha:  2.394e-01  linmin:  6.966e-06  t[s]:   5059.63
	FillingsUpdate:  mu: +0.079142311  nElectrons: 418.000000  magneticMoment: [ Abs: 1.22203  Tot: +1.02870 ]
	SubspaceRotationAdjust: set factor to 0.159
ElecMinimize: Iter:  58  F: -2223.864292359110095  |grad|_K:  1.158e-06  alpha:  2.605e-01  linmin:  6.556e-05  t[s]:   5121.25
	FillingsUpdate:  mu: +0.079011208  nElectrons: 418.000000  magneticMoment: [ Abs: 1.49300  Tot: +1.24401 ]
	SubspaceRotationAdjust: set factor to 0.172
ElecMinimize: Iter:  59  F: -2223.864425196421962  |grad|_K:  1.553e-06  alpha:  5.432e-01  linmin:  3.873e-05  t[s]:   5182.79
	FillingsUpdate:  mu: +0.078186616  nElectrons: 418.000000  magneticMoment: [ Abs: 1.67864  Tot: +1.38840 ]
	SubspaceRotationAdjust: set factor to 0.188
ElecMinimize: Iter:  60  F: -2223.864535964242350  |grad|_K:  1.577e-06  alpha:  2.179e-01  linmin: -1.270e-04  t[s]:   5244.41
	FillingsUpdate:  mu: +0.078486435  nElectrons: 418.000000  magneticMoment: [ Abs: 1.89284  Tot: +1.55112 ]
	SubspaceRotationAdjust: set factor to 0.229
ElecMinimize: Iter:  61  F: -2223.864673036243857  |grad|_K:  1.279e-06  alpha:  2.592e-01  linmin: -4.736e-06  t[s]:   5306.16
	FillingsUpdate:  mu: +0.079883213  nElectrons: 418.000000  magneticMoment: [ Abs: 2.01171  Tot: +1.63975 ]
	SubspaceRotationAdjust: set factor to 0.246
ElecMinimize: Iter:  62  F: -2223.864745071968628  |grad|_K:  1.342e-06  alpha:  2.266e-01  linmin:  1.767e-05  t[s]:   5367.76
	FillingsUpdate:  mu: +0.079887226  nElectrons: 418.000000  magneticMoment: [ Abs: 2.13967  Tot: +1.73642 ]
	SubspaceRotationAdjust: set factor to 0.268
ElecMinimize: Iter:  63  F: -2223.864818980893233  |grad|_K:  1.478e-06  alpha:  2.132e-01  linmin:  1.186e-04  t[s]:   5430.17
	FillingsUpdate:  mu: +0.079244603  nElectrons: 418.000000  magneticMoment: [ Abs: 2.25329  Tot: +1.82188 ]
	SubspaceRotationAdjust: set factor to 0.282
ElecMinimize: Iter:  64  F: -2223.864883098884093  |grad|_K:  1.321e-06  alpha:  1.580e-01  linmin:  6.941e-06  t[s]:   5491.85
	FillingsUpdate:  mu: +0.079404140  nElectrons: 418.000000  magneticMoment: [ Abs: 2.38081  Tot: +1.91654 ]
	SubspaceRotationAdjust: set factor to 0.277
ElecMinimize: Iter:  65  F: -2223.864961213536390  |grad|_K:  1.530e-06  alpha:  2.306e-01  linmin: -7.609e-05  t[s]:   5553.37
	FillingsUpdate:  mu: +0.079585173  nElectrons: 418.000000  magneticMoment: [ Abs: 2.45826  Tot: +1.97397 ]
	SubspaceRotationAdjust: set factor to 0.311
ElecMinimize: Iter:  66  F: -2223.865009373884732  |grad|_K:  1.091e-06  alpha:  1.064e-01  linmin:  1.839e-05  t[s]:   5614.98
	FillingsUpdate:  mu: +0.080271531  nElectrons: 418.000000  magneticMoment: [ Abs: 2.50888  Tot: +2.00995 ]
	SubspaceRotationAdjust: set factor to 0.376
ElecMinimize: Iter:  67  F: -2223.865044792770732  |grad|_K:  9.033e-07  alpha:  1.513e-01  linmin: -1.383e-04  t[s]:   5676.61
	FillingsUpdate:  mu: +0.079929101  nElectrons: 418.000000  magneticMoment: [ Abs: 2.54629  Tot: +2.03756 ]
	SubspaceRotationAdjust: set factor to 0.365
ElecMinimize: Iter:  68  F: -2223.865071391595393  |grad|_K:  9.819e-07  alpha:  1.587e-01  linmin: -4.134e-05  t[s]:   5738.77
	FillingsUpdate:  mu: +0.079427634  nElectrons: 418.000000  magneticMoment: [ Abs: 2.57418  Tot: +2.05834 ]
	SubspaceRotationAdjust: set factor to 0.304
ElecMinimize: Iter:  69  F: -2223.865091317658425  |grad|_K:  7.731e-07  alpha:  1.052e-01  linmin: -1.678e-06  t[s]:   5800.33
	FillingsUpdate:  mu: +0.079733262  nElectrons: 418.000000  magneticMoment: [ Abs: 2.59721  Tot: +2.07425 ]
	SubspaceRotationAdjust: set factor to 0.353
ElecMinimize: Iter:  70  F: -2223.865113563132127  |grad|_K:  6.085e-07  alpha:  1.892e-01  linmin: -3.444e-05  t[s]:   5861.92
	FillingsUpdate:  mu: +0.079657303  nElectrons: 418.000000  magneticMoment: [ Abs: 2.60777  Tot: +2.08254 ]
	SubspaceRotationAdjust: set factor to 0.289
ElecMinimize: Iter:  71  F: -2223.865124597843078  |grad|_K:  7.035e-07  alpha:  1.492e-01  linmin: -8.780e-07  t[s]:   5923.44
	FillingsUpdate:  mu: +0.080062604  nElectrons: 418.000000  magneticMoment: [ Abs: 2.61080  Tot: +2.08317 ]
	SubspaceRotationAdjust: set factor to 0.247
ElecMinimize: Iter:  72  F: -2223.865136218171756  |grad|_K:  4.945e-07  alpha:  1.218e-01  linmin: -1.720e-06  t[s]:   5984.98
	FillingsUpdate:  mu: +0.079634164  nElectrons: 418.000000  magneticMoment: [ Abs: 2.61243  Tot: +2.08443 ]
	SubspaceRotationAdjust: set factor to 0.27
ElecMinimize: Iter:  73  F: -2223.865145670213678  |grad|_K:  4.271e-07  alpha:  1.998e-01  linmin: -1.939e-06  t[s]:   6046.89
	FillingsUpdate:  mu: +0.079573131  nElectrons: 418.000000  magneticMoment: [ Abs: 2.60827  Tot: +2.08156 ]
	SubspaceRotationAdjust: set factor to 0.277
ElecMinimize: Iter:  74  F: -2223.865155315245374  |grad|_K:  3.743e-07  alpha:  2.734e-01  linmin: -1.598e-06  t[s]:   6108.33
	FillingsUpdate:  mu: +0.079956049  nElectrons: 418.000000  magneticMoment: [ Abs: 2.60129  Tot: +2.07572 ]
	SubspaceRotationAdjust: set factor to 0.263
ElecMinimize: Iter:  75  F: -2223.865159368226614  |grad|_K:  3.855e-07  alpha:  1.499e-01  linmin:  4.113e-07  t[s]:   6169.79
	FillingsUpdate:  mu: +0.079877751  nElectrons: 418.000000  magneticMoment: [ Abs: 2.59260  Tot: +2.06987 ]
	SubspaceRotationAdjust: set factor to 0.256
ElecMinimize: Iter:  76  F: -2223.865164561395432  |grad|_K:  3.617e-07  alpha:  1.813e-01  linmin:  6.059e-07  t[s]:   6231.27
	FillingsUpdate:  mu: +0.079745284  nElectrons: 418.000000  magneticMoment: [ Abs: 2.57966  Tot: +2.06039 ]
	SubspaceRotationAdjust: set factor to 0.287
ElecMinimize: Iter:  77  F: -2223.865169542527383  |grad|_K:  3.066e-07  alpha:  1.975e-01  linmin: -1.039e-06  t[s]:   6292.86
	FillingsUpdate:  mu: +0.079652227  nElectrons: 418.000000  magneticMoment: [ Abs: 2.56475  Tot: +2.04989 ]
	SubspaceRotationAdjust: set factor to 0.275
ElecMinimize: Iter:  78  F: -2223.865174032729101  |grad|_K:  3.712e-07  alpha:  2.475e-01  linmin:  7.536e-07  t[s]:   6354.47
	FillingsUpdate:  mu: +0.079684626  nElectrons: 418.000000  magneticMoment: [ Abs: 2.54990  Tot: +2.03923 ]
	SubspaceRotationAdjust: set factor to 0.244
ElecMinimize: Iter:  79  F: -2223.865177672136269  |grad|_K:  3.173e-07  alpha:  1.372e-01  linmin:  7.027e-07  t[s]:   6416.01
	FillingsUpdate:  mu: +0.079792789  nElectrons: 418.000000  magneticMoment: [ Abs: 2.52220  Tot: +2.01881 ]
	SubspaceRotationAdjust: set factor to 0.253
ElecMinimize: Iter:  80  F: -2223.865183179364521  |grad|_K:  3.184e-07  alpha:  2.831e-01  linmin: -1.516e-05  t[s]:   6477.54
	FillingsUpdate:  mu: +0.079445643  nElectrons: 418.000000  magneticMoment: [ Abs: 2.50189  Tot: +2.00461 ]
	SubspaceRotationAdjust: set factor to 0.232
ElecMinimize: Iter:  81  F: -2223.865187193815018  |grad|_K:  3.389e-07  alpha:  2.038e-01  linmin:  3.386e-06  t[s]:   6539.02
	FillingsUpdate:  mu: +0.079583722  nElectrons: 418.000000  magneticMoment: [ Abs: 2.47984  Tot: +1.98812 ]
	SubspaceRotationAdjust: set factor to 0.203
ElecMinimize: Iter:  82  F: -2223.865190677868668  |grad|_K:  2.992e-07  alpha:  1.579e-01  linmin: -4.935e-06  t[s]:   6600.53
	FillingsUpdate:  mu: +0.079749969  nElectrons: 418.000000  magneticMoment: [ Abs: 2.45718  Tot: +1.97178 ]
	SubspaceRotationAdjust: set factor to 0.199
ElecMinimize: Iter:  83  F: -2223.865194226759741  |grad|_K:  2.319e-07  alpha:  2.054e-01  linmin:  4.494e-06  t[s]:   6662.55
	FillingsUpdate:  mu: +0.079665083  nElectrons: 418.000000  magneticMoment: [ Abs: 2.43541  Tot: +1.95632 ]
	SubspaceRotationAdjust: set factor to 0.216
ElecMinimize: Iter:  84  F: -2223.865197460388117  |grad|_K:  2.368e-07  alpha:  3.129e-01  linmin:  4.464e-06  t[s]:   6724.21
	FillingsUpdate:  mu: +0.079700630  nElectrons: 418.000000  magneticMoment: [ Abs: 2.42234  Tot: +1.94661 ]
	SubspaceRotationAdjust: set factor to 0.178
ElecMinimize: Iter:  85  F: -2223.865199166621096  |grad|_K:  2.078e-07  alpha:  1.590e-01  linmin:  2.415e-06  t[s]:   6785.66
	FillingsUpdate:  mu: +0.079566687  nElectrons: 418.000000  magneticMoment: [ Abs: 2.41040  Tot: +1.93837 ]
	SubspaceRotationAdjust: set factor to 0.177
ElecMinimize: Iter:  86  F: -2223.865200891160384  |grad|_K:  1.699e-07  alpha:  2.076e-01  linmin:  1.673e-06  t[s]:   6847.19
	FillingsUpdate:  mu: +0.079688025  nElectrons: 418.000000  magneticMoment: [ Abs: 2.39937  Tot: +1.93055 ]
	SubspaceRotationAdjust: set factor to 0.196
ElecMinimize: Iter:  87  F: -2223.865202369384861  |grad|_K:  1.457e-07  alpha:  2.661e-01  linmin: -1.728e-07  t[s]:   6908.79
	FillingsUpdate:  mu: +0.079687022  nElectrons: 418.000000  magneticMoment: [ Abs: 2.39291  Tot: +1.92597 ]
	SubspaceRotationAdjust: set factor to 0.201
ElecMinimize: Iter:  88  F: -2223.865203255630149  |grad|_K:  1.267e-07  alpha:  2.165e-01  linmin: -1.618e-07  t[s]:   6970.46
	FillingsUpdate:  mu: +0.079582561  nElectrons: 418.000000  magneticMoment: [ Abs: 2.38907  Tot: +1.92348 ]
	SubspaceRotationAdjust: set factor to 0.19
ElecMinimize: Iter:  89  F: -2223.865203899549215  |grad|_K:  1.284e-07  alpha:  2.080e-01  linmin:  6.169e-07  t[s]:   7031.91
	FillingsUpdate:  mu: +0.079665553  nElectrons: 418.000000  magneticMoment: [ Abs: 2.38444  Tot: +1.92010 ]
	SubspaceRotationAdjust: set factor to 0.192
ElecMinimize: Iter:  90  F: -2223.865204563658153  |grad|_K:  9.647e-08  alpha:  2.088e-01  linmin: -1.114e-06  t[s]:   7093.43
	FillingsUpdate:  mu: +0.079669548  nElectrons: 418.000000  magneticMoment: [ Abs: 2.38198  Tot: +1.91849 ]
	SubspaceRotationAdjust: set factor to 0.202
ElecMinimize: Iter:  91  F: -2223.865205052601141  |grad|_K:  9.676e-08  alpha:  2.722e-01  linmin:  5.523e-07  t[s]:   7154.90
	FillingsUpdate:  mu: +0.079626476  nElectrons: 418.000000  magneticMoment: [ Abs: 2.38063  Tot: +1.91762 ]
	SubspaceRotationAdjust: set factor to 0.202
ElecMinimize: Iter:  92  F: -2223.865205379287545  |grad|_K:  8.052e-08  alpha:  1.811e-01  linmin:  3.335e-08  t[s]:   7216.51
	FillingsUpdate:  mu: +0.079599190  nElectrons: 418.000000  magneticMoment: [ Abs: 2.37961  Tot: +1.91691 ]
	SubspaceRotationAdjust: set factor to 0.208
ElecMinimize: Iter:  93  F: -2223.865205713850628  |grad|_K:  8.787e-08  alpha:  2.677e-01  linmin:  5.858e-07  t[s]:   7278.05
	FillingsUpdate:  mu: +0.079636862  nElectrons: 418.000000  magneticMoment: [ Abs: 2.37902  Tot: +1.91651 ]
	SubspaceRotationAdjust: set factor to 0.237
ElecMinimize: Iter:  94  F: -2223.865206034673520  |grad|_K:  6.656e-08  alpha:  2.156e-01  linmin:  7.538e-07  t[s]:   7339.66
	FillingsUpdate:  mu: +0.079706281  nElectrons: 418.000000  magneticMoment: [ Abs: 2.37871  Tot: +1.91615 ]
	SubspaceRotationAdjust: set factor to 0.234
ElecMinimize: Iter:  95  F: -2223.865206242828663  |grad|_K:  8.109e-08  alpha:  2.436e-01  linmin: -2.282e-06  t[s]:   7401.21
	FillingsUpdate:  mu: +0.079648303  nElectrons: 418.000000  magneticMoment: [ Abs: 2.37940  Tot: +1.91671 ]
	SubspaceRotationAdjust: set factor to 0.217
ElecMinimize: Iter:  96  F: -2223.865206450719143  |grad|_K:  6.026e-08  alpha:  1.638e-01  linmin: -9.537e-07  t[s]:   7462.75
	FillingsUpdate:  mu: +0.079623560  nElectrons: 418.000000  magneticMoment: [ Abs: 2.38010  Tot: +1.91712 ]
	SubspaceRotationAdjust: set factor to 0.24
ElecMinimize: Iter:  97  F: -2223.865206617796048  |grad|_K:  5.830e-08  alpha:  2.392e-01  linmin:  5.765e-06  t[s]:   7524.34
	FillingsUpdate:  mu: +0.079671892  nElectrons: 418.000000  magneticMoment: [ Abs: 2.38132  Tot: +1.91783 ]
	SubspaceRotationAdjust: set factor to 0.252
ElecMinimize: Iter:  98  F: -2223.865206810455220  |grad|_K:  5.765e-08  alpha:  2.948e-01  linmin:  4.821e-06  t[s]:   7585.82
	FillingsUpdate:  mu: +0.079676286  nElectrons: 418.000000  magneticMoment: [ Abs: 2.38304  Tot: +1.91901 ]
	SubspaceRotationAdjust: set factor to 0.241
ElecMinimize: Iter:  99  F: -2223.865206972414853  |grad|_K:  6.323e-08  alpha:  2.530e-01  linmin:  3.034e-06  t[s]:   7647.40
	FillingsUpdate:  mu: +0.079680701  nElectrons: 418.000000  magneticMoment: [ Abs: 2.38443  Tot: +1.91990 ]
	SubspaceRotationAdjust: set factor to 0.219
ElecMinimize: Iter: 100  F: -2223.865207092688252  |grad|_K:  5.507e-08  alpha:  1.562e-01  linmin: -6.378e-07  t[s]:   7708.89
ElecMinimize: None of the convergence criteria satisfied after 100 iterations.
Setting wave functions to eigenvectors of Hamiltonian
Converging empty states (this may take a while): |deigs|: 1.440e-03
Vacuum energy after initial minimize, F = -2223.865207092688252


-------- Electronic minimization -----------
	Linear fluid (dielectric constant: 78.4, screening length: 8.12261 Bohr) occupying 0.452075 of unit cell:	Completed after 24 iterations at t[s]:   8096.79
	FillingsUpdate:  mu: -0.176746151  nElectrons: 418.000000  magneticMoment: [ Abs: 2.39656  Tot: +1.93068 ]
ElecMinimize: Iter:   0  F: -2223.870234259713925  |grad|_K:  1.612e-06  alpha:  1.000e+00
	Linear fluid (dielectric constant: 78.4, screening length: 8.12261 Bohr) occupying 0.452940 of unit cell:	Completed after 19 iterations at t[s]:   8151.50
	Linear fluid (dielectric constant: 78.4, screening length: 8.12261 Bohr) occupying 0.452235 of unit cell:	Completed after 19 iterations at t[s]:   8173.63
	FillingsUpdate:  mu: -0.176451668  nElectrons: 418.000000  magneticMoment: [ Abs: 2.40012  Tot: +1.93510 ]
	SubspaceRotationAdjust: set factor to 0.184
ElecMinimize: Iter:   1  F: -2223.870328015843370  |grad|_K:  1.894e-06  alpha:  1.854e-01  linmin: -1.588e-06  t[s]:   8197.50
	Linear fluid (dielectric constant: 78.4, screening length: 8.12261 Bohr) occupying 0.452599 of unit cell:	Completed after 15 iterations at t[s]:   8224.01
	Linear fluid (dielectric constant: 78.4, screening length: 8.12261 Bohr) occupying 0.452767 of unit cell:	Completed after 11 iterations at t[s]:   8244.96
	FillingsUpdate:  mu: -0.176771735  nElectrons: 418.000000  magneticMoment: [ Abs: 2.40984  Tot: +1.94718 ]
	SubspaceRotationAdjust: set factor to 0.178
ElecMinimize: Iter:   2  F: -2223.870517176814701  |grad|_K:  1.329e-06  alpha:  2.708e-01  linmin: -3.686e-07  t[s]:   8268.13
	Linear fluid (dielectric constant: 78.4, screening length: 8.12261 Bohr) occupying 0.453154 of unit cell:	Completed after 11 iterations at t[s]:   8294.13
	Linear fluid (dielectric constant: 78.4, screening length: 8.12261 Bohr) occupying 0.453279 of unit cell:	Completed after 9 iterations at t[s]:   8314.15
	FillingsUpdate:  mu: -0.176433764  nElectrons: 418.000000  magneticMoment: [ Abs: 2.40569  Tot: +1.94278 ]
	SubspaceRotationAdjust: set factor to 0.227
ElecMinimize: Iter:   3  F: -2223.870639990654581  |grad|_K:  9.646e-07  alpha:  3.592e-01  linmin: -1.887e-07  t[s]:   8337.49
	Linear fluid (dielectric constant: 78.4, screening length: 8.12261 Bohr) occupying 0.453626 of unit cell:	Completed after 14 iterations at t[s]:   8363.75
	Linear fluid (dielectric constant: 78.4, screening length: 8.12261 Bohr) occupying 0.453513 of unit cell:	Completed after 10 iterations at t[s]:   8384.34
	FillingsUpdate:  mu: -0.174827530  nElectrons: 418.000000  magneticMoment: [ Abs: 2.39914  Tot: +1.93564 ]
	SubspaceRotationAdjust: set factor to 0.174
ElecMinimize: Iter:   4  F: -2223.870683328579617  |grad|_K:  1.085e-06  alpha:  2.412e-01  linmin:  4.764e-08  t[s]:   8407.69
	Linear fluid (dielectric constant: 78.4, screening length: 8.12261 Bohr) occupying 0.453838 of unit cell:	Completed after 15 iterations at t[s]:   8434.81
	Linear fluid (dielectric constant: 78.4, screening length: 8.12261 Bohr) occupying 0.453756 of unit cell:	Completed after 10 iterations at t[s]:   8454.78
	FillingsUpdate:  mu: -0.174300666  nElectrons: 418.000000  magneticMoment: [ Abs: 2.40471  Tot: +1.94189 ]
	SubspaceRotationAdjust: set factor to 0.118
ElecMinimize: Iter:   5  F: -2223.870724057235748  |grad|_K:  5.189e-07  alpha:  1.796e-01  linmin:  8.449e-08  t[s]:   8478.13
	Linear fluid (dielectric constant: 78.4, screening length: 8.12261 Bohr) occupying 0.453810 of unit cell:	Completed after 6 iterations at t[s]:   8503.07
	Linear fluid (dielectric constant: 78.4, screening length: 8.12261 Bohr) occupying 0.453863 of unit cell:	Completed after 7 iterations at t[s]:   8523.04
	FillingsUpdate:  mu: -0.174865124  nElectrons: 418.000000  magneticMoment: [ Abs: 2.40579  Tot: +1.94291 ]
	SubspaceRotationAdjust: set factor to 0.116
ElecMinimize: Iter:   6  F: -2223.870742507509021  |grad|_K:  5.297e-07  alpha:  3.562e-01  linmin:  1.004e-07  t[s]:   8546.08
	Linear fluid (dielectric constant: 78.4, screening length: 8.12261 Bohr) occupying 0.453969 of unit cell:	Completed after 7 iterations at t[s]:   8571.23
	Linear fluid (dielectric constant: 78.4, screening length: 8.12261 Bohr) occupying 0.453934 of unit cell:	Completed after 3 iterations at t[s]:   8590.17
	FillingsUpdate:  mu: -0.174880877  nElectrons: 418.000000  magneticMoment: [ Abs: 2.40690  Tot: +1.94405 ]
	SubspaceRotationAdjust: set factor to 0.121
ElecMinimize: Iter:   7  F: -2223.870755386633846  |grad|_K:  3.035e-07  alpha:  2.384e-01  linmin:  6.859e-08  t[s]:   8613.43
	Linear fluid (dielectric constant: 78.4, screening length: 8.12261 Bohr) occupying 0.453953 of unit cell:	Completed after 4 iterations at t[s]:   8637.95
	Linear fluid (dielectric constant: 78.4, screening length: 8.12261 Bohr) occupying 0.453971 of unit cell:	Completed after 7 iterations at t[s]:   8657.72
	FillingsUpdate:  mu: -0.174634099  nElectrons: 418.000000  magneticMoment: [ Abs: 2.40798  Tot: +1.94513 ]
	SubspaceRotationAdjust: set factor to 0.121
ElecMinimize: Iter:   8  F: -2223.870763756727229  |grad|_K:  2.962e-07  alpha:  4.714e-01  linmin: -8.032e-08  t[s]:   8680.89
	Linear fluid (dielectric constant: 78.4, screening length: 8.12261 Bohr) occupying 0.453998 of unit cell:	Completed after 7 iterations at t[s]:   8706.23
	Linear fluid (dielectric constant: 78.4, screening length: 8.12261 Bohr) occupying 0.453984 of unit cell:	Completed after 4 iterations at t[s]:   8725.74
	FillingsUpdate:  mu: -0.174706931  nElectrons: 418.000000  magneticMoment: [ Abs: 2.40891  Tot: +1.94604 ]
	SubspaceRotationAdjust: set factor to 0.118
ElecMinimize: Iter:   9  F: -2223.870767610677376  |grad|_K:  2.282e-07  alpha:  2.273e-01  linmin:  3.475e-08  t[s]:   8748.99
	Linear fluid (dielectric constant: 78.4, screening length: 8.12261 Bohr) occupying 0.453990 of unit cell:	Completed after 2 iterations at t[s]:   8773.16
	Linear fluid (dielectric constant: 78.4, screening length: 8.12261 Bohr) occupying 0.453993 of unit cell:	Completed after 2 iterations at t[s]:   8792.04
	FillingsUpdate:  mu: -0.174628278  nElectrons: 418.000000  magneticMoment: [ Abs: 2.40929  Tot: +1.94634 ]
	SubspaceRotationAdjust: set factor to 0.119
ElecMinimize: Iter:  10  F: -2223.870770924226690  |grad|_K:  2.082e-07  alpha:  3.304e-01  linmin: -7.358e-09  t[s]:   8815.14
	Linear fluid (dielectric constant: 78.4, screening length: 8.12261 Bohr) occupying 0.453999 of unit cell:	Completed after 3 iterations at t[s]:   8839.44
	Linear fluid (dielectric constant: 78.4, screening length: 8.12261 Bohr) occupying 0.453998 of unit cell:	Completed after 2 iterations at t[s]:   8858.24
	FillingsUpdate:  mu: -0.174594922  nElectrons: 418.000000  magneticMoment: [ Abs: 2.41000  Tot: +1.94703 ]
	SubspaceRotationAdjust: set factor to 0.114
ElecMinimize: Iter:  11  F: -2223.870773095830373  |grad|_K:  1.765e-07  alpha:  2.601e-01  linmin:  1.821e-08  t[s]:   8881.40
	Linear fluid (dielectric constant: 78.4, screening length: 8.12261 Bohr) occupying 0.454001 of unit cell:	Completed after 3 iterations at t[s]:   8905.87
	Linear fluid (dielectric constant: 78.4, screening length: 8.12261 Bohr) occupying 0.454002 of unit cell:	Completed after 2 iterations at t[s]:   8924.55
	FillingsUpdate:  mu: -0.174756490  nElectrons: 418.000000  magneticMoment: [ Abs: 2.41160  Tot: +1.94869 ]
	SubspaceRotationAdjust: set factor to 0.112
ElecMinimize: Iter:  12  F: -2223.870774816207813  |grad|_K:  1.398e-07  alpha:  2.874e-01  linmin:  3.515e-07  t[s]:   8947.83
	Linear fluid (dielectric constant: 78.4, screening length: 8.12261 Bohr) occupying 0.454006 of unit cell:	Completed after 2 iterations at t[s]:   8972.04
	Linear fluid (dielectric constant: 78.4, screening length: 8.12261 Bohr) occupying 0.454008 of unit cell:	Completed after 2 iterations at t[s]:   8990.74
	FillingsUpdate:  mu: -0.174728498  nElectrons: 418.000000  magneticMoment: [ Abs: 2.41293  Tot: +1.95002 ]
	SubspaceRotationAdjust: set factor to 0.124
ElecMinimize: Iter:  13  F: -2223.870776296830172  |grad|_K:  1.196e-07  alpha:  3.954e-01  linmin: -3.019e-07  t[s]:   9013.97
	Linear fluid (dielectric constant: 78.4, screening length: 8.12261 Bohr) occupying 0.454016 of unit cell:	Completed after 2 iterations at t[s]:   9038.29
	Linear fluid (dielectric constant: 78.4, screening length: 8.12261 Bohr) occupying 0.454015 of unit cell:	Completed after 0 iterations at t[s]:   9056.36
	FillingsUpdate:  mu: -0.174768206  nElectrons: 418.000000  magneticMoment: [ Abs: 2.41406  Tot: +1.95109 ]
	SubspaceRotationAdjust: set factor to 0.136
ElecMinimize: Iter:  14  F: -2223.870777355040445  |grad|_K:  1.005e-07  alpha:  3.802e-01  linmin:  2.813e-07  t[s]:   9079.54
	Linear fluid (dielectric constant: 78.4, screening length: 8.12261 Bohr) occupying 0.454024 of unit cell:	Completed after 5 iterations at t[s]:   9104.26
	Linear fluid (dielectric constant: 78.4, screening length: 8.12261 Bohr) occupying 0.454022 of unit cell:	Completed after 2 iterations at t[s]:   9123.04
	FillingsUpdate:  mu: -0.174695239  nElectrons: 418.000000  magneticMoment: [ Abs: 2.41437  Tot: +1.95129 ]
	SubspaceRotationAdjust: set factor to 0.124
ElecMinimize: Iter:  15  F: -2223.870777911448840  |grad|_K:  1.002e-07  alpha:  2.896e-01  linmin:  2.970e-08  t[s]:   9146.20
	Linear fluid (dielectric constant: 78.4, screening length: 8.12261 Bohr) occupying 0.454031 of unit cell:	Completed after 3 iterations at t[s]:   9170.62
	Linear fluid (dielectric constant: 78.4, screening length: 8.12261 Bohr) occupying 0.454030 of unit cell:	Completed after 2 iterations at t[s]:   9189.51
	FillingsUpdate:  mu: -0.174708850  nElectrons: 418.000000  magneticMoment: [ Abs: 2.41564  Tot: +1.95255 ]
	SubspaceRotationAdjust: set factor to 0.112
ElecMinimize: Iter:  16  F: -2223.870778407232137  |grad|_K:  7.526e-08  alpha:  2.588e-01  linmin: -2.519e-07  t[s]:   9212.64
	Linear fluid (dielectric constant: 78.4, screening length: 8.12261 Bohr) occupying 0.454037 of unit cell:	Completed after 1 iterations at t[s]:   9236.68
	Linear fluid (dielectric constant: 78.4, screening length: 8.12261 Bohr) occupying 0.454038 of unit cell:	Completed after 0 iterations at t[s]:   9254.89
	FillingsUpdate:  mu: -0.174698404  nElectrons: 418.000000  magneticMoment: [ Abs: 2.41640  Tot: +1.95324 ]
	SubspaceRotationAdjust: set factor to 0.124
ElecMinimize: Iter:  17  F: -2223.870778748183966  |grad|_K:  5.631e-08  alpha:  3.083e-01  linmin: -1.132e-06  t[s]:   9278.06
	Linear fluid (dielectric constant: 78.4, screening length: 8.12261 Bohr) occupying 0.454043 of unit cell:	Completed after 2 iterations at t[s]:   9302.31
	Linear fluid (dielectric constant: 78.4, screening length: 8.12261 Bohr) occupying 0.454044 of unit cell:	Completed after 0 iterations at t[s]:   9321.08
	FillingsUpdate:  mu: -0.174698262  nElectrons: 418.000000  magneticMoment: [ Abs: 2.41702  Tot: +1.95377 ]
	SubspaceRotationAdjust: set factor to 0.129
ElecMinimize: Iter:  18  F: -2223.870778975750909  |grad|_K:  4.502e-08  alpha:  3.588e-01  linmin: -2.488e-06  t[s]:   9344.18
	Linear fluid (dielectric constant: 78.4, screening length: 8.12261 Bohr) occupying 0.454049 of unit cell:	Completed after 2 iterations at t[s]:   9368.39
	Linear fluid (dielectric constant: 78.4, screening length: 8.12261 Bohr) occupying 0.454048 of unit cell:	Completed after 1 iterations at t[s]:   9386.94
	FillingsUpdate:  mu: -0.174723151  nElectrons: 418.000000  magneticMoment: [ Abs: 2.41765  Tot: +1.95436 ]
	SubspaceRotationAdjust: set factor to 0.125
[...]
force Au  -0.000013272703419  -0.000176083889626  -0.000266951405987 0
force Au   0.001053479907252   0.000000000000000  -0.000208727976429 0
force Au   0.000391192535178   0.000000000000000   0.000008338449411 0
force Au  -0.001174388513924   0.000000000000000  -0.000160462490434 0
force Au  -0.000408073894468   0.000000000000000  -0.000036712399387 0
force Au   0.000012072325152   0.000000000000000   0.002742285715721 0
force Au  -0.000022475078699   0.000000000000000  -0.000072586101928 0
force Au  -0.000026855861715   0.000000000000000  -0.000077662652550 0
force Au  -0.000043500325208   0.000000000000000   0.001148649926758 0
force Au   0.000007058203192   0.001113657490036  -0.000188729366726 0
force Au   0.000007058203192  -0.001113657490036  -0.000188729366726 0
force Au   0.000011729752234   0.000399497720945  -0.000015117748804 0
force Au   0.000011729752234  -0.000399497720945  -0.000015117748804 0
force C   0.000455745423711   0.000000000000000  -0.000603077743890 1  Linear 0 0 1
force O  -0.000392324397322   0.000000000000000  -0.000265292852556 1  Linear 0 0 1

# Energy components:
   A_diel =       -0.0064357971810059
   Eewald =     6321.2453706886208238
       EH =     8424.1170862766994105
     Eloc =   -17233.3015129090308619
      Enl =      109.9097564601725026
     EvdW =       -0.5894670803143530
      Exc =     -894.2360943762946590
 Exc_core =      551.1448314599128935
       KE =      497.8478860300841689
-------------------------------------
     Etot =    -2223.8685792473306719
       TS =        0.0027111080698999
-------------------------------------
        F =    -2223.8712903554005607


Dumping 'jdft.fillings' ... done
Dumping 'jdft.wfns' ... done
Dumping 'jdft.fluidState' ... done
Dumping 'jdft.ionpos' ... done
Dumping 'jdft.lattice' ... done
Dumping 'jdft.eigenvals' ... done
Dumping 'jdft.eigStats' ... 
	eMin: -3.940212 at state 0 ( [ +0.000000 +0.000000 +0.000000 ] spin 1 )
	HOMO: -0.175219 at state 9 ( [ +0.000000 +0.000000 +0.000000 ] spin -1 )
	mu  : -0.175149
	LUMO: -0.174957 at state 11 ( [ +0.000000 +0.500000 +0.000000 ] spin -1 )
	eMax: +0.077733 at state 9 ( [ +0.000000 +0.000000 +0.000000 ] spin -1 )
	HOMO-LUMO gap: +0.000262
	Optical gap  : +0.000875 at state 15 ( [ +0.500000 +0.000000 +0.000000 ] spin -1 )
Dumping 'jdft.Ecomponents' ... done
IonicMinimize: Iter:   4  F: -2223.871290355400561  |grad|_K:  4.659e-04  alpha:  1.000e+00  linmin:  5.220e-02  t[s]:  19116.69

#--- Lowdin population analysis ---
# oxidation-state Ni +0.220 +0.220 +0.224 +0.224 +0.286 +0.286 +0.284 +0.284
# magnetic-moments Ni +0.016 +0.016 +0.015 +0.015 +0.475 +0.475 +0.474 +0.474
# oxidation-state Au -0.016 -0.019 -0.016 -0.019 -0.072 -0.078 -0.078 -0.072 -0.016 -0.016 -0.019 -0.019 -0.101 -0.103 -0.101 -0.103 -0.117 -0.083 -0.083 -0.086 -0.101 -0.101 -0.103 -0.103
# magnetic-moments Au -0.004 +0.001 -0.004 +0.001 -0.005 -0.002 -0.002 +0.002 -0.004 -0.004 +0.001 +0.001 -0.003 -0.002 -0.003 -0.002 -0.006 -0.013 -0.013 -0.009 -0.003 -0.003 -0.002 -0.002
# oxidation-state C +0.404
# magnetic-moments C +0.002
# oxidation-state O -0.049
# magnetic-moments O -0.003


Computing DFT-D3 correction:
# coordination-number Ni 6.407 6.407 6.407 6.407 4.845 4.845 4.845 4.845
# coordination-number Au 5.867 5.867 5.867 5.867 8.414 8.414 8.414 8.414 5.867 5.867 5.867 5.867 8.411 8.411 8.411 8.411 5.856 4.848 4.848 4.847 8.411 8.411 8.411 8.411
# coordination-number C 2.015
# coordination-number O 1.025
# diagonal-C6 Ni 135.19 135.19 135.19 135.19 141.33 141.33 141.33 141.33
# diagonal-C6 Au 317.16 317.16 317.16 317.16 317.16 317.16 317.16 317.16 317.16 317.16 317.16 317.16 317.16 317.16 317.16 317.16 317.16 317.16 317.16 317.16 317.16 317.16 317.16 317.16
# diagonal-C6 C 29.46
# diagonal-C6 O 12.79
EvdW_6 =   -0.203544
EvdW_8 =   -0.385933

-------- Electronic minimization -----------
	Linear fluid (dielectric constant: 78.4, screening length: 8.12261 Bohr) occupying 0.454724 of unit cell:	Completed after 7 iterations at t[s]:  19145.91
	FillingsUpdate:  mu: -0.175436177  nElectrons: 418.000000  magneticMoment: [ Abs: 2.35385  Tot: +1.86760 ]
ElecMinimize: Iter:   0  F: -2223.871276380477411  |grad|_K:  6.226e-07  alpha:  1.000e+00
	Linear fluid (dielectric constant: 78.4, screening length: 8.12261 Bohr) occupying 0.454721 of unit cell:	Completed after 12 iterations at t[s]:  19199.55
	Linear fluid (dielectric constant: 78.4, screening length: 8.12261 Bohr) occupying 0.454723 of unit cell:	Completed after 12 iterations at t[s]:  19220.47
	FillingsUpdate:  mu: -0.175261861  nElectrons: 418.000000  magneticMoment: [ Abs: 2.35207  Tot: +1.86564 ]
	SubspaceRotationAdjust: set factor to 0.163
ElecMinimize: Iter:   1  F: -2223.871284917784578  |grad|_K:  2.784e-07  alpha:  1.136e-01  linmin: -2.641e-04  t[s]:  19243.88
	Linear fluid (dielectric constant: 78.4, screening length: 8.12261 Bohr) occupying 0.454723 of unit cell:	Completed after 2 iterations at t[s]:  19268.18
	Linear fluid (dielectric constant: 78.4, screening length: 8.12261 Bohr) occupying 0.454723 of unit cell:	Completed after 2 iterations at t[s]:  19286.96
	FillingsUpdate:  mu: -0.175227782  nElectrons: 418.000000  magneticMoment: [ Abs: 2.35196  Tot: +1.86545 ]
	SubspaceRotationAdjust: set factor to 0.155
ElecMinimize: Iter:   2  F: -2223.871289288397293  |grad|_K:  1.636e-07  alpha:  2.915e-01  linmin:  7.858e-05  t[s]:  19309.98
	Linear fluid (dielectric constant: 78.4, screening length: 8.12261 Bohr) occupying 0.454722 of unit cell:	Completed after 7 iterations at t[s]:  19335.03
	Linear fluid (dielectric constant: 78.4, screening length: 8.12261 Bohr) occupying 0.454723 of unit cell:	Completed after 2 iterations at t[s]:  19354.00
	FillingsUpdate:  mu: -0.175176249  nElectrons: 418.000000  magneticMoment: [ Abs: 2.35136  Tot: +1.86474 ]
	SubspaceRotationAdjust: set factor to 0.136
ElecMinimize: Iter:   3  F: -2223.871290103269530  |grad|_K:  1.138e-07  alpha:  1.575e-01  linmin:  1.493e-04  t[s]:  19377.04
	Linear fluid (dielectric constant: 78.4, screening length: 8.12261 Bohr) occupying 0.454723 of unit cell:	Completed after 2 iterations at t[s]:  19401.38
	Linear fluid (dielectric constant: 78.4, screening length: 8.12261 Bohr) occupying 0.454723 of unit cell:	Completed after 2 iterations at t[s]:  19420.05
	FillingsUpdate:  mu: -0.175216853  nElectrons: 418.000000  magneticMoment: [ Abs: 2.35158  Tot: +1.86490 ]
	SubspaceRotationAdjust: set factor to 0.153
ElecMinimize: Iter:   4  F: -2223.871290846563170  |grad|_K:  7.096e-08  alpha:  2.963e-01  linmin: -5.918e-04  t[s]:  19443.10
	Linear fluid (dielectric constant: 78.4, screening length: 8.12261 Bohr) occupying 0.454723 of unit cell:	Completed after 2 iterations at t[s]:  19467.31
	Linear fluid (dielectric constant: 78.4, screening length: 8.12261 Bohr) occupying 0.454723 of unit cell:	Completed after 0 iterations at t[s]:  19485.50
	FillingsUpdate:  mu: -0.175167216  nElectrons: 418.000000  magneticMoment: [ Abs: 2.35130  Tot: +1.86451 ]
	SubspaceRotationAdjust: set factor to 0.177
ElecMinimize: Iter:   5  F: -2223.871291164274226  |grad|_K:  7.491e-08  alpha:  3.199e-01  linmin: -9.373e-04  t[s]:  19508.65
	Linear fluid (dielectric constant: 78.4, screening length: 8.12261 Bohr) occupying 0.454723 of unit cell:	Completed after 3 iterations at t[s]:  19533.99
	Linear fluid (dielectric constant: 78.4, screening length: 8.12261 Bohr) occupying 0.454723 of unit cell:	Completed after 0 iterations at t[s]:  19552.15
	FillingsUpdate:  mu: -0.175188275  nElectrons: 418.000000  magneticMoment: [ Abs: 2.35080  Tot: +1.86380 ]
	SubspaceRotationAdjust: set factor to 0.169
ElecMinimize: Iter:   6  F: -2223.871291514012682  |grad|_K:  7.333e-08  alpha:  3.053e-01  linmin:  5.958e-04  t[s]:  19575.12
	Linear fluid (dielectric constant: 78.4, screening length: 8.12261 Bohr) occupying 0.454723 of unit cell:	Completed after 3 iterations at t[s]:  19599.47
	Linear fluid (dielectric constant: 78.4, screening length: 8.12261 Bohr) occupying 0.454723 of unit cell:	Completed after 1 iterations at t[s]:  19618.15
	FillingsUpdate:  mu: -0.175238433  nElectrons: 418.000000  magneticMoment: [ Abs: 2.35084  Tot: +1.86371 ]
	SubspaceRotationAdjust: set factor to 0.156
ElecMinimize: Iter:   7  F: -2223.871291724552975  |grad|_K:  7.010e-08  alpha:  2.136e-01  linmin:  2.074e-05  t[s]:  19641.26
	Linear fluid (dielectric constant: 78.4, screening length: 8.12261 Bohr) occupying 0.454724 of unit cell:	Completed after 2 iterations at t[s]:  19665.44
	Linear fluid (dielectric constant: 78.4, screening length: 8.12261 Bohr) occupying 0.454724 of unit cell:	Completed after 1 iterations at t[s]:  19684.06
	FillingsUpdate:  mu: -0.175179784  nElectrons: 418.000000  magneticMoment: [ Abs: 2.35038  Tot: +1.86300 ]
	SubspaceRotationAdjust: set factor to 0.174
ElecMinimize: Iter:   8  F: -2223.871292026745323  |grad|_K:  4.908e-08  alpha:  3.180e-01  linmin: -1.178e-04  t[s]:  19707.08
	Linear fluid (dielectric constant: 78.4, screening length: 8.12261 Bohr) occupying 0.454725 of unit cell:	Completed after 2 iterations at t[s]:  19731.38
	Linear fluid (dielectric constant: 78.4, screening length: 8.12261 Bohr) occupying 0.454725 of unit cell:	Completed after 2 iterations at t[s]:  19750.12
	FillingsUpdate:  mu: -0.175166873  nElectrons: 418.000000  magneticMoment: [ Abs: 2.34973  Tot: +1.86209 ]
	SubspaceRotationAdjust: set factor to 0.164
ElecMinimize: Iter:   9  F: -2223.871292233775421  |grad|_K:  5.921e-08  alpha:  4.427e-01  linmin:  1.714e-05  t[s]:  19773.13
	Linear fluid (dielectric constant: 78.4, screening length: 8.12261 Bohr) occupying 0.454726 of unit cell:	Completed after 2 iterations at t[s]:  19797.38
	Linear fluid (dielectric constant: 78.4, screening length: 8.12261 Bohr) occupying 0.454726 of unit cell:	Completed after 3 iterations at t[s]:  19817.20
	FillingsUpdate:  mu: -0.175185999  nElectrons: 418.000000  magneticMoment: [ Abs: 2.34961  Tot: +1.86184 ]
	SubspaceRotationAdjust: set factor to 0.127
ElecMinimize: Iter:  10  F: -2223.871292336617898  |grad|_K:  3.690e-08  alpha:  1.537e-01  linmin:  3.663e-05  t[s]:  19840.05
	Linear fluid (dielectric constant: 78.4, screening length: 8.12261 Bohr) occupying 0.454726 of unit cell:	Completed after 1 iterations at t[s]:  19864.18
	Linear fluid (dielectric constant: 78.4, screening length: 8.12261 Bohr) occupying 0.454726 of unit cell:	Completed after 1 iterations at t[s]:  19882.66
	FillingsUpdate:  mu: -0.175184684  nElectrons: 418.000000  magneticMoment: [ Abs: 2.34947  Tot: +1.86162 ]
	SubspaceRotationAdjust: set factor to 0.123
ElecMinimize: Iter:  11  F: -2223.871292414828076  |grad|_K:  2.445e-08  alpha:  2.974e-01  linmin: -2.061e-04  t[s]:  19905.75
	Linear fluid (dielectric constant: 78.4, screening length: 8.12261 Bohr) occupying 0.454726 of unit cell:	Completed after 2 iterations at t[s]:  19930.14
	Linear fluid (dielectric constant: 78.4, screening length: 8.12261 Bohr) occupying 0.454726 of unit cell:	Completed after 0 iterations at t[s]:  19948.21
	FillingsUpdate:  mu: -0.175186117  nElectrons: 418.000000  magneticMoment: [ Abs: 2.34936  Tot: +1.86145 ]
	SubspaceRotationAdjust: set factor to 0.126
ElecMinimize: Iter:  12  F: -2223.871292446886855  |grad|_K:  2.307e-08  alpha:  2.744e-01  linmin:  1.627e-04  t[s]:  19971.29
ElecMinimize: Converged (|Delta F|<1.000000e-07 for 2 iters).
Setting wave functions to eigenvectors of Hamiltonian
Converging empty states (this may take a while): |deigs|: 2.145e-09

Computing DFT-D3 correction:
# coordination-number Ni 6.407 6.407 6.407 6.407 4.845 4.845 4.845 4.845
# coordination-number Au 5.867 5.867 5.867 5.867 8.414 8.414 8.414 8.414 5.867 5.867 5.867 5.867 8.411 8.411 8.411 8.411 5.856 4.848 4.848 4.847 8.411 8.411 8.411 8.411
# coordination-number C 2.015
# coordination-number O 1.025
# diagonal-C6 Ni 135.19 135.19 135.19 135.19 141.33 141.33 141.33 141.33
# diagonal-C6 Au 317.16 317.16 317.16 317.16 317.16 317.16 317.16 317.16 317.16 317.16 317.16 317.16 317.16 317.16 317.16 317.16 317.16 317.16 317.16 317.16 317.16 317.16 317.16 317.16
# diagonal-C6 C 29.46
# diagonal-C6 O 12.79
EvdW_6 =   -0.203544
EvdW_8 =   -0.385933

# Ionic positions in cartesian coordinates:
ion Ni   0.000000000000000   0.000000000000000   5.529229000000000 0
ion Ni   0.000000000000000   7.459552000000000   5.529229000000000 0
ion Ni   7.459552000000000   0.000000000000000   5.529229000000000 0
ion Ni   7.459552000000000   7.459552000000000   5.529229000000000 0
ion Ni   0.000000000000000   0.000000000000000  12.874440999999997 0
ion Ni   0.000000000000000   7.459552000000000  12.874440999999997 0
ion Ni   7.459552000000000   0.000000000000000  12.874440999999997 0
ion Ni   7.459552000000000   7.459552000000000  12.874440999999997 0
ion Au   0.000000000000000   3.729776000000000   1.785862000000000 0
ion Au   0.000000000000000  11.189328000000000   1.785862000000000 0
ion Au   7.459552000000000   3.729776000000000   1.785862000000000 0
ion Au   7.459552000000000  11.189328000000000   1.785862000000000 0
ion Au   3.729776000000000   3.729776000000000   5.578730999999999 0
ion Au   3.729776000000000  11.189328000000000   5.578730999999999 0
ion Au  11.189328000000000   3.729776000000000   5.578730999999999 0
ion Au  11.189328000000000  11.189328000000000   5.578730999999999 0
ion Au   3.729776000000000   0.000000000000000   1.785862000000000 0
ion Au   3.729776000000000   7.459552000000000   1.785862000000000 0
ion Au  11.189328000000000   0.000000000000000   1.785862000000000 0
ion Au  11.189328000000000   7.459552000000000   1.785862000000000 0
ion Au   0.000000000000000   3.729776000000000   9.365556999999999 0
ion Au   0.000000000000000  11.189328000000000   9.365556999999999 0
ion Au   7.459552000000000   3.729776000000000   9.365556999999999 0
ion Au   7.459552000000000  11.189328000000000   9.365556999999999 0
ion Au   3.729776000000000   3.729776000000000  13.391163999999998 0
ion Au   3.729776000000000  11.189328000000000  13.391163999999998 0
ion Au  11.189328000000000   3.729776000000000  13.391163999999998 0
ion Au  11.189328000000000  11.189328000000000  13.391163999999998 0
ion Au   3.729776000000000   0.000000000000000   9.365556999999999 0
ion Au   3.729776000000000   7.459552000000000   9.365556999999999 0
ion Au  11.189328000000000   0.000000000000000   9.365556999999999 0
ion Au  11.189328000000000   7.459552000000000   9.365556999999999 0
ion C   3.729776000000000   3.729776000000000  17.080359766082484 1  Linear 0 0 1
ion O   3.789870000000000   3.729776000000000  19.248312625397944 1  Linear 0 0 1

# Forces in Cartesian coordinates:
force Ni  -0.000425181889641  -0.000452527145989  -0.000068032099717 0
force Ni  -0.000425181889641   0.000452527145989  -0.000068032099717 0
force Ni   0.000471964649155  -0.000444797600912  -0.000105218583215 0
force Ni   0.000471964649155   0.000444797600912  -0.000105218583215 0
force Ni  -0.003582961632102  -0.003554451200399  -0.001986049077880 0
force Ni  -0.003582961632102   0.003554451200399  -0.001986049077880 0
force Ni   0.003470465598112  -0.003499469480412  -0.001986615513321 0
force Ni   0.003470465598112   0.003499469480412  -0.001986615513321 0
force Au  -0.000591724074925   0.000000000000000   0.000412305103158 0
force Au   0.000176153670376   0.000000000000000  -0.000301116949799 0
force Au   0.000557639765000   0.000000000000000   0.000420780183992 0
force Au  -0.000178106506367   0.000000000000000  -0.000274874896468 0
force Au   0.000006027042081   0.000000000000000  -0.000808790868190 0
force Au   0.000022477910545   0.000000000000000   0.001195672789243 0
force Au  -0.000071526216279   0.000000000000000   0.001195780757152 0
force Au  -0.000028598938528   0.000000000000000   0.000088026032236 0
force Au   0.000012894325639  -0.000574854231238   0.000415993363392 0
force Au   0.000012894325639   0.000574854231238   0.000415993363392 0
force Au  -0.000013036561801   0.000177120290336  -0.000287971000070 0
force Au  -0.000013036561801  -0.000177120290336  -0.000287971000070 0
force Au   0.001048841323283   0.000000000000000  -0.000207998327911 0
force Au   0.000395042173404   0.000000000000000   0.000017186051666 0
force Au  -0.001171070958167   0.000000000000000  -0.000170012368918 0
force Au  -0.000412026404214   0.000000000000000  -0.000039803945737 0
force Au   0.000006403525947   0.000000000000000   0.002038876354514 0
force Au  -0.000027541915454   0.000000000000000  -0.000053818094480 0
force Au  -0.000020249548089   0.000000000000000  -0.000058768195472 0
force Au  -0.000039816610373   0.000000000000000   0.001157571883883 0
force Au   0.000006567162370   0.001110390310512  -0.000191477046512 0
force Au   0.000006567162370  -0.001110390310512  -0.000191477046512 0
force Au   0.000012086630036   0.000403698025516  -0.000012254709555 0
force Au   0.000012086630036  -0.000403698025516  -0.000012254709555 0
force C   0.000488406046266   0.000000000000000  -0.000072160814349 1  Linear 0 0 1
force O  -0.000380797184154   0.000000000000000   0.000079954925782 1  Linear 0 0 1

# Energy components:
   A_diel =       -0.0064279889758096
   Eewald =     6321.5833085851872966
       EH =     8424.4369116832003783
     Eloc =   -17233.9593809445104853
      Enl =      109.9106262890442878
     EvdW =       -0.5894770591434887
      Exc =     -894.2365422266818769
 Exc_core =      551.1448321743995393
       KE =      497.8475658946758813
-------------------------------------
     Etot =    -2223.8685835928035885
       TS =        0.0027088540834637
-------------------------------------
        F =    -2223.8712924468868550


Dumping 'jdft.fillings' ... done
Dumping 'jdft.wfns' ... done
Dumping 'jdft.fluidState' ... done
Dumping 'jdft.ionpos' ... done
Dumping 'jdft.lattice' ... done
Dumping 'jdft.eigenvals' ... done
Dumping 'jdft.eigStats' ... 
	eMin: -3.940238 at state 0 ( [ +0.000000 +0.000000 +0.000000 ] spin 1 )
	HOMO: -0.175257 at state 6 ( [ +0.500000 +0.000000 +0.000000 ] spin 1 )
	mu  : -0.175186
	LUMO: -0.175000 at state 11 ( [ +0.000000 +0.500000 +0.000000 ] spin -1 )
	eMax: +0.077704 at state 9 ( [ +0.000000 +0.000000 +0.000000 ] spin -1 )
	HOMO-LUMO gap: +0.000257
	Optical gap  : +0.000878 at state 15 ( [ +0.500000 +0.000000 +0.000000 ] spin -1 )
Dumping 'jdft.Ecomponents' ... done
IonicMinimize: Iter:   5  F: -2223.871292446886855  |grad|_K:  7.616e-05  alpha:  1.000e+00  linmin:  4.903e-04  t[s]:  20036.31
IonicMinimize: Converged (|grad|_K<1.000000e-04).

#--- Lowdin population analysis ---
# oxidation-state Ni +0.220 +0.220 +0.223 +0.223 +0.285 +0.285 +0.285 +0.285
# magnetic-moments Ni +0.015 +0.015 +0.014 +0.014 +0.475 +0.475 +0.474 +0.474
# oxidation-state Au -0.016 -0.019 -0.016 -0.019 -0.072 -0.078 -0.078 -0.072 -0.016 -0.016 -0.019 -0.019 -0.101 -0.103 -0.101 -0.103 -0.116 -0.083 -0.083 -0.086 -0.101 -0.101 -0.103 -0.103
# magnetic-moments Au -0.004 +0.001 -0.004 +0.001 -0.005 -0.002 -0.002 +0.002 -0.004 -0.004 +0.001 +0.001 -0.003 -0.002 -0.003 -0.002 -0.006 -0.013 -0.013 -0.009 -0.003 -0.003 -0.002 -0.002
# oxidation-state C +0.404
# magnetic-moments C +0.002
# oxidation-state O -0.049
# magnetic-moments O -0.003


Dumping 'jdft.n_up' ... done
Dumping 'jdft.n_dn' ... done
Dumping 'jdft.tau_up' ... done
Dumping 'jdft.tau_dn' ... done
Dumping 'jdft.eigenvals' ... done
Dumping 'jdft.eigStats' ... 
	eMin: -3.940238 at state 0 ( [ +0.000000 +0.000000 +0.000000 ] spin 1 )
	HOMO: -0.175257 at state 6 ( [ +0.500000 +0.000000 +0.000000 ] spin 1 )
	mu  : -0.175186
	LUMO: -0.175000 at state 11 ( [ +0.000000 +0.500000 +0.000000 ] spin -1 )
	eMax: +0.077704 at state 9 ( [ +0.000000 +0.000000 +0.000000 ] spin -1 )
	HOMO-LUMO gap: +0.000257
	Optical gap  : +0.000878 at state 15 ( [ +0.500000 +0.000000 +0.000000 ] spin -1 )
Dumping 'jdft.kPts' ... done
Dumping 'jdft.kMap' ... done
Dumping 'jdft.dosUp' ... done.
Dumping 'jdft.dosDn' ... done.
End date and time: Tue Mar  1 04:31:48 2022  (Duration: 0-5:34:34.54)
Done!
