
*************** JDFTx 1.6.0  ***************

Start date and time: Sun Feb 20 03:08:58 2022
Executable /projects/musgravc/apps/jdftx-1.6.1/build/jdftx with command-line: -i in
Running on hosts (process indices):  shas0217.rc.int.colorado.edu (0-23)
Divided in process groups (process indices):  0 (0)  1 (1)  2 (2)  3 (3)  4 (4)  5 (5)  6 (6)  7 (7)  8 (8)  9 (9)  10 (10)  11 (11)  12 (12)  13 (13)  14 (14)  15 (15)  16 (16)  17 (17)  18 (18)  19 (19)  20 (20)  21 (21)  22 (22)  23 (23)
Resource initialization completed at t[s]:      0.05
Run totals: 24 processes, 24 threads, 0 GPUs


Input parsed successfully to the following command list (including defaults):

basis kpoint-dependent
converge-empty-states yes
coords-type Cartesian
core-overlap-check none
coulomb-interaction Periodic
davidson-band-ratio 1.1
density-of-states Etol 1.000000e-06 Esigma 1.000000e-03 \
		Complete \
	Total \
	OrthoOrbital Pt 1   s \
	OrthoOrbital Pt 1   p \
	OrthoOrbital Pt 1   px \
	OrthoOrbital Pt 1   py \
	OrthoOrbital Pt 1   pz \
	OrthoOrbital Pt 1   d \
	OrthoOrbital Pt 1   dxy \
	OrthoOrbital Pt 1   dyz \
	OrthoOrbital Pt 1   dz2 \
	OrthoOrbital Pt 1   dxz \
	OrthoOrbital Pt 1   dx2-y2 \
	OrthoOrbital Pt 2   s \
	OrthoOrbital Pt 2   p \
	OrthoOrbital Pt 2   px \
	OrthoOrbital Pt 2   py \
	OrthoOrbital Pt 2   pz \
	OrthoOrbital Pt 2   d \
	OrthoOrbital Pt 2   dxy \
	OrthoOrbital Pt 2   dyz \
	OrthoOrbital Pt 2   dz2 \
	OrthoOrbital Pt 2   dxz \
	OrthoOrbital Pt 2   dx2-y2 \
	OrthoOrbital Pt 3   s \
	OrthoOrbital Pt 3   p \
	OrthoOrbital Pt 3   px \
	OrthoOrbital Pt 3   py \
	OrthoOrbital Pt 3   pz \
	OrthoOrbital Pt 3   d \
	OrthoOrbital Pt 3   dxy \
	OrthoOrbital Pt 3   dyz \
	OrthoOrbital Pt 3   dz2 \
	OrthoOrbital Pt 3   dxz \
	OrthoOrbital Pt 3   dx2-y2 \
	OrthoOrbital Pt 4   s \
	OrthoOrbital Pt 4   p \
	OrthoOrbital Pt 4   px \
	OrthoOrbital Pt 4   py \
	OrthoOrbital Pt 4   pz \
	OrthoOrbital Pt 4   d \
	OrthoOrbital Pt 4   dxy \
	OrthoOrbital Pt 4   dyz \
	OrthoOrbital Pt 4   dz2 \
	OrthoOrbital Pt 4   dxz \
	OrthoOrbital Pt 4   dx2-y2 \
	OrthoOrbital Pt 5   s \
	OrthoOrbital Pt 5   p \
	OrthoOrbital Pt 5   px \
	OrthoOrbital Pt 5   py \
	OrthoOrbital Pt 5   pz \
	OrthoOrbital Pt 5   d \
	OrthoOrbital Pt 5   dxy \
	OrthoOrbital Pt 5   dyz \
	OrthoOrbital Pt 5   dz2 \
	OrthoOrbital Pt 5   dxz \
	OrthoOrbital Pt 5   dx2-y2 \
	OrthoOrbital Pt 6   s \
	OrthoOrbital Pt 6   p \
	OrthoOrbital Pt 6   px \
	OrthoOrbital Pt 6   py \
	OrthoOrbital Pt 6   pz \
	OrthoOrbital Pt 6   d \
	OrthoOrbital Pt 6   dxy \
	OrthoOrbital Pt 6   dyz \
	OrthoOrbital Pt 6   dz2 \
	OrthoOrbital Pt 6   dxz \
	OrthoOrbital Pt 6   dx2-y2 \
	OrthoOrbital Pt 7   s \
	OrthoOrbital Pt 7   p \
	OrthoOrbital Pt 7   px \
	OrthoOrbital Pt 7   py \
	OrthoOrbital Pt 7   pz \
	OrthoOrbital Pt 7   d \
	OrthoOrbital Pt 7   dxy \
	OrthoOrbital Pt 7   dyz \
	OrthoOrbital Pt 7   dz2 \
	OrthoOrbital Pt 7   dxz \
	OrthoOrbital Pt 7   dx2-y2 \
	OrthoOrbital Pt 8   s \
	OrthoOrbital Pt 8   p \
	OrthoOrbital Pt 8   px \
	OrthoOrbital Pt 8   py \
	OrthoOrbital Pt 8   pz \
	OrthoOrbital Pt 8   d \
	OrthoOrbital Pt 8   dxy \
	OrthoOrbital Pt 8   dyz \
	OrthoOrbital Pt 8   dz2 \
	OrthoOrbital Pt 8   dxz \
	OrthoOrbital Pt 8   dx2-y2 \
	OrthoOrbital Pt 9   s \
	OrthoOrbital Pt 9   p \
	OrthoOrbital Pt 9   px \
	OrthoOrbital Pt 9   py \
	OrthoOrbital Pt 9   pz \
	OrthoOrbital Pt 9   d \
	OrthoOrbital Pt 9   dxy \
	OrthoOrbital Pt 9   dyz \
	OrthoOrbital Pt 9   dz2 \
	OrthoOrbital Pt 9   dxz \
	OrthoOrbital Pt 9   dx2-y2 \
	OrthoOrbital Pt 10   s \
	OrthoOrbital Pt 10   p \
	OrthoOrbital Pt 10   px \
	OrthoOrbital Pt 10   py \
	OrthoOrbital Pt 10   pz \
	OrthoOrbital Pt 10   d \
	OrthoOrbital Pt 10   dxy \
	OrthoOrbital Pt 10   dyz \
	OrthoOrbital Pt 10   dz2 \
	OrthoOrbital Pt 10   dxz \
	OrthoOrbital Pt 10   dx2-y2 \
	OrthoOrbital Pt 11   s \
	OrthoOrbital Pt 11   p \
	OrthoOrbital Pt 11   px \
	OrthoOrbital Pt 11   py \
	OrthoOrbital Pt 11   pz \
	OrthoOrbital Pt 11   d \
	OrthoOrbital Pt 11   dxy \
	OrthoOrbital Pt 11   dyz \
	OrthoOrbital Pt 11   dz2 \
	OrthoOrbital Pt 11   dxz \
	OrthoOrbital Pt 11   dx2-y2 \
	OrthoOrbital Pt 12   s \
	OrthoOrbital Pt 12   p \
	OrthoOrbital Pt 12   px \
	OrthoOrbital Pt 12   py \
	OrthoOrbital Pt 12   pz \
	OrthoOrbital Pt 12   d \
	OrthoOrbital Pt 12   dxy \
	OrthoOrbital Pt 12   dyz \
	OrthoOrbital Pt 12   dz2 \
	OrthoOrbital Pt 12   dxz \
	OrthoOrbital Pt 12   dx2-y2 \
	OrthoOrbital Pt 13   s \
	OrthoOrbital Pt 13   p \
	OrthoOrbital Pt 13   px \
	OrthoOrbital Pt 13   py \
	OrthoOrbital Pt 13   pz \
	OrthoOrbital Pt 13   d \
	OrthoOrbital Pt 13   dxy \
	OrthoOrbital Pt 13   dyz \
	OrthoOrbital Pt 13   dz2 \
	OrthoOrbital Pt 13   dxz \
	OrthoOrbital Pt 13   dx2-y2 \
	OrthoOrbital Pt 14   s \
	OrthoOrbital Pt 14   p \
	OrthoOrbital Pt 14   px \
	OrthoOrbital Pt 14   py \
	OrthoOrbital Pt 14   pz \
	OrthoOrbital Pt 14   d \
	OrthoOrbital Pt 14   dxy \
	OrthoOrbital Pt 14   dyz \
	OrthoOrbital Pt 14   dz2 \
	OrthoOrbital Pt 14   dxz \
	OrthoOrbital Pt 14   dx2-y2 \
	OrthoOrbital Pt 15   s \
	OrthoOrbital Pt 15   p \
	OrthoOrbital Pt 15   px \
	OrthoOrbital Pt 15   py \
	OrthoOrbital Pt 15   pz \
	OrthoOrbital Pt 15   d \
	OrthoOrbital Pt 15   dxy \
	OrthoOrbital Pt 15   dyz \
	OrthoOrbital Pt 15   dz2 \
	OrthoOrbital Pt 15   dxz \
	OrthoOrbital Pt 15   dx2-y2 \
	OrthoOrbital Pt 16   s \
	OrthoOrbital Pt 16   p \
	OrthoOrbital Pt 16   px \
	OrthoOrbital Pt 16   py \
	OrthoOrbital Pt 16   pz \
	OrthoOrbital Pt 16   d \
	OrthoOrbital Pt 16   dxy \
	OrthoOrbital Pt 16   dyz \
	OrthoOrbital Pt 16   dz2 \
	OrthoOrbital Pt 16   dxz \
	OrthoOrbital Pt 16   dx2-y2 \
	OrthoOrbital Pt 17   s \
	OrthoOrbital Pt 17   p \
	OrthoOrbital Pt 17   px \
	OrthoOrbital Pt 17   py \
	OrthoOrbital Pt 17   pz \
	OrthoOrbital Pt 17   d \
	OrthoOrbital Pt 17   dxy \
	OrthoOrbital Pt 17   dyz \
	OrthoOrbital Pt 17   dz2 \
	OrthoOrbital Pt 17   dxz \
	OrthoOrbital Pt 17   dx2-y2 \
	OrthoOrbital Pt 18   s \
	OrthoOrbital Pt 18   p \
	OrthoOrbital Pt 18   px \
	OrthoOrbital Pt 18   py \
	OrthoOrbital Pt 18   pz \
	OrthoOrbital Pt 18   d \
	OrthoOrbital Pt 18   dxy \
	OrthoOrbital Pt 18   dyz \
	OrthoOrbital Pt 18   dz2 \
	OrthoOrbital Pt 18   dxz \
	OrthoOrbital Pt 18   dx2-y2 \
	OrthoOrbital Pt 19   s \
	OrthoOrbital Pt 19   p \
	OrthoOrbital Pt 19   px \
	OrthoOrbital Pt 19   py \
	OrthoOrbital Pt 19   pz \
	OrthoOrbital Pt 19   d \
	OrthoOrbital Pt 19   dxy \
	OrthoOrbital Pt 19   dyz \
	OrthoOrbital Pt 19   dz2 \
	OrthoOrbital Pt 19   dxz \
	OrthoOrbital Pt 19   dx2-y2 \
	OrthoOrbital Pt 20   s \
	OrthoOrbital Pt 20   p \
	OrthoOrbital Pt 20   px \
	OrthoOrbital Pt 20   py \
	OrthoOrbital Pt 20   pz \
	OrthoOrbital Pt 20   d \
	OrthoOrbital Pt 20   dxy \
	OrthoOrbital Pt 20   dyz \
	OrthoOrbital Pt 20   dz2 \
	OrthoOrbital Pt 20   dxz \
	OrthoOrbital Pt 20   dx2-y2 \
	OrthoOrbital Pt 21   s \
	OrthoOrbital Pt 21   p \
	OrthoOrbital Pt 21   px \
	OrthoOrbital Pt 21   py \
	OrthoOrbital Pt 21   pz \
	OrthoOrbital Pt 21   d \
	OrthoOrbital Pt 21   dxy \
	OrthoOrbital Pt 21   dyz \
	OrthoOrbital Pt 21   dz2 \
	OrthoOrbital Pt 21   dxz \
	OrthoOrbital Pt 21   dx2-y2 \
	OrthoOrbital Pt 22   s \
	OrthoOrbital Pt 22   p \
	OrthoOrbital Pt 22   px \
	OrthoOrbital Pt 22   py \
	OrthoOrbital Pt 22   pz \
	OrthoOrbital Pt 22   d \
	OrthoOrbital Pt 22   dxy \
	OrthoOrbital Pt 22   dyz \
	OrthoOrbital Pt 22   dz2 \
	OrthoOrbital Pt 22   dxz \
	OrthoOrbital Pt 22   dx2-y2 \
	OrthoOrbital Pt 23   s \
	OrthoOrbital Pt 23   p \
	OrthoOrbital Pt 23   px \
	OrthoOrbital Pt 23   py \
	OrthoOrbital Pt 23   pz \
	OrthoOrbital Pt 23   d \
	OrthoOrbital Pt 23   dxy \
	OrthoOrbital Pt 23   dyz \
	OrthoOrbital Pt 23   dz2 \
	OrthoOrbital Pt 23   dxz \
	OrthoOrbital Pt 23   dx2-y2 \
	OrthoOrbital Pt 24   s \
	OrthoOrbital Pt 24   p \
	OrthoOrbital Pt 24   px \
	OrthoOrbital Pt 24   py \
	OrthoOrbital Pt 24   pz \
	OrthoOrbital Pt 24   d \
	OrthoOrbital Pt 24   dxy \
	OrthoOrbital Pt 24   dyz \
	OrthoOrbital Pt 24   dz2 \
	OrthoOrbital Pt 24   dxz \
	OrthoOrbital Pt 24   dx2-y2 \
	OrthoOrbital Pt 25   s \
	OrthoOrbital Pt 25   p \
	OrthoOrbital Pt 25   px \
	OrthoOrbital Pt 25   py \
	OrthoOrbital Pt 25   pz \
	OrthoOrbital Pt 25   d \
	OrthoOrbital Pt 25   dxy \
	OrthoOrbital Pt 25   dyz \
	OrthoOrbital Pt 25   dz2 \
	OrthoOrbital Pt 25   dxz \
	OrthoOrbital Pt 25   dx2-y2 \
	OrthoOrbital Pt 26   s \
	OrthoOrbital Pt 26   p \
	OrthoOrbital Pt 26   px \
	OrthoOrbital Pt 26   py \
	OrthoOrbital Pt 26   pz \
	OrthoOrbital Pt 26   d \
	OrthoOrbital Pt 26   dxy \
	OrthoOrbital Pt 26   dyz \
	OrthoOrbital Pt 26   dz2 \
	OrthoOrbital Pt 26   dxz \
	OrthoOrbital Pt 26   dx2-y2 \
	OrthoOrbital Pt 27   s \
	OrthoOrbital Pt 27   p \
	OrthoOrbital Pt 27   px \
	OrthoOrbital Pt 27   py \
	OrthoOrbital Pt 27   pz \
	OrthoOrbital Pt 27   d \
	OrthoOrbital Pt 27   dxy \
	OrthoOrbital Pt 27   dyz \
	OrthoOrbital Pt 27   dz2 \
	OrthoOrbital Pt 27   dxz \
	OrthoOrbital Pt 27   dx2-y2 \
	OrthoOrbital Pt 28   s \
	OrthoOrbital Pt 28   p \
	OrthoOrbital Pt 28   px \
	OrthoOrbital Pt 28   py \
	OrthoOrbital Pt 28   pz \
	OrthoOrbital Pt 28   d \
	OrthoOrbital Pt 28   dxy \
	OrthoOrbital Pt 28   dyz \
	OrthoOrbital Pt 28   dz2 \
	OrthoOrbital Pt 28   dxz \
	OrthoOrbital Pt 28   dx2-y2 \
	OrthoOrbital Pt 29   s \
	OrthoOrbital Pt 29   p \
	OrthoOrbital Pt 29   px \
	OrthoOrbital Pt 29   py \
	OrthoOrbital Pt 29   pz \
	OrthoOrbital Pt 29   d \
	OrthoOrbital Pt 29   dxy \
	OrthoOrbital Pt 29   dyz \
	OrthoOrbital Pt 29   dz2 \
	OrthoOrbital Pt 29   dxz \
	OrthoOrbital Pt 29   dx2-y2 \
	OrthoOrbital Pt 30   s \
	OrthoOrbital Pt 30   p \
	OrthoOrbital Pt 30   px \
	OrthoOrbital Pt 30   py \
	OrthoOrbital Pt 30   pz \
	OrthoOrbital Pt 30   d \
	OrthoOrbital Pt 30   dxy \
	OrthoOrbital Pt 30   dyz \
	OrthoOrbital Pt 30   dz2 \
	OrthoOrbital Pt 30   dxz \
	OrthoOrbital Pt 30   dx2-y2 \
	OrthoOrbital Pt 31   s \
	OrthoOrbital Pt 31   p \
	OrthoOrbital Pt 31   px \
	OrthoOrbital Pt 31   py \
	OrthoOrbital Pt 31   pz \
	OrthoOrbital Pt 31   d \
	OrthoOrbital Pt 31   dxy \
	OrthoOrbital Pt 31   dyz \
	OrthoOrbital Pt 31   dz2 \
	OrthoOrbital Pt 31   dxz \
	OrthoOrbital Pt 31   dx2-y2 \
	OrthoOrbital Pt 32   s \
	OrthoOrbital Pt 32   p \
	OrthoOrbital Pt 32   px \
	OrthoOrbital Pt 32   py \
	OrthoOrbital Pt 32   pz \
	OrthoOrbital Pt 32   d \
	OrthoOrbital Pt 32   dxy \
	OrthoOrbital Pt 32   dyz \
	OrthoOrbital Pt 32   dz2 \
	OrthoOrbital Pt 32   dxz \
	OrthoOrbital Pt 32   dx2-y2 \
	OrthoOrbital Pt 33   s \
	OrthoOrbital Pt 33   p \
	OrthoOrbital Pt 33   px \
	OrthoOrbital Pt 33   py \
	OrthoOrbital Pt 33   pz \
	OrthoOrbital Pt 33   d \
	OrthoOrbital Pt 33   dxy \
	OrthoOrbital Pt 33   dyz \
	OrthoOrbital Pt 33   dz2 \
	OrthoOrbital Pt 33   dxz \
	OrthoOrbital Pt 33   dx2-y2 \
	OrthoOrbital Pt 34   s \
	OrthoOrbital Pt 34   p \
	OrthoOrbital Pt 34   px \
	OrthoOrbital Pt 34   py \
	OrthoOrbital Pt 34   pz \
	OrthoOrbital Pt 34   d \
	OrthoOrbital Pt 34   dxy \
	OrthoOrbital Pt 34   dyz \
	OrthoOrbital Pt 34   dz2 \
	OrthoOrbital Pt 34   dxz \
	OrthoOrbital Pt 34   dx2-y2 \
	OrthoOrbital Pt 35   s \
	OrthoOrbital Pt 35   p \
	OrthoOrbital Pt 35   px \
	OrthoOrbital Pt 35   py \
	OrthoOrbital Pt 35   pz \
	OrthoOrbital Pt 35   d \
	OrthoOrbital Pt 35   dxy \
	OrthoOrbital Pt 35   dyz \
	OrthoOrbital Pt 35   dz2 \
	OrthoOrbital Pt 35   dxz \
	OrthoOrbital Pt 35   dx2-y2 \
	OrthoOrbital Pt 36   s \
	OrthoOrbital Pt 36   p \
	OrthoOrbital Pt 36   px \
	OrthoOrbital Pt 36   py \
	OrthoOrbital Pt 36   pz \
	OrthoOrbital Pt 36   d \
	OrthoOrbital Pt 36   dxy \
	OrthoOrbital Pt 36   dyz \
	OrthoOrbital Pt 36   dz2 \
	OrthoOrbital Pt 36   dxz \
	OrthoOrbital Pt 36   dx2-y2 \
	OrthoOrbital Pt 37   s \
	OrthoOrbital Pt 37   p \
	OrthoOrbital Pt 37   px \
	OrthoOrbital Pt 37   py \
	OrthoOrbital Pt 37   pz \
	OrthoOrbital Pt 37   d \
	OrthoOrbital Pt 37   dxy \
	OrthoOrbital Pt 37   dyz \
	OrthoOrbital Pt 37   dz2 \
	OrthoOrbital Pt 37   dxz \
	OrthoOrbital Pt 37   dx2-y2 \
	OrthoOrbital Pt 38   s \
	OrthoOrbital Pt 38   p \
	OrthoOrbital Pt 38   px \
	OrthoOrbital Pt 38   py \
	OrthoOrbital Pt 38   pz \
	OrthoOrbital Pt 38   d \
	OrthoOrbital Pt 38   dxy \
	OrthoOrbital Pt 38   dyz \
	OrthoOrbital Pt 38   dz2 \
	OrthoOrbital Pt 38   dxz \
	OrthoOrbital Pt 38   dx2-y2 \
	OrthoOrbital Pt 39   s \
	OrthoOrbital Pt 39   p \
	OrthoOrbital Pt 39   px \
	OrthoOrbital Pt 39   py \
	OrthoOrbital Pt 39   pz \
	OrthoOrbital Pt 39   d \
	OrthoOrbital Pt 39   dxy \
	OrthoOrbital Pt 39   dyz \
	OrthoOrbital Pt 39   dz2 \
	OrthoOrbital Pt 39   dxz \
	OrthoOrbital Pt 39   dx2-y2 \
	OrthoOrbital Pt 40   s \
	OrthoOrbital Pt 40   p \
	OrthoOrbital Pt 40   px \
	OrthoOrbital Pt 40   py \
	OrthoOrbital Pt 40   pz \
	OrthoOrbital Pt 40   d \
	OrthoOrbital Pt 40   dxy \
	OrthoOrbital Pt 40   dyz \
	OrthoOrbital Pt 40   dz2 \
	OrthoOrbital Pt 40   dxz \
	OrthoOrbital Pt 40   dx2-y2 \
	OrthoOrbital Pt 41   s \
	OrthoOrbital Pt 41   p \
	OrthoOrbital Pt 41   px \
	OrthoOrbital Pt 41   py \
	OrthoOrbital Pt 41   pz \
	OrthoOrbital Pt 41   d \
	OrthoOrbital Pt 41   dxy \
	OrthoOrbital Pt 41   dyz \
	OrthoOrbital Pt 41   dz2 \
	OrthoOrbital Pt 41   dxz \
	OrthoOrbital Pt 41   dx2-y2 \
	OrthoOrbital Pt 42   s \
	OrthoOrbital Pt 42   p \
	OrthoOrbital Pt 42   px \
	OrthoOrbital Pt 42   py \
	OrthoOrbital Pt 42   pz \
	OrthoOrbital Pt 42   d \
	OrthoOrbital Pt 42   dxy \
	OrthoOrbital Pt 42   dyz \
	OrthoOrbital Pt 42   dz2 \
	OrthoOrbital Pt 42   dxz \
	OrthoOrbital Pt 42   dx2-y2 \
	OrthoOrbital Pt 43   s \
	OrthoOrbital Pt 43   p \
	OrthoOrbital Pt 43   px \
	OrthoOrbital Pt 43   py \
	OrthoOrbital Pt 43   pz \
	OrthoOrbital Pt 43   d \
	OrthoOrbital Pt 43   dxy \
	OrthoOrbital Pt 43   dyz \
	OrthoOrbital Pt 43   dz2 \
	OrthoOrbital Pt 43   dxz \
	OrthoOrbital Pt 43   dx2-y2 \
	OrthoOrbital Pt 44   s \
	OrthoOrbital Pt 44   p \
	OrthoOrbital Pt 44   px \
	OrthoOrbital Pt 44   py \
	OrthoOrbital Pt 44   pz \
	OrthoOrbital Pt 44   d \
	OrthoOrbital Pt 44   dxy \
	OrthoOrbital Pt 44   dyz \
	OrthoOrbital Pt 44   dz2 \
	OrthoOrbital Pt 44   dxz \
	OrthoOrbital Pt 44   dx2-y2 \
	OrthoOrbital Pt 45   s \
	OrthoOrbital Pt 45   p \
	OrthoOrbital Pt 45   px \
	OrthoOrbital Pt 45   py \
	OrthoOrbital Pt 45   pz \
	OrthoOrbital Pt 45   d \
	OrthoOrbital Pt 45   dxy \
	OrthoOrbital Pt 45   dyz \
	OrthoOrbital Pt 45   dz2 \
	OrthoOrbital Pt 45   dxz \
	OrthoOrbital Pt 45   dx2-y2 \
	OrthoOrbital Pt 46   s \
	OrthoOrbital Pt 46   p \
	OrthoOrbital Pt 46   px \
	OrthoOrbital Pt 46   py \
	OrthoOrbital Pt 46   pz \
	OrthoOrbital Pt 46   d \
	OrthoOrbital Pt 46   dxy \
	OrthoOrbital Pt 46   dyz \
	OrthoOrbital Pt 46   dz2 \
	OrthoOrbital Pt 46   dxz \
	OrthoOrbital Pt 46   dx2-y2 \
	OrthoOrbital Pt 47   s \
	OrthoOrbital Pt 47   p \
	OrthoOrbital Pt 47   px \
	OrthoOrbital Pt 47   py \
	OrthoOrbital Pt 47   pz \
	OrthoOrbital Pt 47   d \
	OrthoOrbital Pt 47   dxy \
	OrthoOrbital Pt 47   dyz \
	OrthoOrbital Pt 47   dz2 \
	OrthoOrbital Pt 47   dxz \
	OrthoOrbital Pt 47   dx2-y2 \
	OrthoOrbital Pt 48   s \
	OrthoOrbital Pt 48   p \
	OrthoOrbital Pt 48   px \
	OrthoOrbital Pt 48   py \
	OrthoOrbital Pt 48   pz \
	OrthoOrbital Pt 48   d \
	OrthoOrbital Pt 48   dxy \
	OrthoOrbital Pt 48   dyz \
	OrthoOrbital Pt 48   dz2 \
	OrthoOrbital Pt 48   dxz \
	OrthoOrbital Pt 48   dx2-y2 \
	OrthoOrbital C 1   s \
	OrthoOrbital C 1   p \
	OrthoOrbital C 1   px \
	OrthoOrbital C 1   py \
	OrthoOrbital C 1   pz \
	OrthoOrbital O 1   s \
	OrthoOrbital O 1   p \
	OrthoOrbital O 1   px \
	OrthoOrbital O 1   py \
	OrthoOrbital O 1   pz
dump End ElecDensity KEdensity BandEigs EigStats RhoAtom DOS Kpoints
dump Ionic State IonicPositions Lattice EigStats Ecomponents
dump 
dump 
dump 
dump 
dump 
dump 
dump 
dump 
dump-name jdft.$VAR
elec-cutoff 20
elec-eigen-algo Davidson
elec-ex-corr gga-PBE
elec-initial-magnetization 0.000000 no
elec-n-bands 467
elec-smearing Fermi 0.001
electronic-minimize  \
	dirUpdateScheme      FletcherReeves \
	linminMethod         DirUpdateRecommended \
	nIterations          100 \
	history              15 \
	knormThreshold       0 \
	energyDiffThreshold  1e-07 \
	nEnergyDiff          2 \
	alphaTstart          1 \
	alphaTmin            1e-10 \
	updateTestStepSize   yes \
	alphaTreduceFactor   0.1 \
	alphaTincreaseFactor 3 \
	nAlphaAdjustMax      3 \
	wolfeEnergy          0.0001 \
	wolfeGradient        0.9 \
	fdTest               no
exchange-regularization WignerSeitzTruncated
fluid LinearPCM 298.000000 1.013250
fluid-anion F- 0.5 MeanFieldLJ \
	epsBulk 1 \
	pMol 0 \
	epsInf 1 \
	Pvap 0 \
	sigmaBulk 0 \
	Rvdw 2.24877 \
	Res 0 \
	tauNuc 343133
fluid-cation Na+ 0.5 MeanFieldLJ \
	epsBulk 1 \
	pMol 0 \
	epsInf 1 \
	Pvap 0 \
	sigmaBulk 0 \
	Rvdw 2.19208 \
	Res 0 \
	tauNuc 343133
fluid-ex-corr lda-TF lda-PZ
fluid-gummel-loop 10 1.000000e-05
fluid-minimize  \
	dirUpdateScheme      PolakRibiere \
	linminMethod         DirUpdateRecommended \
	nIterations          400 \
	history              15 \
	knormThreshold       1e-11 \
	energyDiffThreshold  0 \
	nEnergyDiff          2 \
	alphaTstart          1 \
	alphaTmin            1e-10 \
	updateTestStepSize   yes \
	alphaTreduceFactor   0.1 \
	alphaTincreaseFactor 3 \
	nAlphaAdjustMax      6 \
	wolfeEnergy          0.0001 \
	wolfeGradient        0.9 \
	fdTest               no
fluid-solvent H2O 55.338 ScalarEOS \
	epsBulk 78.4 \
	pMol 0.92466 \
	epsInf 1.77 \
	Pvap 1.06736e-10 \
	sigmaBulk 4.62e-05 \
	Rvdw 2.61727 \
	Res 1.42 \
	tauNuc 343133 \
	poleEl 15 7 1
forces-output-coords Positions
initial-state jdft.$VAR
ion Pt   0.000220000000000   0.307628000000000  17.100908000000000 0
ion Pt   0.000220000000000  13.123347000000001  17.100908000000000 0
ion Pt   5.232205000000001   0.307628000000000  17.100908000000000 0
ion Pt   5.232205000000001  13.123347000000001  17.100908000000000 0
ion Pt  10.463699000000000   4.022239000000000   2.178053000000000 0
ion Pt  10.463699000000000  16.837956999999999   2.178053000000000 0
ion Pt   5.231692000000000   4.022239000000000   2.178053000000000 0
ion Pt   5.231692000000000  16.837956999999999   2.178053000000000 0
ion Pt  10.463981000000000   8.528655000000001   5.417403000000000 0
ion Pt  10.463981000000000  21.344373999999998   5.417403000000000 0
ion Pt   5.231975000000000   8.528655000000001   5.417403000000000 0
ion Pt   5.231975000000000  21.344373999999998   5.417403000000000 0
ion Pt  10.463844999999999  25.622132000000001   8.238791000000001 0
ion Pt  10.463844999999999  12.806414000000000   8.238791000000001 0
ion Pt   5.231849000000001  25.622132000000001   8.238791000000001 0
ion Pt   5.231849000000001  12.806414000000000   8.238791000000001 0
ion Pt   0.000157000000000   4.349296000000000  11.332694000000000 0
ion Pt   0.000157000000000  17.165013999999999  11.332694000000000 0
ion Pt   5.232153000000001   4.349296000000000  11.332694000000000 0
ion Pt   5.232153000000001  17.165013999999999  11.332694000000000 0
ion Pt   0.000303000000000   8.653275000000001  14.682311000000000 0
ion Pt   0.000303000000000  21.469018999999999  14.682311000000000 0
ion Pt   5.232310000000000   8.653275000000001  14.682311000000000 0
ion Pt   5.232310000000000  21.469018999999999  14.682311000000000 0
ion Pt   2.615715000000000  25.523040999999999   3.443627000000001 0
ion Pt   2.615715000000000  12.707296999999999   3.443627000000001 0
ion Pt   7.847711000000000  25.523040999999999   3.443627000000001 0
ion Pt   7.847711000000000  12.707296999999999   3.443627000000001 0
ion Pt   2.615810000000000   4.193175000000000   6.787100000000000 0
ion Pt   2.615810000000000  17.008893000000000   6.787100000000000 0
ion Pt   7.847806000000000   4.193175000000000   6.787100000000000 0
ion Pt   7.847806000000000  17.008893000000000   6.787100000000000 0
ion Pt   2.616155000000000   8.553081999999998   9.886386000000000 0
ion Pt   2.616155000000000  21.368799999999997   9.886386000000000 0
ion Pt   7.848151000000000   8.553081999999998   9.886386000000000 0
ion Pt   7.848151000000000  21.368799999999997   9.886386000000000 0
ion Pt   2.615998000000000   0.014841000000000  12.709460000000000 0
ion Pt   2.615998000000000  12.830558999999997  12.709460000000000 0
ion Pt   7.847994000000001   0.014841000000000  12.709460000000000 0
ion Pt   7.847994000000001  12.830558999999997  12.709460000000000 0
ion Pt   2.616322000000000   4.520642000000000  15.941687000000002 0
ion Pt   2.616322000000000  17.336386000000001  15.941687000000002 0
ion Pt   7.848318000000000   4.520642000000000  15.941687000000002 0
ion Pt   7.848318000000000  17.336386000000001  15.941687000000002 0
ion Pt   2.615768000000000   8.237738999999999   1.026553000000000 0
ion Pt   2.615768000000000  21.053457000000002   1.026553000000000 0
ion Pt   7.847764000000002   8.237738999999999   1.026553000000000 0
ion Pt   7.847764000000002  21.053457000000002   1.026553000000000 0
ion C   5.232205000000001  13.123347000000001  20.747068906316443 1  Linear 0 0 1
ion O   5.292300000000001  13.123347000000001  22.908655936192385 1  Linear 0 0 1
ion-species /projects/musgravc/apps/jdftx-1.6.0/build/pseudopotentials/GBRV_v1.5/$ID_pbe_v1.uspp
ion-species /projects/musgravc/apps/jdftx-1.6.0/build/pseudopotentials/GBRV_v1.5/$ID_pbe_v1.2.uspp
ion-species /projects/musgravc/apps/jdftx-1.6.0/build/pseudopotentials/GBRV_v1.5/$ID_pbe_v1.4.uspp
ion-species /projects/musgravc/apps/jdftx-1.6.0/build/pseudopotentials/GBRV_v1.5/$ID_pbe_v1.5.uspp
ion-width Ecut
ionic-minimize  \
	dirUpdateScheme      L-BFGS \
	linminMethod         DirUpdateRecommended \
	nIterations          100 \
	history              15 \
	knormThreshold       0.0001 \
	energyDiffThreshold  1e-06 \
	nEnergyDiff          2 \
	alphaTstart          1 \
	alphaTmin            1e-10 \
	updateTestStepSize   yes \
	alphaTreduceFactor   0.1 \
	alphaTincreaseFactor 3 \
	nAlphaAdjustMax      3 \
	wolfeEnergy          0.0001 \
	wolfeGradient        0.9 \
	fdTest               no
kpoint   0.000000000000   0.000000000000   0.000000000000  1.00000000000000
kpoint-folding 6 2 1 
latt-move-scale 0 0 0
latt-scale 1 1 1 
lattice  \
	  10.463991999999999    0.000000000000000    0.000000000000000  \
	   0.000000000000000   25.631436000000001    0.000000000000000  \
	   0.000000000000000    0.000000000000000   54.372487000000000 
lattice-minimize  \
	dirUpdateScheme      L-BFGS \
	linminMethod         DirUpdateRecommended \
	nIterations          0 \
	history              15 \
	knormThreshold       0 \
	energyDiffThreshold  1e-06 \
	nEnergyDiff          2 \
	alphaTstart          1 \
	alphaTmin            1e-10 \
	updateTestStepSize   yes \
	alphaTreduceFactor   0.1 \
	alphaTincreaseFactor 3 \
	nAlphaAdjustMax      3 \
	wolfeEnergy          0.0001 \
	wolfeGradient        0.9 \
	fdTest               no
lcao-params 30 1e-06 0.001
pcm-variant CANDLE
spintype z-spin
subspace-rotation-factor 1 yes
symmetries automatic
symmetry-threshold 0.0001
van-der-waals D3



---------- Setting up symmetries ----------

Found 8 point-group symmetries of the bravais lattice
Found 1 space-group symmetries with basis
Applied RMS atom displacement 0 bohrs to make symmetries exact.

---------- Initializing the Grid ----------
R = 
[       10.464            0            0  ]
[            0      25.6314            0  ]
[            0            0      54.3725  ]
unit cell volume = 14583.1
G =
[   0.600458          0          0  ]
[          0   0.245136          0  ]
[          0          0   0.115558  ]
Minimum fftbox size, Smin = [  44  104  220  ]
Chosen fftbox size, S = [  48  108  224  ]

---------- Exchange Correlation functional ----------
Initalized PBE GGA exchange.
Initalized PBE GGA correlation.

---------- Setting up pseudopotentials ----------
Width of ionic core gaussian charges (only for fluid interactions / plotting) set to 0.397384

Reading pseudopotential file '/projects/musgravc/apps/jdftx-1.6.0/build/pseudopotentials/GBRV_v1.5/pt_pbe_v1.4.uspp':
  Title: Pt.  Created by USPP 7.3.6 on 31-3-15
  Reference state energy: -105.002503.  16 valence electrons in orbitals:
    |510>  occupation: 6  eigenvalue: -2.158104
    |520>  occupation: 9.5  eigenvalue: -0.335376
    |600>  occupation: 0  eigenvalue: -0.319640
    |610>  occupation: 0  eigenvalue: -0.122947
  lMax: 2  lLocal: 3  QijEcut: 5.5
  6 projectors sampled on a log grid with 745 points:
    l: 0  eig: -0.319640  rCut: 2.45
    l: 0  eig: 1.500000  rCut: 2.45
    l: 1  eig: -2.158104  rCut: 1.6
    l: 1  eig: -0.122947  rCut: 1.6
    l: 2  eig: -0.500000  rCut: 1.6
    l: 2  eig: -0.335375  rCut: 1.6
  Partial core density with radius 1.1
  Transforming core density to a uniform radial grid of dG=0.02 with 1179 points.
  Transforming local potential to a uniform radial grid of dG=0.02 with 1179 points.
  Transforming nonlocal projectors to a uniform radial grid of dG=0.02 with 432 points.
  Transforming density augmentations to a uniform radial grid of dG=0.02 with 1179 points.
  Transforming atomic orbitals to a uniform radial grid of dG=0.02 with 432 points.
  Core radius for overlap checks: 2.45 bohrs.

Reading pseudopotential file '/projects/musgravc/apps/jdftx-1.6.0/build/pseudopotentials/GBRV_v1.5/c_pbe_v1.2.uspp':
  Title: C.  Created by USPP 7.3.6 on 3-2-2014
  Reference state energy: -5.406344.  4 valence electrons in orbitals:
    |200>  occupation: 2  eigenvalue: -0.504890
    |210>  occupation: 2  eigenvalue: -0.194356
  lMax: 1  lLocal: 2  QijEcut: 5
  4 projectors sampled on a log grid with 503 points:
    l: 0  eig: -0.504890  rCut: 1.3
    l: 0  eig: 0.000000  rCut: 1.3
    l: 1  eig: -0.194357  rCut: 1.3
    l: 1  eig: 0.000000  rCut: 1.3
  Partial core density with radius 1.1
  Transforming core density to a uniform radial grid of dG=0.02 with 1179 points.
  Transforming local potential to a uniform radial grid of dG=0.02 with 1179 points.
  Transforming nonlocal projectors to a uniform radial grid of dG=0.02 with 432 points.
  Transforming density augmentations to a uniform radial grid of dG=0.02 with 1179 points.
  Transforming atomic orbitals to a uniform radial grid of dG=0.02 with 432 points.
  Core radius for overlap checks: 1.30 bohrs.

Reading pseudopotential file '/projects/musgravc/apps/jdftx-1.6.0/build/pseudopotentials/GBRV_v1.5/o_pbe_v1.2.uspp':
  Title: O.  Created by USPP 7.3.6 on 3-2-2014
  Reference state energy: -15.894388.  6 valence electrons in orbitals:
    |200>  occupation: 2  eigenvalue: -0.878823
    |210>  occupation: 4  eigenvalue: -0.332131
  lMax: 2  lLocal: 2  QijEcut: 6
  5 projectors sampled on a log grid with 511 points:
    l: 0  eig: -0.878823  rCut: 1.25
    l: 0  eig: 0.000000  rCut: 1.25
    l: 1  eig: -0.332132  rCut: 1.25
    l: 1  eig: 0.000000  rCut: 1.25
    l: 2  eig: 1.000000  rCut: 1.25
  Partial core density with radius 0.7
  Transforming core density to a uniform radial grid of dG=0.02 with 1179 points.
  Transforming local potential to a uniform radial grid of dG=0.02 with 1179 points.
  Transforming nonlocal projectors to a uniform radial grid of dG=0.02 with 432 points.
  Transforming density augmentations to a uniform radial grid of dG=0.02 with 1179 points.
  Transforming atomic orbitals to a uniform radial grid of dG=0.02 with 432 points.
  Core radius for overlap checks: 1.25 bohrs.

Initialized 3 species with 50 total atoms.

Folded 1 k-points by 6x2x1 to 12 k-points.

---------- Setting up k-points, bands, fillings ----------
Adding inversion symmetry to k-mesh for non-inversion-symmetric unit cell.
Reduced to 8 k-points under symmetry. 
Computing the number of bands and number of electrons
Reading initial fillings from file jdft.fillings.
nElectrons: 778.000000   nBands: 467   nStates: 16

----- Setting up reduced wavefunction bases (one per k-point) -----
average nbasis = 62290.083 , ideal nbasis = 62300.069

----- Initializing Supercell corresponding to k-point mesh -----
Lattice vector linear combinations in supercell:
[   6   0   0  ]
[   0   2   0  ]
[   0   0   1  ]
Supercell lattice vectors:
[  62.784  0  0  ]
[  0  51.2629  0  ]
[  0  0  54.3725  ]

Initializing DFT-D3 calculator:
	Parameters set for gga-PBE functional
	s6:  1.000  s_r6:  1.217
	s8:  0.722  s_r8:  1.000
	Per-atom parameters loaded for:
	Pt:  sqrtQ[a0]:  5.888  Rcov[a0]:  2.116  CN: [ 0.00 1.92 6.67 ]
	 C:  sqrtQ[a0]:  3.105  Rcov[a0]:  1.417  CN: [ 0.00 0.99 2.00 3.00 3.98 ]
	 O:  sqrtQ[a0]:  2.594  Rcov[a0]:  1.191  CN: [ 0.00 0.99 1.99 ]

Initializing DFT-D2 calculator for fluid / solvation:
	Pt:  C6:  815.23 Eh-a0^6  R0: 3.326 a0 (WARNING: beyond Grimme's data set)
	 C:  C6:   30.35 Eh-a0^6  R0: 2.744 a0
	 O:  C6:   12.14 Eh-a0^6  R0: 2.536 a0

---------- Setting up ewald sum ----------
Optimum gaussian width for ewald sums = 5.078065 bohr.
Real space sum over 455 unit cells with max indices [  6  3  2  ]
Reciprocal space sum over 7733 terms with max indices [  5  9  18  ]

Computing DFT-D3 correction:
# coordination-number Pt 5.928 5.960 5.928 6.940 7.145 7.145 7.145 7.145 9.433 9.433 9.433 9.433 9.344 9.344 9.344 9.344 9.308 9.308 9.308 9.308 7.663 7.662 7.664 7.662 7.666 7.666 7.666 7.666 9.310 9.310 9.310 9.310 9.342 9.342 9.342 9.342 9.434 9.435 9.434 9.435 7.149 7.155 7.149 7.155 5.929 5.929 5.929 5.929
# coordination-number C 2.043
# coordination-number O 1.027
# diagonal-C6 Pt 336.87 336.87 336.87 336.87 336.87 336.87 336.87 336.87 336.87 336.87 336.87 336.87 336.87 336.87 336.87 336.87 336.87 336.87 336.87 336.87 336.87 336.87 336.87 336.87 336.87 336.87 336.87 336.87 336.87 336.87 336.87 336.87 336.87 336.87 336.87 336.87 336.87 336.87 336.87 336.87 336.87 336.87 336.87 336.87 336.87 336.87 336.87 336.87
# diagonal-C6 C 29.40
# diagonal-C6 O 12.79
EvdW_6 =   -0.378044
EvdW_8 =   -0.629358

---------- Allocating electronic variables ----------
Initializing wave functions:  reading from 'jdft.wfns'
----- createFluidSolver() ----- (Fluid-side solver setup)
   Initializing fluid molecule 'H2O'
     Initializing site 'O'
       Electron density: proportional to exp(-r/0.36935)*erfc((r-0.51523)/0.36823) with norm 6.826
       Charge density: gaussian nuclear width 0.478731 with net site charge 0.826
       Polarizability: cuspless exponential with width 0.32 and norm 3.73
       Hard sphere radius: 2.57003 bohrs
       Positions in reference frame:
         [ +0.000000 +0.000000 +0.000000 ]
     Initializing site 'H'
       Electron density: proportional to exp(-r/0.34641)*erfc((r-0)/0.390882) with norm 0.587
       Charge density: gaussian nuclear width 0.377945 with net site charge -0.413
       Polarizability: cuspless exponential with width 0.39 and norm 3.3
       Positions in reference frame:
         [ +0.000000 -1.441945 +1.122523 ]
         [ +0.000000 +1.441945 +1.122523 ]
     Net charge: 0   dipole magnitude: 0.927204
     Initializing spherical shell mfKernel with radius 2.61727 Bohr
     deltaS corrections:
       site 'O': -7.54299
       site 'H': -6.83917
   Initializing fluid molecule 'Na+'
     Initializing site 'Na'
       Electron density: proportional to exp(-r/0.19682)*erfc((r-0.71491)/0.41314) with norm 8.1383
       Charge density: gaussian nuclear width 0.365347 with net site charge -1
       Hard sphere radius: 1.86327 bohrs
       Positions in reference frame:
         [ +0.000000 +0.000000 +0.000000 ]
     Net charge: -1   dipole magnitude: 0
     Initializing gaussian mfKernel with width: 1.55004 Bohr
     deltaS corrections:
       site 'Na': -22.3555
   Initializing fluid molecule 'F-'
     Initializing site 'F'
       Electron density: proportional to exp(-r/0.38886)*erfc((r-0)/0.438782) with norm 8
       Charge density: gaussian nuclear width 0.374796 with net site charge 1
       Hard sphere radius: 2.39995 bohrs
       Positions in reference frame:
         [ +0.000000 +0.000000 +0.000000 ]
     Net charge: 1   dipole magnitude: 0
     Initializing gaussian mfKernel with width: 1.59012 Bohr
     deltaS corrections:
       site 'F': -9.04335

Correction to mu due to finite nuclear width = -0.0529334
   Cavity determined by nc: 0.00142 and sigma: 0.707107
   Nonlocal vdW cavity from gaussian model electron density with norm = 8 and sigma = 0.993594 bohr
   Charge asymmetry in cavity with sensitivity pCavity = 36.5 e-bohr/Eh
   Electrostatic cavity expanded by eta = 1.46 bohrs
   Weighted density cavitation model constrained by Nbulk: 0.0049383 bohr^-3, Pvap: 3.14029 kPa, Rvdw: 2.61727 bohr and sigmaBulk: 4.62e-05 Eh/bohr^2 at T: 298 K.
   Weighted density dispersion model using vdW pair potentials with single solvent site with sqrtC6eff: 0.77 SI.
Reading fluid state from 'jdft.fluidState'


---- Citations for features of the code used in this run ----

   Software package:
      R. Sundararaman, K. Letchworth-Weaver, K.A. Schwarz, D. Gunceler, Y. Ozhabes and T.A. Arias, 'JDFTx: software for joint density-functional theory', SoftwareX 6, 278 (2017)

   gga-PBE exchange-correlation functional:
      J.P. Perdew, K. Burke and M. Ernzerhof, Phys. Rev. Lett. 77, 3865 (1996)

   Pseudopotentials:
      KF Garrity, JW Bennett, KM Rabe and D Vanderbilt, Comput. Mater. Sci. 81, 446 (2014)

   DFT-D3 dispersion correction:
      S. Grimme, J. Antony, S. Ehrlich and H. Krieg, J. Chem. Phys. 132, 154104 (2010)

   DFT-D2 dispersion correction:
      S. Grimme, J. Comput. Chem. 27, 1787 (2006)

   Charge-asymmetric nonlocally-determined local-electric (CANDLE) solvation model:
      R. Sundararaman and W.A. Goddard III, J. Chem. Phys. 142, 064107 (2015)

   Total energy minimization with Auxiliary Hamiltonian:
      C. Freysoldt, S. Boeck, and J. Neugebauer, Phys. Rev. B 79, 241103(R) (2009)

   Linear-tetrahedron sampling for density of states:
      G. Lehmann and M. Taut, Phys. status solidi (b) 54, 469 (1972)

This list may not be complete. Please suggest additional citations or
report any other bugs at https://github.com/shankar1729/jdftx/issues

Initialization completed successfully at t[s]:     34.60


Computing DFT-D3 correction:
# coordination-number Pt 5.928 5.960 5.928 6.940 7.145 7.145 7.145 7.145 9.433 9.433 9.433 9.433 9.344 9.344 9.344 9.344 9.308 9.308 9.308 9.308 7.663 7.662 7.664 7.662 7.666 7.666 7.666 7.666 9.310 9.310 9.310 9.310 9.342 9.342 9.342 9.342 9.434 9.435 9.434 9.435 7.149 7.155 7.149 7.155 5.929 5.929 5.929 5.929
# coordination-number C 2.043
# coordination-number O 1.027
# diagonal-C6 Pt 336.87 336.87 336.87 336.87 336.87 336.87 336.87 336.87 336.87 336.87 336.87 336.87 336.87 336.87 336.87 336.87 336.87 336.87 336.87 336.87 336.87 336.87 336.87 336.87 336.87 336.87 336.87 336.87 336.87 336.87 336.87 336.87 336.87 336.87 336.87 336.87 336.87 336.87 336.87 336.87 336.87 336.87 336.87 336.87 336.87 336.87 336.87 336.87
# diagonal-C6 C 29.40
# diagonal-C6 O 12.79
EvdW_6 =   -0.378044
EvdW_8 =   -0.629358

-------- Electronic minimization -----------
	Linear fluid (dielectric constant: 78.4, screening length: 8.12261 Bohr) occupying 0.492930 of unit cell:	Completed after 7 iterations at t[s]:     55.12
	FillingsUpdate:  mu: -0.192479442  nElectrons: 778.000000  magneticMoment: [ Abs: 0.00000  Tot: -0.00000 ]
ElecMinimize: Iter:   0  F: -4292.142295216298407  |grad|_K:  9.919e-07  alpha:  1.000e+00
	Linear fluid (dielectric constant: 78.4, screening length: 8.12261 Bohr) occupying 0.493053 of unit cell:	Completed after 18 iterations at t[s]:    202.12
	Linear fluid (dielectric constant: 78.4, screening length: 8.12261 Bohr) occupying 0.492930 of unit cell:	Completed after 19 iterations at t[s]:    254.35
	FillingsUpdate:  mu: -0.192465047  nElectrons: 778.000000  magneticMoment: [ Abs: 0.00000  Tot: -0.00000 ]
	SubspaceRotationAdjust: set factor to 0.472
ElecMinimize: Iter:   1  F: -4292.142301682285506  |grad|_K:  5.290e-08  alpha:  1.412e-02  linmin:  1.336e-03  t[s]:    320.22
	Linear fluid (dielectric constant: 78.4, screening length: 8.12261 Bohr) occupying 0.492930 of unit cell:	Completed after 0 iterations at t[s]:    385.48
ElecMinimize: 	Predicted alpha/alphaT>3.000000, increasing alphaT to 4.234857e-02.
	Linear fluid (dielectric constant: 78.4, screening length: 8.12261 Bohr) occupying 0.492929 of unit cell:	Completed after 2 iterations at t[s]:    432.43
	Linear fluid (dielectric constant: 78.4, screening length: 8.12261 Bohr) occupying 0.492929 of unit cell:	Completed after 0 iterations at t[s]:    478.55
	FillingsUpdate:  mu: -0.192469217  nElectrons: 778.000000  magneticMoment: [ Abs: 0.00000  Tot: -0.00000 ]
	SubspaceRotationAdjust: set factor to 0.348
ElecMinimize: Iter:   2  F: -4292.142301757320638  |grad|_K:  2.697e-08  alpha:  5.328e-02  linmin: -5.148e-03  t[s]:    544.17
	Linear fluid (dielectric constant: 78.4, screening length: 8.12261 Bohr) occupying 0.492929 of unit cell:	Completed after 2 iterations at t[s]:    610.78
	Linear fluid (dielectric constant: 78.4, screening length: 8.12261 Bohr) occupying 0.492929 of unit cell:	Completed after 0 iterations at t[s]:    656.82
	FillingsUpdate:  mu: -0.192475061  nElectrons: 778.000000  magneticMoment: [ Abs: 0.00000  Tot: -0.00000 ]
	SubspaceRotationAdjust: set factor to 0.244
ElecMinimize: Iter:   3  F: -4292.142301784968367  |grad|_K:  1.988e-08  alpha:  5.876e-02  linmin: -6.724e-03  t[s]:    722.57
ElecMinimize: Converged (|Delta F|<1.000000e-07 for 2 iters).
Setting wave functions to eigenvectors of Hamiltonian
Converging empty states (this may take a while): |deigs|: 7.003e-09

Computing DFT-D3 correction:
# coordination-number Pt 5.928 5.960 5.928 6.940 7.145 7.145 7.145 7.145 9.433 9.433 9.433 9.433 9.344 9.344 9.344 9.344 9.308 9.308 9.308 9.308 7.663 7.662 7.664 7.662 7.666 7.666 7.666 7.666 9.310 9.310 9.310 9.310 9.342 9.342 9.342 9.342 9.434 9.435 9.434 9.435 7.149 7.155 7.149 7.155 5.929 5.929 5.929 5.929
# coordination-number C 2.043
# coordination-number O 1.027
# diagonal-C6 Pt 336.87 336.87 336.87 336.87 336.87 336.87 336.87 336.87 336.87 336.87 336.87 336.87 336.87 336.87 336.87 336.87 336.87 336.87 336.87 336.87 336.87 336.87 336.87 336.87 336.87 336.87 336.87 336.87 336.87 336.87 336.87 336.87 336.87 336.87 336.87 336.87 336.87 336.87 336.87 336.87 336.87 336.87 336.87 336.87 336.87 336.87 336.87 336.87
# diagonal-C6 C 29.40
# diagonal-C6 O 12.79
EvdW_6 =   -0.378044
EvdW_8 =   -0.629358

# Ionic positions in cartesian coordinates:
ion Pt   0.000220000000000   0.307628000000000  17.100908000000000 0
ion Pt   0.000220000000000  13.123347000000001  17.100908000000000 0
ion Pt   5.232205000000001   0.307628000000000  17.100908000000000 0
ion Pt   5.232205000000001  13.123347000000001  17.100908000000000 0
ion Pt  10.463699000000000   4.022239000000000   2.178053000000000 0
ion Pt  10.463699000000000  16.837956999999999   2.178053000000000 0
ion Pt   5.231692000000000   4.022239000000000   2.178053000000000 0
ion Pt   5.231692000000000  16.837956999999999   2.178053000000000 0
ion Pt  10.463981000000000   8.528655000000001   5.417403000000000 0
ion Pt  10.463981000000000  21.344373999999998   5.417403000000000 0
ion Pt   5.231975000000000   8.528655000000001   5.417403000000000 0
ion Pt   5.231975000000000  21.344373999999998   5.417403000000000 0
ion Pt  10.463844999999999  25.622132000000001   8.238791000000001 0
ion Pt  10.463844999999999  12.806414000000000   8.238791000000001 0
ion Pt   5.231849000000001  25.622132000000001   8.238791000000001 0
ion Pt   5.231849000000001  12.806414000000000   8.238791000000001 0
ion Pt   0.000157000000000   4.349296000000000  11.332694000000000 0
ion Pt   0.000157000000000  17.165013999999999  11.332694000000000 0
ion Pt   5.232153000000001   4.349296000000000  11.332694000000000 0
ion Pt   5.232153000000001  17.165013999999999  11.332694000000000 0
ion Pt   0.000303000000000   8.653275000000001  14.682311000000000 0
ion Pt   0.000303000000000  21.469018999999999  14.682311000000000 0
ion Pt   5.232310000000000   8.653275000000001  14.682311000000000 0
ion Pt   5.232310000000000  21.469018999999999  14.682311000000000 0
ion Pt   2.615715000000000  25.523040999999999   3.443627000000001 0
ion Pt   2.615715000000000  12.707296999999999   3.443627000000001 0
ion Pt   7.847711000000000  25.523040999999999   3.443627000000001 0
ion Pt   7.847711000000000  12.707296999999999   3.443627000000001 0
ion Pt   2.615810000000000   4.193175000000000   6.787100000000000 0
ion Pt   2.615810000000000  17.008893000000000   6.787100000000000 0
ion Pt   7.847806000000000   4.193175000000000   6.787100000000000 0
ion Pt   7.847806000000000  17.008893000000000   6.787100000000000 0
ion Pt   2.616155000000000   8.553081999999998   9.886386000000000 0
ion Pt   2.616155000000000  21.368799999999997   9.886386000000000 0
ion Pt   7.848151000000000   8.553081999999998   9.886386000000000 0
ion Pt   7.848151000000000  21.368799999999997   9.886386000000000 0
ion Pt   2.615998000000000   0.014841000000000  12.709460000000000 0
ion Pt   2.615998000000000  12.830558999999997  12.709460000000000 0
ion Pt   7.847994000000001   0.014841000000000  12.709460000000000 0
ion Pt   7.847994000000001  12.830558999999997  12.709460000000000 0
ion Pt   2.616322000000000   4.520642000000000  15.941687000000002 0
ion Pt   2.616322000000000  17.336386000000001  15.941687000000002 0
ion Pt   7.848318000000000   4.520642000000000  15.941687000000002 0
ion Pt   7.848318000000000  17.336386000000001  15.941687000000002 0
ion Pt   2.615768000000000   8.237738999999999   1.026553000000000 0
ion Pt   2.615768000000000  21.053457000000002   1.026553000000000 0
ion Pt   7.847764000000002   8.237738999999999   1.026553000000000 0
ion Pt   7.847764000000002  21.053457000000002   1.026553000000000 0
ion C   5.232205000000001  13.123347000000001  20.747068906316443 1  Linear 0 0 1
ion O   5.292300000000001  13.123347000000001  22.908655936192385 1  Linear 0 0 1

# Forces in Cartesian coordinates:
force Pt   0.000000484276756   0.000101348021330  -0.000471750278912 0
force Pt  -0.000103308257099   0.000570554886774  -0.004569717264943 0
force Pt  -0.000000454512902  -0.000097526007413  -0.000652679113412 0
force Pt  -0.000204464439532  -0.011436138339300   0.040953550682630 0
force Pt  -0.000000600618959   0.000953474889003  -0.000031462144799 0
force Pt   0.000001082324803   0.000081048288689  -0.000078586490167 0
force Pt  -0.000000516908654   0.000804532430917  -0.000354475449163 0
force Pt  -0.000001835846598   0.000303573942550  -0.000454809421091 0
force Pt   0.000002195929837   0.001350912633083   0.000395488011446 0
force Pt  -0.000002643934503   0.000708795381336  -0.000540484720795 0
force Pt  -0.000005487886808   0.000621214770561  -0.000263767772154 0
force Pt  -0.000004036076189   0.000617164952669  -0.000363746657260 0
force Pt  -0.000003145479464   0.000879975605572   0.000037940678919 0
force Pt  -0.000032123280251   0.000526141353973  -0.004853424789231 0
force Pt   0.000002052261513   0.000705662435578  -0.000534581572399 0
force Pt  -0.000006742696896   0.000145283806121   0.000463548897000 0
force Pt  -0.000000397774777   0.000212557442123  -0.000160361307263 0
force Pt   0.000008678342221  -0.000993308000205  -0.001022527703982 0
force Pt  -0.000002044003011  -0.000331519456150  -0.000102175689236 0
force Pt  -0.000014333626674   0.000445189651239   0.000691840080788 0
force Pt   0.000010969136792  -0.001728740964993  -0.000838834520689 0
force Pt   0.000011951435303   0.001271439169116  -0.001461382047952 0
force Pt  -0.000010849460103  -0.002831858043355  -0.004855737746888 0
force Pt  -0.000001229607247  -0.000838458859570   0.000134275106645 0
force Pt   0.000063248496215  -0.000092560843418   0.000519482465898 0
force Pt   0.000063329531422  -0.000420219615273  -0.000825576552366 0
force Pt  -0.000070465447751  -0.000093575330148   0.000524810776343 0
force Pt  -0.000064880755829  -0.000413288416417  -0.000788340998253 0
force Pt   0.000022922326553   0.000151684490126   0.000399067687868 0
force Pt   0.000483876814832  -0.000207919130677   0.000619810575857 0
force Pt  -0.000019009258584   0.000146145631083   0.000381586726621 0
force Pt  -0.000488445043487  -0.000202688660851   0.000601054708691 0
force Pt  -0.000436651868785   0.000017237992870   0.000835567544444 0
force Pt   0.000200668551542  -0.000771947333544   0.000543922444083 0
force Pt   0.000435293804157   0.000002844260822   0.000821573886685 0
force Pt  -0.000195218503860  -0.000781626166643   0.000543484878472 0
force Pt   0.000036222278291  -0.000826853381864   0.000500612731537 0
force Pt   0.003825612024936   0.000000609998110   0.003334453160161 0
force Pt  -0.000029254186808  -0.000839302115808   0.000514958448098 0
force Pt  -0.004040411837273   0.000096226313191   0.003845435807600 0
force Pt   0.000090652366409  -0.000196942650194   0.000305892552057 0
force Pt  -0.003602486559826   0.006733826485139  -0.002846105971612 0
force Pt  -0.000080765157947  -0.000206957933732   0.000297302080002 0
force Pt   0.003604283001367   0.006687346028782  -0.002837313061117 0
force Pt   0.000165507330964  -0.000360059243053   0.000156252795714 0
force Pt   0.000373144352408  -0.000225541548391   0.000390303043800 0
force Pt  -0.000165176280173  -0.000356080266394   0.000156224872551 0
force Pt  -0.000377406278176  -0.000226413393430   0.000393317017210 0
force C   0.000945128363449   0.000710832754316  -0.047532380269818 1  Linear 0 0 1
force O  -0.000437899026531  -0.000326726673326   0.018261435017717 1  Linear 0 0 1

# Energy components:
   A_diel =       -0.0126356112736342
   Eewald =    24196.5891564685553021
       EH =    28092.7651275242606062
     Eloc =   -57330.2790029921743553
      Enl =      -47.3814115894129202
     EvdW =       -1.0074016852617758
      Exc =    -1370.5106489115532895
 Exc_core =      786.8850552990484175
       KE =     1380.8177231015829420
  MuShift =       -0.0000000000007161
-------------------------------------
     Etot =    -4292.1340383962333362
       TS =        0.0082633887351657
-------------------------------------
        F =    -4292.1423017849683674


Dumping 'jdft.fillings' ... done
Dumping 'jdft.wfns' ... done
Dumping 'jdft.fluidState' ... done
Dumping 'jdft.ionpos' ... done
Dumping 'jdft.lattice' ... done
Dumping 'jdft.eigenvals' ... done
Dumping 'jdft.eigStats' ... 
	eMin: -2.161843 at state 8 ( [ +0.000000 +0.000000 +0.000000 ] spin -1 )
	HOMO: -0.192533 at state 7 ( [ +0.500000 +0.500000 +0.000000 ] spin 1 )
	mu  : -0.192475
	LUMO: -0.192399 at state 15 ( [ +0.500000 +0.500000 +0.000000 ] spin -1 )
	eMax: +0.086617 at state 5 ( [ +0.333333 +0.500000 +0.000000 ] spin 1 )
	HOMO-LUMO gap: +0.000134
	Optical gap  : +0.000134 at state 7 ( [ +0.500000 +0.500000 +0.000000 ] spin 1 )
Dumping 'jdft.Ecomponents' ... done
IonicMinimize: Iter:   0  F: -4292.142301784968367  |grad|_K:  3.601e-02  t[s]:    913.88

#--- Lowdin population analysis ---
# oxidation-state Pt +0.050 +0.028 +0.051 -0.137 +0.009 +0.007 +0.008 +0.009 -0.012 -0.013 -0.011 -0.012 +0.018 +0.001 +0.018 +0.019 +0.012 +0.011 +0.012 +0.010 -0.008 -0.010 -0.015 -0.008 -0.011 -0.013 -0.011 -0.013 +0.011 +0.011 +0.011 +0.011 +0.016 +0.017 +0.016 +0.017 -0.011 -0.026 -0.011 -0.026 +0.008 +0.007 +0.008 +0.007 +0.050 +0.050 +0.050 +0.050
# magnetic-moments Pt -0.000 -0.000 +0.000 -0.000 -0.000 -0.000 -0.000 -0.000 -0.000 -0.000 -0.000 -0.000 -0.000 -0.000 -0.000 -0.000 -0.000 -0.000 -0.000 -0.000 -0.000 -0.000 -0.000 -0.000 -0.000 -0.000 -0.000 -0.000 -0.000 -0.000 -0.000 -0.000 -0.000 -0.000 -0.000 -0.000 -0.000 -0.000 -0.000 -0.000 +0.000 -0.000 -0.000 -0.000 -0.000 +0.000 -0.000 +0.000
# oxidation-state C +0.507
# magnetic-moments C +0.000
# oxidation-state O -0.087
# magnetic-moments O -0.000


Computing DFT-D3 correction:
# coordination-number Pt 5.928 5.961 5.928 6.941 7.145 7.145 7.145 7.145 9.433 9.433 9.433 9.433 9.344 9.344 9.344 9.344 9.308 9.308 9.308 9.308 7.663 7.662 7.664 7.662 7.666 7.666 7.666 7.666 9.310 9.310 9.310 9.310 9.342 9.342 9.342 9.342 9.434 9.435 9.434 9.435 7.149 7.156 7.149 7.156 5.929 5.929 5.929 5.929
# coordination-number C 2.048
# coordination-number O 1.026
# diagonal-C6 Pt 336.87 336.87 336.87 336.87 336.87 336.87 336.87 336.87 336.87 336.87 336.87 336.87 336.87 336.87 336.87 336.87 336.87 336.87 336.87 336.87 336.87 336.87 336.87 336.87 336.87 336.87 336.87 336.87 336.87 336.87 336.87 336.87 336.87 336.87 336.87 336.87 336.87 336.87 336.87 336.87 336.87 336.87 336.87 336.87 336.87 336.87 336.87 336.87
# diagonal-C6 C 29.40
# diagonal-C6 O 12.79
EvdW_6 =   -0.378052
EvdW_8 =   -0.629409

-------- Electronic minimization -----------
	Linear fluid (dielectric constant: 78.4, screening length: 8.12261 Bohr) occupying 0.492908 of unit cell:	Completed after 17 iterations at t[s]:    988.31
	FillingsUpdate:  mu: -0.193962767  nElectrons: 778.000000  magneticMoment: [ Abs: 0.00000  Tot: -0.00000 ]
ElecMinimize: Iter:   0  F: -4292.131907290017807  |grad|_K:  7.231e-06  alpha:  1.000e+00
	Linear fluid (dielectric constant: 78.4, screening length: 8.12261 Bohr) occupying 0.492916 of unit cell:	Completed after 19 iterations at t[s]:   1135.73
	Linear fluid (dielectric constant: 78.4, screening length: 8.12261 Bohr) occupying 0.492867 of unit cell:	Completed after 17 iterations at t[s]:   1187.88
	FillingsUpdate:  mu: -0.193371744  nElectrons: 778.000000  magneticMoment: [ Abs: 0.00000  Tot: -0.00000 ]
	SubspaceRotationAdjust: set factor to 0.162
ElecMinimize: Iter:   1  F: -4292.140387019012451  |grad|_K:  4.796e-06  alpha:  3.482e-01  linmin:  2.501e-04  t[s]:   1253.63
	Linear fluid (dielectric constant: 78.4, screening length: 8.12261 Bohr) occupying 0.492997 of unit cell:	Completed after 21 iterations at t[s]:   1325.33
	Linear fluid (dielectric constant: 78.4, screening length: 8.12261 Bohr) occupying 0.492853 of unit cell:	Completed after 17 iterations at t[s]:   1377.12
	FillingsUpdate:  mu: -0.193628328  nElectrons: 778.000000  magneticMoment: [ Abs: 0.00000  Tot: -0.00000 ]
	SubspaceRotationAdjust: set factor to 0.0882
ElecMinimize: Iter:   2  F: -4292.141336571672582  |grad|_K:  1.923e-06  alpha:  8.868e-02  linmin:  2.697e-05  t[s]:   1442.73
	Linear fluid (dielectric constant: 78.4, screening length: 8.12261 Bohr) occupying 0.492847 of unit cell:	Completed after 8 iterations at t[s]:   1511.48
ElecMinimize: 	Predicted alpha/alphaT>3.000000, increasing alphaT to 2.660489e-01.
	Linear fluid (dielectric constant: 78.4, screening length: 8.12261 Bohr) occupying 0.492836 of unit cell:	Completed after 9 iterations at t[s]:   1560.88
	Linear fluid (dielectric constant: 78.4, screening length: 8.12261 Bohr) occupying 0.492832 of unit cell:	Completed after 6 iterations at t[s]:   1609.39
	FillingsUpdate:  mu: -0.193373290  nElectrons: 778.000000  magneticMoment: [ Abs: 0.00000  Tot: -0.00000 ]
	SubspaceRotationAdjust: set factor to 0.126
ElecMinimize: Iter:   3  F: -4292.141894351886549  |grad|_K:  1.137e-06  alpha:  3.232e-01  linmin: -2.590e-06  t[s]:   1675.18
	Linear fluid (dielectric constant: 78.4, screening length: 8.12261 Bohr) occupying 0.492808 of unit cell:	Completed after 13 iterations at t[s]:   1744.71
	Linear fluid (dielectric constant: 78.4, screening length: 8.12261 Bohr) occupying 0.492809 of unit cell:	Completed after 6 iterations at t[s]:   1793.07
	FillingsUpdate:  mu: -0.193297629  nElectrons: 778.000000  magneticMoment: [ Abs: 0.00000  Tot: -0.00000 ]
	SubspaceRotationAdjust: set factor to 0.108
ElecMinimize: Iter:   4  F: -4292.142080077052924  |grad|_K:  8.816e-07  alpha:  3.075e-01  linmin:  3.271e-05  t[s]:   1858.98
	Linear fluid (dielectric constant: 78.4, screening length: 8.12261 Bohr) occupying 0.492790 of unit cell:	Completed after 12 iterations at t[s]:   1928.07
	Linear fluid (dielectric constant: 78.4, screening length: 8.12261 Bohr) occupying 0.492792 of unit cell:	Completed after 7 iterations at t[s]:   1976.89
	FillingsUpdate:  mu: -0.193402124  nElectrons: 778.000000  magneticMoment: [ Abs: 0.00000  Tot: -0.00000 ]
	SubspaceRotationAdjust: set factor to 0.109
ElecMinimize: Iter:   5  F: -4292.142180831450787  |grad|_K:  5.758e-07  alpha:  2.778e-01  linmin: -7.507e-06  t[s]:   2042.68
	Linear fluid (dielectric constant: 78.4, screening length: 8.12261 Bohr) occupying 0.492784 of unit cell:	Completed after 6 iterations at t[s]:   2110.84
	Linear fluid (dielectric constant: 78.4, screening length: 8.12261 Bohr) occupying 0.492775 of unit cell:	Completed after 7 iterations at t[s]:   2159.33
	FillingsUpdate:  mu: -0.193246826  nElectrons: 778.000000  magneticMoment: [ Abs: 0.00000  Tot: -0.00000 ]
	SubspaceRotationAdjust: set factor to 0.138
ElecMinimize: Iter:   6  F: -4292.142269010292694  |grad|_K:  5.416e-07  alpha:  5.696e-01  linmin:  1.558e-05  t[s]:   2225.29
	Linear fluid (dielectric constant: 78.4, screening length: 8.12261 Bohr) occupying 0.492768 of unit cell:	Completed after 11 iterations at t[s]:   2294.01
	Linear fluid (dielectric constant: 78.4, screening length: 8.12261 Bohr) occupying 0.492769 of unit cell:	Completed after 3 iterations at t[s]:   2342.56
	FillingsUpdate:  mu: -0.193404332  nElectrons: 778.000000  magneticMoment: [ Abs: 0.00000  Tot: -0.00000 ]
	SubspaceRotationAdjust: set factor to 0.117
ElecMinimize: Iter:   7  F: -4292.142342206806461  |grad|_K:  6.784e-07  alpha:  5.350e-01  linmin:  4.541e-06  t[s]:   2409.48
	Linear fluid (dielectric constant: 78.4, screening length: 8.12261 Bohr) occupying 0.492774 of unit cell:	Completed after 14 iterations at t[s]:   2479.45
	Linear fluid (dielectric constant: 78.4, screening length: 8.12261 Bohr) occupying 0.492771 of unit cell:	Completed after 12 iterations at t[s]:   2529.59
	FillingsUpdate:  mu: -0.193567800  nElectrons: 778.000000  magneticMoment: [ Abs: 0.00000  Tot: -0.00000 ]
	SubspaceRotationAdjust: set factor to 0.0916
ElecMinimize: Iter:   8  F: -4292.142399383242264  |grad|_K:  5.278e-07  alpha:  2.664e-01  linmin: -5.913e-06  t[s]:   2595.40
	Linear fluid (dielectric constant: 78.4, screening length: 8.12261 Bohr) occupying 0.492779 of unit cell:	Completed after 6 iterations at t[s]:   2662.71
	Linear fluid (dielectric constant: 78.4, screening length: 8.12261 Bohr) occupying 0.492785 of unit cell:	Completed after 7 iterations at t[s]:   2711.20
	FillingsUpdate:  mu: -0.193456630  nElectrons: 778.000000  magneticMoment: [ Abs: 0.00000  Tot: -0.00000 ]
	SubspaceRotationAdjust: set factor to 0.106
ElecMinimize: Iter:   9  F: -4292.142462038132180  |grad|_K:  4.402e-07  alpha:  4.816e-01  linmin:  1.184e-05  t[s]:   2777.04
	Linear fluid (dielectric constant: 78.4, screening length: 8.12261 Bohr) occupying 0.492801 of unit cell:	Completed after 11 iterations at t[s]:   2846.10
	Linear fluid (dielectric constant: 78.4, screening length: 8.12261 Bohr) occupying 0.492797 of unit cell:	Completed after 7 iterations at t[s]:   2894.65
	FillingsUpdate:  mu: -0.193649573  nElectrons: 778.000000  magneticMoment: [ Abs: 0.00000  Tot: -0.00000 ]
	SubspaceRotationAdjust: set factor to 0.0884
ElecMinimize: Iter:  10  F: -4292.142495743022664  |grad|_K:  3.823e-07  alpha:  3.737e-01  linmin: -1.184e-05  t[s]:   2960.34
	Linear fluid (dielectric constant: 78.4, screening length: 8.12261 Bohr) occupying 0.492809 of unit cell:	Completed after 11 iterations at t[s]:   3031.06
	Linear fluid (dielectric constant: 78.4, screening length: 8.12261 Bohr) occupying 0.492806 of unit cell:	Completed after 7 iterations at t[s]:   3079.56
	FillingsUpdate:  mu: -0.193749869  nElectrons: 778.000000  magneticMoment: [ Abs: 0.00000  Tot: -0.00000 ]
	SubspaceRotationAdjust: set factor to 0.072
ElecMinimize: Iter:  11  F: -4292.142515304207336  |grad|_K:  2.526e-07  alpha:  2.862e-01  linmin:  5.750e-06  t[s]:   3145.35
	Linear fluid (dielectric constant: 78.4, screening length: 8.12261 Bohr) occupying 0.492810 of unit cell:	Completed after 3 iterations at t[s]:   3211.84
	Linear fluid (dielectric constant: 78.4, screening length: 8.12261 Bohr) occupying 0.492813 of unit cell:	Completed after 3 iterations at t[s]:   3259.05
	FillingsUpdate:  mu: -0.193629139  nElectrons: 778.000000  magneticMoment: [ Abs: 0.00000  Tot: -0.00000 ]
	SubspaceRotationAdjust: set factor to 0.0866
ElecMinimize: Iter:  12  F: -4292.142529007505800  |grad|_K:  1.760e-07  alpha:  4.608e-01  linmin:  2.580e-05  t[s]:   3324.70
	Linear fluid (dielectric constant: 78.4, screening length: 8.12261 Bohr) occupying 0.492818 of unit cell:	Completed after 8 iterations at t[s]:   3392.64
	Linear fluid (dielectric constant: 78.4, screening length: 8.12261 Bohr) occupying 0.492817 of unit cell:	Completed after 2 iterations at t[s]:   3439.72
	FillingsUpdate:  mu: -0.193636342  nElectrons: 778.000000  magneticMoment: [ Abs: 0.00000  Tot: -0.00000 ]
	SubspaceRotationAdjust: set factor to 0.0799
ElecMinimize: Iter:  13  F: -4292.142534851199343  |grad|_K:  1.420e-07  alpha:  4.054e-01  linmin:  5.511e-05  t[s]:   3505.44
	Linear fluid (dielectric constant: 78.4, screening length: 8.12261 Bohr) occupying 0.492821 of unit cell:	Completed after 7 iterations at t[s]:   3574.62
	Linear fluid (dielectric constant: 78.4, screening length: 8.12261 Bohr) occupying 0.492820 of unit cell:	Completed after 2 iterations at t[s]:   3621.91
	FillingsUpdate:  mu: -0.193664021  nElectrons: 778.000000  magneticMoment: [ Abs: 0.00000  Tot: -0.00000 ]
	SubspaceRotationAdjust: set factor to 0.0763
ElecMinimize: Iter:  14  F: -4292.142538172405693  |grad|_K:  1.028e-07  alpha:  3.554e-01  linmin: -3.417e-06  t[s]:   3687.66
	Linear fluid (dielectric constant: 78.4, screening length: 8.12261 Bohr) occupying 0.492823 of unit cell:	Completed after 2 iterations at t[s]:   3754.09
	Linear fluid (dielectric constant: 78.4, screening length: 8.12261 Bohr) occupying 0.492823 of unit cell:	Completed after 2 iterations at t[s]:   3801.25
	FillingsUpdate:  mu: -0.193588252  nElectrons: 778.000000  magneticMoment: [ Abs: 0.00000  Tot: -0.00000 ]
	SubspaceRotationAdjust: set factor to 0.0869
ElecMinimize: Iter:  15  F: -4292.142540455852213  |grad|_K:  8.542e-08  alpha:  4.637e-01  linmin: -1.372e-05  t[s]:   3866.93
	Linear fluid (dielectric constant: 78.4, screening length: 8.12261 Bohr) occupying 0.492827 of unit cell:	Completed after 6 iterations at t[s]:   3934.43
	Linear fluid (dielectric constant: 78.4, screening length: 8.12261 Bohr) occupying 0.492826 of unit cell:	Completed after 0 iterations at t[s]:   3980.72
	FillingsUpdate:  mu: -0.193558783  nElectrons: 778.000000  magneticMoment: [ Abs: 0.00000  Tot: -0.00000 ]
	SubspaceRotationAdjust: set factor to 0.0795
ElecMinimize: Iter:  16  F: -4292.142541884826642  |grad|_K:  8.301e-08  alpha:  4.181e-01  linmin:  2.742e-04  t[s]:   4046.43
	Linear fluid (dielectric constant: 78.4, screening length: 8.12261 Bohr) occupying 0.492829 of unit cell:	Completed after 6 iterations at t[s]:   4113.85
	Linear fluid (dielectric constant: 78.4, screening length: 8.12261 Bohr) occupying 0.492829 of unit cell:	Completed after 2 iterations at t[s]:   4160.59
	FillingsUpdate:  mu: -0.193562148  nElectrons: 778.000000  magneticMoment: [ Abs: 0.00000  Tot: -0.00000 ]
	SubspaceRotationAdjust: set factor to 0.072
ElecMinimize: Iter:  17  F: -4292.142542964499626  |grad|_K:  6.376e-08  alpha:  3.511e-01  linmin: -1.035e-04  t[s]:   4226.37
	Linear fluid (dielectric constant: 78.4, screening length: 8.12261 Bohr) occupying 0.492830 of unit cell:	Completed after 2 iterations at t[s]:   4292.59
	Linear fluid (dielectric constant: 78.4, screening length: 8.12261 Bohr) occupying 0.492831 of unit cell:	Completed after 2 iterations at t[s]:   4339.42
	FillingsUpdate:  mu: -0.193524907  nElectrons: 778.000000  magneticMoment: [ Abs: 0.00000  Tot: -0.00000 ]
	SubspaceRotationAdjust: set factor to 0.0731
ElecMinimize: Iter:  18  F: -4292.142543891292917  |grad|_K:  5.300e-08  alpha:  4.840e-01  linmin: -8.492e-06  t[s]:   4405.14
	Linear fluid (dielectric constant: 78.4, screening length: 8.12261 Bohr) occupying 0.492832 of unit cell:	Completed after 3 iterations at t[s]:   4472.08
	Linear fluid (dielectric constant: 78.4, screening length: 8.12261 Bohr) occupying 0.492832 of unit cell:	Completed after 0 iterations at t[s]:   4518.30
	FillingsUpdate:  mu: -0.193501857  nElectrons: 778.000000  magneticMoment: [ Abs: 0.00000  Tot: -0.00000 ]
	SubspaceRotationAdjust: set factor to 0.0657
ElecMinimize: Iter:  19  F: -4292.142544460192767  |grad|_K:  4.291e-08  alpha:  4.319e-01  linmin:  2.573e-04  t[s]:   4583.99
	Linear fluid (dielectric constant: 78.4, screening length: 8.12261 Bohr) occupying 0.492833 of unit cell:	Completed after 2 iterations at t[s]:   4650.09
	Linear fluid (dielectric constant: 78.4, screening length: 8.12261 Bohr) occupying 0.492833 of unit cell:	Completed after 0 iterations at t[s]:   4696.20
	FillingsUpdate:  mu: -0.193499755  nElectrons: 778.000000  magneticMoment: [ Abs: 0.00000  Tot: -0.00000 ]
	SubspaceRotationAdjust: set factor to 0.0655
ElecMinimize: Iter:  20  F: -4292.142544821135743  |grad|_K:  2.890e-08  alpha:  4.334e-01  linmin: -4.732e-04  t[s]:   4762.02
	Linear fluid (dielectric constant: 78.4, screening length: 8.12261 Bohr) occupying 0.492833 of unit cell:	Completed after 2 iterations at t[s]:   4828.13
	Linear fluid (dielectric constant: 78.4, screening length: 8.12261 Bohr) occupying 0.492833 of unit cell:	Completed after 0 iterations at t[s]:   4874.59
	FillingsUpdate:  mu: -0.193493089  nElectrons: 778.000000  magneticMoment: [ Abs: 0.00000  Tot: -0.00000 ]
	SubspaceRotationAdjust: set factor to 0.0721
ElecMinimize: Iter:  21  F: -4292.142545008458001  |grad|_K:  2.151e-08  alpha:  4.576e-01  linmin: -4.478e-04  t[s]:   4940.37
	Linear fluid (dielectric constant: 78.4, screening length: 8.12261 Bohr) occupying 0.492832 of unit cell:	Completed after 2 iterations at t[s]:   5006.40
	Linear fluid (dielectric constant: 78.4, screening length: 8.12261 Bohr) occupying 0.492832 of unit cell:	Completed after 0 iterations at t[s]:   5052.53
	FillingsUpdate:  mu: -0.193483584  nElectrons: 778.000000  magneticMoment: [ Abs: 0.00000  Tot: -0.00000 ]
	SubspaceRotationAdjust: set factor to 0.0796
ElecMinimize: Iter:  22  F: -4292.142545113022607  |grad|_K:  1.551e-08  alpha:  4.652e-01  linmin: -8.063e-04  t[s]:   5118.30
	Linear fluid (dielectric constant: 78.4, screening length: 8.12261 Bohr) occupying 0.492832 of unit cell:	Completed after 2 iterations at t[s]:   5184.67
	Linear fluid (dielectric constant: 78.4, screening length: 8.12261 Bohr) occupying 0.492832 of unit cell:	Completed after 0 iterations at t[s]:   5230.72
	FillingsUpdate:  mu: -0.193479232  nElectrons: 778.000000  magneticMoment: [ Abs: 0.00000  Tot: -0.00000 ]
	SubspaceRotationAdjust: set factor to 0.083
ElecMinimize: Iter:  23  F: -4292.142545166069795  |grad|_K:  1.312e-08  alpha:  4.472e-01  linmin: -2.274e-04  t[s]:   5297.52
	Linear fluid (dielectric constant: 78.4, screening length: 8.12261 Bohr) occupying 0.492831 of unit cell:	Completed after 0 iterations at t[s]:   5362.60
	Linear fluid (dielectric constant: 78.4, screening length: 8.12261 Bohr) occupying 0.492831 of unit cell:	Completed after 1 iterations at t[s]:   5410.21
	FillingsUpdate:  mu: -0.193480877  nElectrons: 778.000000  magneticMoment: [ Abs: 0.00000  Tot: -0.00000 ]
	SubspaceRotationAdjust: set factor to 0.0913
ElecMinimize: Iter:  24  F: -4292.142545200880704  |grad|_K:  1.129e-08  alpha:  5.336e-01  linmin:  1.400e-03  t[s]:   5475.89
ElecMinimize: Converged (|Delta F|<1.000000e-07 for 2 iters).
Setting wave functions to eigenvectors of Hamiltonian
Converging empty states (this may take a while): |deigs|: 5.019e-07

Computing DFT-D3 correction:
# coordination-number Pt 5.928 5.961 5.928 6.941 7.145 7.145 7.145 7.145 9.433 9.433 9.433 9.433 9.344 9.344 9.344 9.344 9.308 9.308 9.308 9.308 7.663 7.662 7.664 7.662 7.666 7.666 7.666 7.666 9.310 9.310 9.310 9.310 9.342 9.342 9.342 9.342 9.434 9.435 9.434 9.435 7.149 7.156 7.149 7.156 5.929 5.929 5.929 5.929
# coordination-number C 2.048
# coordination-number O 1.026
# diagonal-C6 Pt 336.87 336.87 336.87 336.87 336.87 336.87 336.87 336.87 336.87 336.87 336.87 336.87 336.87 336.87 336.87 336.87 336.87 336.87 336.87 336.87 336.87 336.87 336.87 336.87 336.87 336.87 336.87 336.87 336.87 336.87 336.87 336.87 336.87 336.87 336.87 336.87 336.87 336.87 336.87 336.87 336.87 336.87 336.87 336.87 336.87 336.87 336.87 336.87
# diagonal-C6 C 29.40
# diagonal-C6 O 12.79
EvdW_6 =   -0.378052
EvdW_8 =   -0.629409

# Ionic positions in cartesian coordinates:
ion Pt   0.000220000000000   0.307628000000000  17.100908000000000 0
ion Pt   0.000220000000000  13.123347000000001  17.100908000000000 0
ion Pt   5.232205000000001   0.307628000000000  17.100908000000000 0
ion Pt   5.232205000000001  13.123347000000001  17.100908000000000 0
ion Pt  10.463699000000000   4.022239000000000   2.178053000000000 0
ion Pt  10.463699000000000  16.837956999999999   2.178053000000000 0
ion Pt   5.231692000000000   4.022239000000000   2.178053000000000 0
ion Pt   5.231692000000000  16.837956999999999   2.178053000000000 0
ion Pt  10.463981000000000   8.528655000000001   5.417403000000000 0
ion Pt  10.463981000000000  21.344373999999998   5.417403000000000 0
ion Pt   5.231975000000000   8.528655000000001   5.417403000000000 0
ion Pt   5.231975000000000  21.344373999999998   5.417403000000000 0
ion Pt  10.463844999999999  25.622132000000001   8.238791000000001 0
ion Pt  10.463844999999999  12.806414000000000   8.238791000000001 0
ion Pt   5.231849000000001  25.622132000000001   8.238791000000001 0
ion Pt   5.231849000000001  12.806414000000000   8.238791000000001 0
ion Pt   0.000157000000000   4.349296000000000  11.332694000000000 0
ion Pt   0.000157000000000  17.165013999999999  11.332694000000000 0
ion Pt   5.232153000000001   4.349296000000000  11.332694000000000 0
ion Pt   5.232153000000001  17.165013999999999  11.332694000000000 0
ion Pt   0.000303000000000   8.653275000000001  14.682311000000000 0
ion Pt   0.000303000000000  21.469018999999999  14.682311000000000 0
ion Pt   5.232310000000000   8.653275000000001  14.682311000000000 0
ion Pt   5.232310000000000  21.469018999999999  14.682311000000000 0
ion Pt   2.615715000000000  25.523040999999999   3.443627000000001 0
ion Pt   2.615715000000000  12.707296999999999   3.443627000000001 0
ion Pt   7.847711000000000  25.523040999999999   3.443627000000001 0
ion Pt   7.847711000000000  12.707296999999999   3.443627000000001 0
ion Pt   2.615810000000000   4.193175000000000   6.787100000000000 0
ion Pt   2.615810000000000  17.008893000000000   6.787100000000000 0
ion Pt   7.847806000000000   4.193175000000000   6.787100000000000 0
ion Pt   7.847806000000000  17.008893000000000   6.787100000000000 0
ion Pt   2.616155000000000   8.553081999999998   9.886386000000000 0
ion Pt   2.616155000000000  21.368799999999997   9.886386000000000 0
ion Pt   7.848151000000000   8.553081999999998   9.886386000000000 0
ion Pt   7.848151000000000  21.368799999999997   9.886386000000000 0
ion Pt   2.615998000000000   0.014841000000000  12.709460000000000 0
ion Pt   2.615998000000000  12.830558999999997  12.709460000000000 0
ion Pt   7.847994000000001   0.014841000000000  12.709460000000000 0
ion Pt   7.847994000000001  12.830558999999997  12.709460000000000 0
ion Pt   2.616322000000000   4.520642000000000  15.941687000000002 0
ion Pt   2.616322000000000  17.336386000000001  15.941687000000002 0
ion Pt   7.848318000000000   4.520642000000000  15.941687000000002 0
ion Pt   7.848318000000000  17.336386000000001  15.941687000000002 0
ion Pt   2.615768000000000   8.237738999999999   1.026553000000000 0
ion Pt   2.615768000000000  21.053457000000002   1.026553000000000 0
ion Pt   7.847764000000002   8.237738999999999   1.026553000000000 0
ion Pt   7.847764000000002  21.053457000000002   1.026553000000000 0
ion C   5.232205000000001  13.123347000000001  20.699536526046625 1  Linear 0 0 1
ion O   5.292300000000001  13.123347000000001  22.926917371210106 1  Linear 0 0 1

# Forces in Cartesian coordinates:
force Pt   0.000000570620989   0.000065089100061  -0.000290470634605 0
force Pt  -0.000105385024351   0.000430325023301  -0.004477820104390 0
force Pt  -0.000000577729929  -0.000112381129612  -0.000472430393961 0
force Pt  -0.000180616942206  -0.011644177793721   0.037567687213862 0
force Pt  -0.000000546494482   0.000907999470499  -0.000107225205224 0
force Pt   0.000001111591948   0.000088362617348  -0.000026456066443 0
force Pt  -0.000000666124981   0.000762784934421  -0.000431353231414 0
force Pt  -0.000002019388798   0.000302969485732  -0.000413554104874 0
force Pt   0.000002246495357   0.001397425548304   0.000428541433442 0
force Pt  -0.000002777636941   0.000621824322263  -0.000666067956250 0
force Pt  -0.000005510747675   0.000659046827928  -0.000231576860891 0
force Pt  -0.000004043474773   0.000520381243406  -0.000462563324430 0
force Pt  -0.000003200524864   0.000873412389947  -0.000016464548947 0
force Pt  -0.000032468874599   0.000566150357759  -0.005173138695339 0
force Pt   0.000002141640723   0.000687675882796  -0.000612253680561 0
force Pt  -0.000007598576193   0.000148460016846   0.000340398407151 0
force Pt  -0.000000285990138   0.000247174067253  -0.000224156003273 0
force Pt   0.000008971691510  -0.001055804839214  -0.001164063431526 0
force Pt  -0.000002137423779  -0.000242728039226  -0.000148849928701 0
force Pt  -0.000014967628199   0.000434335491002   0.000562484823885 0
force Pt   0.000010628165782  -0.001881473473150  -0.000845006316908 0
force Pt   0.000012235088288   0.001281325904788  -0.001434342357772 0
force Pt  -0.000010886843510  -0.002846511608959  -0.004892539871008 0
force Pt  -0.000001149583754  -0.000884817056712   0.000211520907496 0
force Pt   0.000062698184968  -0.000155027964553   0.000439753340146 0
force Pt   0.000088706664641  -0.000357725851025  -0.000843745533230 0
force Pt  -0.000069893006482  -0.000155808087294   0.000445180073124 0
force Pt  -0.000090095053564  -0.000350906192441  -0.000806460065956 0
force Pt   0.000028621429478   0.000207436934067   0.000386839388780 0
force Pt   0.000489412206311  -0.000220651523775   0.000492344117971 0
force Pt  -0.000024618095362   0.000201838913308   0.000369224946159 0
force Pt  -0.000493816901083  -0.000215412256996   0.000473055227436 0
force Pt  -0.000443188536218   0.000056011253524   0.000723137144570 0
force Pt   0.000197540555308  -0.000817700233616   0.000434108000612 0
force Pt   0.000441702773787   0.000041413229280   0.000709326618321 0
force Pt  -0.000192098657052  -0.000827524875096   0.000433853125981 0
force Pt   0.000049098038017  -0.000810688322267   0.000495304401773 0
force Pt   0.003743094071768  -0.000084058284789   0.003181881782778 0
force Pt  -0.000041758988109  -0.000823535477173   0.000509936389782 0
force Pt  -0.003956152063498   0.000010555387419   0.003685925402052 0
force Pt   0.000101545927215  -0.000130561624230   0.000418632648524 0
force Pt  -0.003683669363953   0.007050510295454  -0.002873123397540 0
force Pt  -0.000091868429411  -0.000140422018436   0.000409954282647 0
force Pt   0.003684484623141   0.007001310988740  -0.002863921577027 0
force Pt   0.000195729092832  -0.000336082556790   0.000086411874816 0
force Pt   0.000381837240648  -0.000222148364799   0.000387922296616 0
force Pt  -0.000195349134484  -0.000332274201110   0.000086385166621 0
force Pt  -0.000386052437043  -0.000222999771588   0.000391042200928 0
force C   0.002727871544153   0.000533160816791   0.022055754380147 1  Linear 0 0 1
force O  -0.002141874977743  -0.000322288636757  -0.046691082192459 1  Linear 0 0 1

# Energy components:
   A_diel =       -0.0123787494985624
   Eewald =    24197.3293018394506362
       EH =    28092.3101253465720220
     Eloc =   -57330.5012826668753405
      Enl =      -47.4024853608863808
     EvdW =       -1.0074615226575854
      Exc =    -1370.4898511937046806
 Exc_core =      786.8850569273593010
       KE =     1380.7546881383766504
  MuShift =       -0.0000000000007161
-------------------------------------
     Etot =    -4292.1342872418654224
       TS =        0.0082579590149692
-------------------------------------
        F =    -4292.1425452008807042


Dumping 'jdft.fillings' ... done
Dumping 'jdft.wfns' ... done
Dumping 'jdft.fluidState' ... done
Dumping 'jdft.ionpos' ... done
Dumping 'jdft.lattice' ... done
Dumping 'jdft.eigenvals' ... done
Dumping 'jdft.eigStats' ... 
	eMin: -2.166200 at state 8 ( [ +0.000000 +0.000000 +0.000000 ] spin -1 )
	HOMO: -0.193517 at state 7 ( [ +0.500000 +0.500000 +0.000000 ] spin 1 )
	mu  : -0.193481
	LUMO: -0.193377 at state 15 ( [ +0.500000 +0.500000 +0.000000 ] spin -1 )
	eMax: +0.086149 at state 5 ( [ +0.333333 +0.500000 +0.000000 ] spin 1 )
	HOMO-LUMO gap: +0.000141
	Optical gap  : +0.000141 at state 15 ( [ +0.500000 +0.500000 +0.000000 ] spin -1 )
Dumping 'jdft.Ecomponents' ... done
IonicMinimize: Iter:   1  F: -4292.142545200880704  |grad|_K:  3.651e-02  alpha:  1.000e+00  linmin:  5.546e-01  t[s]:   6124.62

#--- Lowdin population analysis ---
# oxidation-state Pt +0.052 +0.029 +0.052 -0.127 +0.011 +0.010 +0.009 +0.012 -0.011 -0.011 -0.010 -0.011 +0.017 +0.001 +0.017 +0.020 +0.011 +0.011 +0.012 +0.010 -0.008 -0.010 -0.015 -0.008 -0.010 -0.012 -0.010 -0.012 +0.011 +0.012 +0.011 +0.012 +0.017 +0.016 +0.017 +0.016 -0.011 -0.028 -0.012 -0.028 +0.008 +0.007 +0.008 +0.007 +0.052 +0.053 +0.052 +0.053
# magnetic-moments Pt -0.000 -0.000 -0.000 -0.000 -0.000 -0.000 -0.000 -0.000 -0.000 -0.000 -0.000 -0.000 -0.000 -0.000 -0.000 -0.000 -0.000 -0.000 +0.000 -0.000 -0.000 -0.000 -0.000 -0.000 -0.000 -0.000 -0.000 -0.000 -0.000 -0.000 -0.000 -0.000 -0.000 -0.000 -0.000 -0.000 -0.000 -0.000 -0.000 -0.000 +0.000 -0.000 +0.000 -0.000 -0.000 -0.000 -0.000 -0.000
# oxidation-state C +0.493
# magnetic-moments C -0.000
# oxidation-state O -0.117
# magnetic-moments O +0.000


Computing DFT-D3 correction:
# coordination-number Pt 5.928 5.961 5.928 6.941 7.145 7.145 7.145 7.145 9.433 9.433 9.433 9.433 9.344 9.344 9.344 9.344 9.308 9.308 9.308 9.308 7.663 7.662 7.664 7.662 7.666 7.666 7.666 7.666 9.310 9.310 9.310 9.310 9.342 9.342 9.342 9.342 9.434 9.435 9.434 9.435 7.149 7.156 7.149 7.156 5.929 5.929 5.929 5.929
# coordination-number C 2.047
# coordination-number O 1.027
# diagonal-C6 Pt 336.87 336.87 336.87 336.87 336.87 336.87 336.87 336.87 336.87 336.87 336.87 336.87 336.87 336.87 336.87 336.87 336.87 336.87 336.87 336.87 336.87 336.87 336.87 336.87 336.87 336.87 336.87 336.87 336.87 336.87 336.87 336.87 336.87 336.87 336.87 336.87 336.87 336.87 336.87 336.87 336.87 336.87 336.87 336.87 336.87 336.87 336.87 336.87
# diagonal-C6 C 29.40
# diagonal-C6 O 12.79
EvdW_6 =   -0.378054
EvdW_8 =   -0.629398

-------- Electronic minimization -----------
	Linear fluid (dielectric constant: 78.4, screening length: 8.12261 Bohr) occupying 0.492911 of unit cell:	Completed after 10 iterations at t[s]:   6206.30
	FillingsUpdate:  mu: -0.193505601  nElectrons: 778.000000  magneticMoment: [ Abs: 0.00000  Tot: -0.00000 ]
ElecMinimize: Iter:   0  F: -4292.142916183258421  |grad|_K:  8.662e-07  alpha:  1.000e+00
	Linear fluid (dielectric constant: 78.4, screening length: 8.12261 Bohr) occupying 0.492942 of unit cell:	Completed after 14 iterations at t[s]:   6352.76
	Linear fluid (dielectric constant: 78.4, screening length: 8.12261 Bohr) occupying 0.492923 of unit cell:	Completed after 11 iterations at t[s]:   6402.72
	FillingsUpdate:  mu: -0.193376442  nElectrons: 778.000000  magneticMoment: [ Abs: 0.00000  Tot: -0.00000 ]
	SubspaceRotationAdjust: set factor to 0.0895
ElecMinimize: Iter:   1  F: -4292.143052422798064  |grad|_K:  4.184e-07  alpha:  3.884e-01  linmin: -3.726e-05  t[s]:   6468.75
	Linear fluid (dielectric constant: 78.4, screening length: 8.12261 Bohr) occupying 0.492930 of unit cell:	Completed after 11 iterations at t[s]:   6537.59
	Linear fluid (dielectric constant: 78.4, screening length: 8.12261 Bohr) occupying 0.492929 of unit cell:	Completed after 3 iterations at t[s]:   6584.88
	FillingsUpdate:  mu: -0.193315125  nElectrons: 778.000000  magneticMoment: [ Abs: 0.00000  Tot: -0.00000 ]
	SubspaceRotationAdjust: set factor to 0.0774
ElecMinimize: Iter:   2  F: -4292.143081619451550  |grad|_K:  3.554e-07  alpha:  3.567e-01  linmin:  3.618e-04  t[s]:   6650.71
	Linear fluid (dielectric constant: 78.4, screening length: 8.12261 Bohr) occupying 0.492938 of unit cell:	Completed after 9 iterations at t[s]:   6719.76
	Linear fluid (dielectric constant: 78.4, screening length: 8.12261 Bohr) occupying 0.492940 of unit cell:	Completed after 7 iterations at t[s]:   6768.56
	FillingsUpdate:  mu: -0.193265025  nElectrons: 778.000000  magneticMoment: [ Abs: 0.00000  Tot: -0.00000 ]
	SubspaceRotationAdjust: set factor to 0.0846
ElecMinimize: Iter:   3  F: -4292.143109896494934  |grad|_K:  2.655e-07  alpha:  4.812e-01  linmin: -1.429e-04  t[s]:   6834.15
	Linear fluid (dielectric constant: 78.4, screening length: 8.12261 Bohr) occupying 0.492947 of unit cell:	Completed after 7 iterations at t[s]:   6901.55
	Linear fluid (dielectric constant: 78.4, screening length: 8.12261 Bohr) occupying 0.492948 of unit cell:	Completed after 2 iterations at t[s]:   6949.01
	FillingsUpdate:  mu: -0.193181314  nElectrons: 778.000000  magneticMoment: [ Abs: 0.00000  Tot: -0.00000 ]
	SubspaceRotationAdjust: set factor to 0.0973
ElecMinimize: Iter:   4  F: -4292.143128874552531  |grad|_K:  2.542e-07  alpha:  5.723e-01  linmin: -8.647e-05  t[s]:   7014.76
	Linear fluid (dielectric constant: 78.4, screening length: 8.12261 Bohr) occupying 0.492952 of unit cell:	Completed after 11 iterations at t[s]:   7083.86
	Linear fluid (dielectric constant: 78.4, screening length: 8.12261 Bohr) occupying 0.492952 of unit cell:	Completed after 3 iterations at t[s]:   7131.26
	FillingsUpdate:  mu: -0.193065669  nElectrons: 778.000000  magneticMoment: [ Abs: 0.00000  Tot: -0.00000 ]
	SubspaceRotationAdjust: set factor to 0.0856
ElecMinimize: Iter:   5  F: -4292.143143989959754  |grad|_K:  3.021e-07  alpha:  4.977e-01  linmin:  4.977e-05  t[s]:   7197.05
	Linear fluid (dielectric constant: 78.4, screening length: 8.12261 Bohr) occupying 0.492953 of unit cell:	Completed after 11 iterations at t[s]:   7265.98
	Linear fluid (dielectric constant: 78.4, screening length: 8.12261 Bohr) occupying 0.492953 of unit cell:	Completed after 5 iterations at t[s]:   7313.73
	FillingsUpdate:  mu: -0.193028319  nElectrons: 778.000000  magneticMoment: [ Abs: 0.00000  Tot: -0.00000 ]
	SubspaceRotationAdjust: set factor to 0.071
ElecMinimize: Iter:   6  F: -4292.143160747962611  |grad|_K:  2.247e-07  alpha:  3.951e-01  linmin: -1.871e-06  t[s]:   7379.52
	Linear fluid (dielectric constant: 78.4, screening length: 8.12261 Bohr) occupying 0.492950 of unit cell:	Completed after 6 iterations at t[s]:   7446.88
	Linear fluid (dielectric constant: 78.4, screening length: 8.12261 Bohr) occupying 0.492948 of unit cell:	Completed after 4 iterations at t[s]:   7495.14
	FillingsUpdate:  mu: -0.192982722  nElectrons: 778.000000  magneticMoment: [ Abs: 0.00000  Tot: -0.00000 ]
	SubspaceRotationAdjust: set factor to 0.0693
ElecMinimize: Iter:   7  F: -4292.143174862694650  |grad|_K:  1.764e-07  alpha:  5.982e-01  linmin: -2.300e-06  t[s]:   7560.78
	Linear fluid (dielectric constant: 78.4, screening length: 8.12261 Bohr) occupying 0.492943 of unit cell:	Completed after 8 iterations at t[s]:   7628.79
	Linear fluid (dielectric constant: 78.4, screening length: 8.12261 Bohr) occupying 0.492944 of unit cell:	Completed after 3 iterations at t[s]:   7676.59
	FillingsUpdate:  mu: -0.192938734  nElectrons: 778.000000  magneticMoment: [ Abs: 0.00000  Tot: -0.00000 ]
	SubspaceRotationAdjust: set factor to 0.057
ElecMinimize: Iter:   8  F: -4292.143181304304562  |grad|_K:  1.403e-07  alpha:  4.426e-01  linmin:  3.652e-05  t[s]:   7742.40
	Linear fluid (dielectric constant: 78.4, screening length: 8.12261 Bohr) occupying 0.492939 of unit cell:	Completed after 7 iterations at t[s]:   7810.20
	Linear fluid (dielectric constant: 78.4, screening length: 8.12261 Bohr) occupying 0.492940 of unit cell:	Completed after 2 iterations at t[s]:   7857.43
[...]
force Pt  -0.000003797581838   0.000488150286761  -0.000339587476813 0
force Pt  -0.000003374116496   0.000824972026762   0.000132860616686 0
force Pt  -0.000025523514650   0.000731558965435  -0.005652388215858 0
force Pt   0.000002351172922   0.000627868709833  -0.000464920026055 0
force Pt  -0.000009840121988   0.000197667554141   0.000504175436830 0
force Pt  -0.000000377687370   0.000204037302117  -0.000096214609133 0
force Pt   0.000009160507404  -0.001113123382160  -0.001101080925155 0
force Pt  -0.000001715090289  -0.000261799374675  -0.000014823795504 0
force Pt  -0.000015884622315   0.000365030811854   0.000690721066163 0
force Pt   0.000010207755500  -0.001992288621805  -0.000954359223299 0
force Pt   0.000012901178129   0.001324970831580  -0.001581758330402 0
force Pt  -0.000009057590010  -0.002914018184239  -0.005051679667191 0
force Pt  -0.000001027349877  -0.000894326009951   0.000104245853255 0
force Pt   0.000067045298186  -0.000191102111966   0.000391852392688 0
force Pt   0.000134534058444  -0.000337230159520  -0.000955601856344 0
force Pt  -0.000073979142478  -0.000191621166673   0.000397748715847 0
force Pt  -0.000135330424434  -0.000329899276773  -0.000915994033970 0
force Pt   0.000023713578138   0.000202463907154   0.000526854711310 0
force Pt   0.000493071121149  -0.000215761870711   0.000633733395350 0
force Pt  -0.000019792532282   0.000197029644212   0.000509358061368 0
force Pt  -0.000498083247773  -0.000210187971398   0.000614475850716 0
force Pt  -0.000466654789146   0.000140418005433   0.000901970881518 0
force Pt   0.000197411732953  -0.000840002042039   0.000608592970147 0
force Pt   0.000464655959260   0.000127275352144   0.000889428157153 0
force Pt  -0.000191968247665  -0.000850569301691   0.000608938256475 0
force Pt   0.000062645741216  -0.000857814705708   0.000535549919231 0
force Pt   0.003492469189354  -0.000138709735482   0.002826192272836 0
force Pt  -0.000055218574466  -0.000870845024237   0.000550240021513 0
force Pt  -0.003721453428543  -0.000042253234194   0.003361964982057 0
force Pt   0.000104146800449  -0.000152668672562   0.000360903724953 0
force Pt  -0.003787677443023   0.007273472289339  -0.003045862877126 0
force Pt  -0.000093697841857  -0.000162423793955   0.000352941378652 0
force Pt   0.003787325181909   0.007218065266626  -0.003038877202430 0
force Pt   0.000252056253729  -0.000298777573315  -0.000066107996312 0
force Pt   0.000395915613729  -0.000236921523874   0.000238082959117 0
force Pt  -0.000251554895496  -0.000295285992494  -0.000064746763096 0
force Pt  -0.000400102940840  -0.000237399336191   0.000241016920400 0
force C   0.001732780076449   0.000479939648845  -0.000081328806603 1  Linear 0 0 1
force O  -0.001043090872284  -0.000349668851849  -0.000182768586654 1  Linear 0 0 1

# Energy components:
   A_diel =       -0.0125154306632519
   Eewald =    24210.2070479242320289
       EH =    28105.1465667636875878
     Eloc =   -57356.3010035436091130
      Enl =      -47.3711119961880343
     EvdW =       -1.0076952527051828
      Exc =    -1370.5325142785961816
 Exc_core =      786.8850471700544631
       KE =     1380.8494404905038664
  MuShift =       -0.0000000000007161
-------------------------------------
     Etot =    -4292.1367381532800209
       TS =        0.0082338097616839
-------------------------------------
        F =    -4292.1449719630418258


Dumping 'jdft.fillings' ... done
Dumping 'jdft.wfns' ... done
Dumping 'jdft.fluidState' ... done
Dumping 'jdft.ionpos' ... done
Dumping 'jdft.lattice' ... done
Dumping 'jdft.eigenvals' ... done
Dumping 'jdft.eigStats' ... 
	eMin: -2.171187 at state 8 ( [ +0.000000 +0.000000 +0.000000 ] spin -1 )
	HOMO: -0.193441 at state 7 ( [ +0.500000 +0.500000 +0.000000 ] spin 1 )
	mu  : -0.193406
	LUMO: -0.193348 at state 8 ( [ +0.000000 +0.000000 +0.000000 ] spin -1 )
	eMax: +0.086787 at state 5 ( [ +0.333333 +0.500000 +0.000000 ] spin 1 )
	HOMO-LUMO gap: +0.000093
	Optical gap  : +0.000136 at state 7 ( [ +0.500000 +0.500000 +0.000000 ] spin 1 )
Dumping 'jdft.Ecomponents' ... done
IonicMinimize: Iter:   7  F: -4292.144971963041826  |grad|_K:  1.415e-04  alpha:  1.000e+00  linmin:  7.456e-03  t[s]:  30180.28

#--- Lowdin population analysis ---
# oxidation-state Pt +0.052 +0.029 +0.052 -0.116 +0.010 +0.009 +0.008 +0.012 -0.012 -0.012 -0.011 -0.012 +0.017 +0.001 +0.017 +0.019 +0.012 +0.011 +0.012 +0.010 -0.008 -0.010 -0.017 -0.007 -0.011 -0.012 -0.011 -0.012 +0.011 +0.012 +0.011 +0.012 +0.016 +0.017 +0.016 +0.017 -0.011 -0.031 -0.011 -0.031 +0.009 +0.006 +0.009 +0.006 +0.051 +0.053 +0.051 +0.053
# magnetic-moments Pt -0.000 -0.000 -0.000 -0.000 -0.000 -0.000 -0.000 -0.000 -0.000 -0.000 -0.000 -0.000 -0.000 -0.000 -0.000 -0.000 -0.000 -0.000 -0.000 -0.000 -0.000 -0.000 -0.000 -0.000 -0.000 -0.000 -0.000 -0.000 -0.000 -0.000 -0.000 -0.000 -0.000 -0.000 -0.000 -0.000 -0.000 -0.000 -0.000 -0.000 -0.000 -0.000 -0.000 -0.000 -0.000 -0.000 -0.000 -0.000
# oxidation-state C +0.498
# magnetic-moments C -0.000
# oxidation-state O -0.113
# magnetic-moments O -0.000


Computing DFT-D3 correction:
# coordination-number Pt 5.928 5.965 5.928 6.952 7.145 7.145 7.145 7.145 9.433 9.433 9.433 9.433 9.344 9.344 9.344 9.344 9.308 9.308 9.308 9.308 7.663 7.662 7.665 7.662 7.666 7.666 7.666 7.666 9.310 9.310 9.310 9.310 9.342 9.342 9.342 9.342 9.434 9.435 9.434 9.435 7.149 7.157 7.149 7.157 5.929 5.929 5.929 5.929
# coordination-number C 2.057
# coordination-number O 1.034
# diagonal-C6 Pt 336.87 336.87 336.87 336.87 336.87 336.87 336.87 336.87 336.87 336.87 336.87 336.87 336.87 336.87 336.87 336.87 336.87 336.87 336.87 336.87 336.87 336.87 336.87 336.87 336.87 336.87 336.87 336.87 336.87 336.87 336.87 336.87 336.87 336.87 336.87 336.87 336.87 336.87 336.87 336.87 336.87 336.87 336.87 336.87 336.87 336.87 336.87 336.87
# diagonal-C6 C 29.38
# diagonal-C6 O 12.78
EvdW_6 =   -0.378142
EvdW_8 =   -0.629555

-------- Electronic minimization -----------
	Linear fluid (dielectric constant: 78.4, screening length: 8.12261 Bohr) occupying 0.493702 of unit cell:	Completed after 10 iterations at t[s]:  30261.99
	FillingsUpdate:  mu: -0.193445183  nElectrons: 778.000000  magneticMoment: [ Abs: 0.00000  Tot: -0.00000 ]
ElecMinimize: Iter:   0  F: -4292.144963876783549  |grad|_K:  3.143e-07  alpha:  1.000e+00
	Linear fluid (dielectric constant: 78.4, screening length: 8.12261 Bohr) occupying 0.493701 of unit cell:	Completed after 16 iterations at t[s]:  30408.64
	Linear fluid (dielectric constant: 78.4, screening length: 8.12261 Bohr) occupying 0.493702 of unit cell:	Completed after 15 iterations at t[s]:  30460.15
	FillingsUpdate:  mu: -0.193439589  nElectrons: 778.000000  magneticMoment: [ Abs: 0.00000  Tot: -0.00000 ]
	SubspaceRotationAdjust: set factor to 0.107
ElecMinimize: Iter:   1  F: -4292.144971673133114  |grad|_K:  5.360e-08  alpha:  1.703e-01  linmin:  9.035e-04  t[s]:  30526.07
	Linear fluid (dielectric constant: 78.4, screening length: 8.12261 Bohr) occupying 0.493702 of unit cell:	Completed after 2 iterations at t[s]:  30592.21
	Linear fluid (dielectric constant: 78.4, screening length: 8.12261 Bohr) occupying 0.493701 of unit cell:	Completed after 2 iterations at t[s]:  30639.67
	FillingsUpdate:  mu: -0.193434498  nElectrons: 778.000000  magneticMoment: [ Abs: 0.00000  Tot: -0.00000 ]
	SubspaceRotationAdjust: set factor to 0.0841
ElecMinimize: Iter:   2  F: -4292.144972054448772  |grad|_K:  3.095e-08  alpha:  2.944e-01  linmin:  3.668e-03  t[s]:  30705.49
	Linear fluid (dielectric constant: 78.4, screening length: 8.12261 Bohr) occupying 0.493701 of unit cell:	Completed after 3 iterations at t[s]:  30772.09
	Linear fluid (dielectric constant: 78.4, screening length: 8.12261 Bohr) occupying 0.493701 of unit cell:	Completed after 0 iterations at t[s]:  30818.57
	FillingsUpdate:  mu: -0.193430206  nElectrons: 778.000000  magneticMoment: [ Abs: 0.00000  Tot: -0.00000 ]
	SubspaceRotationAdjust: set factor to 0.0495
ElecMinimize: Iter:   3  F: -4292.144972154247625  |grad|_K:  2.242e-08  alpha:  2.254e-01  linmin:  9.751e-03  t[s]:  30884.43
	Linear fluid (dielectric constant: 78.4, screening length: 8.12261 Bohr) occupying 0.493701 of unit cell:	Completed after 1 iterations at t[s]:  30950.35
	Linear fluid (dielectric constant: 78.4, screening length: 8.12261 Bohr) occupying 0.493701 of unit cell:	Completed after 0 iterations at t[s]:  30996.86
	FillingsUpdate:  mu: -0.193429178  nElectrons: 778.000000  magneticMoment: [ Abs: 0.00000  Tot: -0.00000 ]
	SubspaceRotationAdjust: set factor to 0.0381
ElecMinimize: Iter:   4  F: -4292.144972192537352  |grad|_K:  1.027e-08  alpha:  2.027e-01  linmin: -1.371e-02  t[s]:  31062.81
ElecMinimize: Converged (|Delta F|<1.000000e-07 for 2 iters).
Setting wave functions to eigenvectors of Hamiltonian
Converging empty states (this may take a while): |deigs|: 1.302e-09

Computing DFT-D3 correction:
# coordination-number Pt 5.928 5.965 5.928 6.952 7.145 7.145 7.145 7.145 9.433 9.433 9.433 9.433 9.344 9.344 9.344 9.344 9.308 9.308 9.308 9.308 7.663 7.662 7.665 7.662 7.666 7.666 7.666 7.666 9.310 9.310 9.310 9.310 9.342 9.342 9.342 9.342 9.434 9.435 9.434 9.435 7.149 7.157 7.149 7.157 5.929 5.929 5.929 5.929
# coordination-number C 2.057
# coordination-number O 1.034
# diagonal-C6 Pt 336.87 336.87 336.87 336.87 336.87 336.87 336.87 336.87 336.87 336.87 336.87 336.87 336.87 336.87 336.87 336.87 336.87 336.87 336.87 336.87 336.87 336.87 336.87 336.87 336.87 336.87 336.87 336.87 336.87 336.87 336.87 336.87 336.87 336.87 336.87 336.87 336.87 336.87 336.87 336.87 336.87 336.87 336.87 336.87 336.87 336.87 336.87 336.87
# diagonal-C6 C 29.38
# diagonal-C6 O 12.78
EvdW_6 =   -0.378142
EvdW_8 =   -0.629555

# Ionic positions in cartesian coordinates:
ion Pt   0.000220000000000   0.307628000000000  17.100908000000000 0
ion Pt   0.000220000000000  13.123347000000001  17.100908000000000 0
ion Pt   5.232205000000001   0.307628000000000  17.100908000000000 0
ion Pt   5.232205000000001  13.123347000000001  17.100908000000000 0
ion Pt  10.463699000000000   4.022239000000000   2.178053000000000 0
ion Pt  10.463699000000000  16.837956999999999   2.178053000000000 0
ion Pt   5.231692000000000   4.022239000000000   2.178053000000000 0
ion Pt   5.231692000000000  16.837956999999999   2.178053000000000 0
ion Pt  10.463981000000000   8.528655000000001   5.417403000000000 0
ion Pt  10.463981000000000  21.344373999999998   5.417403000000000 0
ion Pt   5.231975000000000   8.528655000000001   5.417403000000000 0
ion Pt   5.231975000000000  21.344373999999998   5.417403000000000 0
ion Pt  10.463844999999999  25.622132000000001   8.238791000000001 0
ion Pt  10.463844999999999  12.806414000000000   8.238791000000001 0
ion Pt   5.231849000000001  25.622132000000001   8.238791000000001 0
ion Pt   5.231849000000001  12.806414000000000   8.238791000000001 0
ion Pt   0.000157000000000   4.349296000000000  11.332694000000000 0
ion Pt   0.000157000000000  17.165013999999999  11.332694000000000 0
ion Pt   5.232153000000001   4.349296000000000  11.332694000000000 0
ion Pt   5.232153000000001  17.165013999999999  11.332694000000000 0
ion Pt   0.000303000000000   8.653275000000001  14.682311000000000 0
ion Pt   0.000303000000000  21.469018999999999  14.682311000000000 0
ion Pt   5.232310000000000   8.653275000000001  14.682311000000000 0
ion Pt   5.232310000000000  21.469018999999999  14.682311000000000 0
ion Pt   2.615715000000000  25.523040999999999   3.443627000000001 0
ion Pt   2.615715000000000  12.707296999999999   3.443627000000001 0
ion Pt   7.847711000000000  25.523040999999999   3.443627000000001 0
ion Pt   7.847711000000000  12.707296999999999   3.443627000000001 0
ion Pt   2.615810000000000   4.193175000000000   6.787100000000000 0
ion Pt   2.615810000000000  17.008893000000000   6.787100000000000 0
ion Pt   7.847806000000000   4.193175000000000   6.787100000000000 0
ion Pt   7.847806000000000  17.008893000000000   6.787100000000000 0
ion Pt   2.616155000000000   8.553081999999998   9.886386000000000 0
ion Pt   2.616155000000000  21.368799999999997   9.886386000000000 0
ion Pt   7.848151000000000   8.553081999999998   9.886386000000000 0
ion Pt   7.848151000000000  21.368799999999997   9.886386000000000 0
ion Pt   2.615998000000000   0.014841000000000  12.709460000000000 0
ion Pt   2.615998000000000  12.830558999999997  12.709460000000000 0
ion Pt   7.847994000000001   0.014841000000000  12.709460000000000 0
ion Pt   7.847994000000001  12.830558999999997  12.709460000000000 0
ion Pt   2.616322000000000   4.520642000000000  15.941687000000002 0
ion Pt   2.616322000000000  17.336386000000001  15.941687000000002 0
ion Pt   7.848318000000000   4.520642000000000  15.941687000000002 0
ion Pt   7.848318000000000  17.336386000000001  15.941687000000002 0
ion Pt   2.615768000000000   8.237738999999999   1.026553000000000 0
ion Pt   2.615768000000000  21.053457000000002   1.026553000000000 0
ion Pt   7.847764000000002   8.237738999999999   1.026553000000000 0
ion Pt   7.847764000000002  21.053457000000002   1.026553000000000 0
ion C   5.232205000000001  13.123347000000001  20.592295608133238 1  Linear 0 0 1
ion O   5.292300000000001  13.123347000000001  22.777498974270237 1  Linear 0 0 1

# Forces in Cartesian coordinates:
force Pt   0.000000130617362   0.000056360897072  -0.000199348763905 0
force Pt  -0.000104928204512   0.000276994559090  -0.004856607552823 0
force Pt   0.000000255742749  -0.000055245522963  -0.000370259937973 0
force Pt  -0.000291250217603  -0.011531738944021   0.015632565297345 0
force Pt  -0.000000080421778   0.000959758515501  -0.000064102649864 0
force Pt   0.000001579524933   0.000069027537239  -0.000039914132490 0
force Pt  -0.000001022798652   0.000791603081858  -0.000377228455613 0
force Pt  -0.000002542466527   0.000253500671394  -0.000426136348878 0
force Pt   0.000003058803789   0.001360010052283   0.000460281773199 0
force Pt  -0.000002742463238   0.000669771081248  -0.000640690960912 0
force Pt  -0.000006316139279   0.000646471771003  -0.000174833848126 0
force Pt  -0.000003798469149   0.000535163002061  -0.000401513282054 0
force Pt  -0.000003376283636   0.000932712417060  -0.000015161091674 0
force Pt  -0.000025548181931   0.000603396046890  -0.005772177068711 0
force Pt   0.000002357656326   0.000735156995190  -0.000612156366701 0
force Pt  -0.000009850023128   0.000067164854679   0.000370748946779 0
force Pt  -0.000000381586781   0.000267120407738  -0.000223776681991 0
force Pt   0.000009170614468  -0.001152861533252  -0.001182734040626 0
force Pt  -0.000001702436251  -0.000200518844875  -0.000143814242811 0
force Pt  -0.000015909338156   0.000325235992643   0.000607728057858 0
force Pt   0.000010232986339  -0.002040888610839  -0.000895719703564 0
force Pt   0.000012907609946   0.001351716504936  -0.001417611251154 0
force Pt  -0.000009091699013  -0.002956415328250  -0.004988002671936 0
force Pt  -0.000001041928200  -0.000867449685058   0.000268392430228 0
force Pt   0.000067100084303  -0.000130235715513   0.000500708188177 0
force Pt   0.000134552310762  -0.000424427220149  -0.000843936454062 0
force Pt  -0.000074044431059  -0.000130751165761   0.000506605091843 0
force Pt  -0.000135387227145  -0.000417112455425  -0.000804496398024 0
force Pt   0.000023762245158   0.000265525490802   0.000451573039037 0
force Pt   0.000493407753956  -0.000255830125782   0.000506896885281 0
force Pt  -0.000019840468559   0.000260098512915   0.000434054807625 0
force Pt  -0.000498398123911  -0.000250265905483   0.000487627557745 0
force Pt  -0.000466120701474   0.000069743479050   0.000750351373600 0
force Pt   0.000197169264218  -0.000787844471802   0.000473651410231 0
force Pt   0.000464112916956   0.000056533704688   0.000737848318518 0
force Pt  -0.000191730582573  -0.000798395172817   0.000473978253103 0
force Pt   0.000063206002564  -0.000771380344444   0.000504761457307 0
force Pt   0.003505233676407  -0.000252928906774   0.002809264415276 0
force Pt  -0.000055802042452  -0.000784395732778   0.000519460563719 0
force Pt  -0.003733714978184  -0.000156627760212   0.003344123548980 0
force Pt   0.000104408279691  -0.000094000367240   0.000462573424169 0
force Pt  -0.003780660344006   0.007287857524103  -0.002848377794349 0
force Pt  -0.000093955010400  -0.000103729200728   0.000454606867103 0
force Pt   0.003780271444021   0.007232572039277  -0.002841393314455 0
force Pt   0.000251234712704  -0.000334368831178   0.000140553220272 0
force Pt   0.000395983095629  -0.000206088589890   0.000320869254009 0
force Pt  -0.000250732113311  -0.000330898706881   0.000141840225873 0
force Pt  -0.000400173354575  -0.000206583292279   0.000323751858013 0
force C   0.001731083782413   0.000484192665325  -0.000123724783205 1  Linear 0 0 1
force O  -0.001039240959751  -0.000348774252570   0.000128049070838 1  Linear 0 0 1

# Energy components:
   A_diel =       -0.0125163819486185
   Eewald =    24210.2803546109498711
       EH =    28105.2019620097780717
     Eloc =   -57356.4300031019083690
      Enl =      -47.3709135243533694
     EvdW =       -1.0076966559332419
      Exc =    -1370.5327353958039112
 Exc_core =      786.8850473046646812
       KE =     1380.8497630447686788
  MuShift =       -0.0000000000007161
-------------------------------------
     Etot =    -4292.1367380897927433
       TS =        0.0082341027449074
-------------------------------------
        F =    -4292.1449721925373524


Dumping 'jdft.fillings' ... done
Dumping 'jdft.wfns' ... done
Dumping 'jdft.fluidState' ... done
Dumping 'jdft.ionpos' ... done
Dumping 'jdft.lattice' ... done
Dumping 'jdft.eigenvals' ... done
Dumping 'jdft.eigStats' ... 
	eMin: -2.171224 at state 8 ( [ +0.000000 +0.000000 +0.000000 ] spin -1 )
	HOMO: -0.193468 at state 7 ( [ +0.500000 +0.500000 +0.000000 ] spin 1 )
	mu  : -0.193429
	LUMO: -0.193367 at state 8 ( [ +0.000000 +0.000000 +0.000000 ] spin -1 )
	eMax: +0.086778 at state 5 ( [ +0.333333 +0.500000 +0.000000 ] spin 1 )
	HOMO-LUMO gap: +0.000101
	Optical gap  : +0.000143 at state 7 ( [ +0.500000 +0.500000 +0.000000 ] spin 1 )
Dumping 'jdft.Ecomponents' ... done
IonicMinimize: Iter:   8  F: -4292.144972192537352  |grad|_K:  1.259e-04  alpha:  1.000e+00  linmin:  3.211e-04  t[s]:  31253.52
IonicMinimize: Converged (|Delta F|<1.000000e-06 for 2 iters).

#--- Lowdin population analysis ---
# oxidation-state Pt +0.052 +0.029 +0.052 -0.115 +0.010 +0.009 +0.009 +0.011 -0.011 -0.012 -0.010 -0.012 +0.017 +0.001 +0.017 +0.020 +0.012 +0.010 +0.012 +0.009 -0.008 -0.011 -0.017 -0.008 -0.010 -0.012 -0.010 -0.012 +0.012 +0.012 +0.012 +0.012 +0.017 +0.016 +0.017 +0.016 -0.012 -0.032 -0.012 -0.031 +0.009 +0.005 +0.009 +0.005 +0.052 +0.053 +0.052 +0.053
# magnetic-moments Pt -0.000 -0.000 -0.000 -0.000 -0.000 -0.000 -0.000 -0.000 -0.000 -0.000 -0.000 -0.000 -0.000 -0.000 -0.000 -0.000 -0.000 -0.000 -0.000 -0.000 -0.000 -0.000 -0.000 -0.000 -0.000 -0.000 -0.000 -0.000 -0.000 -0.000 -0.000 -0.000 -0.000 -0.000 -0.000 -0.000 -0.000 -0.000 -0.000 -0.000 -0.000 -0.000 -0.000 -0.000 -0.000 -0.000 -0.000 -0.000
# oxidation-state C +0.497
# magnetic-moments C -0.000
# oxidation-state O -0.112
# magnetic-moments O +0.000


Dumping 'jdft.n_up' ... done
Dumping 'jdft.n_dn' ... done
Dumping 'jdft.tau_up' ... done
Dumping 'jdft.tau_dn' ... done
Dumping 'jdft.eigenvals' ... done
Dumping 'jdft.eigStats' ... 
	eMin: -2.171224 at state 8 ( [ +0.000000 +0.000000 +0.000000 ] spin -1 )
	HOMO: -0.193468 at state 7 ( [ +0.500000 +0.500000 +0.000000 ] spin 1 )
	mu  : -0.193429
	LUMO: -0.193367 at state 8 ( [ +0.000000 +0.000000 +0.000000 ] spin -1 )
	eMax: +0.086778 at state 5 ( [ +0.333333 +0.500000 +0.000000 ] spin 1 )
	HOMO-LUMO gap: +0.000101
	Optical gap  : +0.000143 at state 7 ( [ +0.500000 +0.500000 +0.000000 ] spin 1 )
Dumping 'jdft.kPts' ... done
Dumping 'jdft.kMap' ... done
Dumping 'jdft.dosUp' ... done.
Dumping 'jdft.dosDn' ... done.
End date and time: Sun Feb 20 11:51:34 2022  (Duration: 0-8:42:35.83)
Done!
