
*************** JDFTx 1.6.0  ***************

Start date and time: Mon Dec  6 16:59:00 2021
Executable /projects/musgravc/apps/jdftx-1.6.1/build/jdftx with command-line: -i in
Running on hosts (process indices):  shas0340.rc.int.colorado.edu (0-23)
Divided in process groups (process indices):  0 (0)  1 (1)  2 (2)  3 (3)  4 (4)  5 (5)  6 (6)  7 (7)  8 (8)  9 (9)  10 (10)  11 (11)  12 (12)  13 (13)  14 (14)  15 (15)  16 (16)  17 (17)  18 (18)  19 (19)  20 (20)  21 (21)  22 (22)  23 (23)
Resource initialization completed at t[s]:      0.00
Run totals: 24 processes, 24 threads, 0 GPUs


Input parsed successfully to the following command list (including defaults):

basis kpoint-dependent
converge-empty-states yes
coords-type Cartesian
core-overlap-check none
coulomb-interaction Periodic
davidson-band-ratio 1.1
density-of-states Etol 1.000000e-06 Esigma 1.000000e-03 \
		Complete \
	Total \
	OrthoOrbital Ag 1   s \
	OrthoOrbital Ag 1   p \
	OrthoOrbital Ag 1   px \
	OrthoOrbital Ag 1   py \
	OrthoOrbital Ag 1   pz \
	OrthoOrbital Ag 1   d \
	OrthoOrbital Ag 1   dxy \
	OrthoOrbital Ag 1   dyz \
	OrthoOrbital Ag 1   dz2 \
	OrthoOrbital Ag 1   dxz \
	OrthoOrbital Ag 1   dx2-y2 \
	OrthoOrbital Ag 2   s \
	OrthoOrbital Ag 2   p \
	OrthoOrbital Ag 2   px \
	OrthoOrbital Ag 2   py \
	OrthoOrbital Ag 2   pz \
	OrthoOrbital Ag 2   d \
	OrthoOrbital Ag 2   dxy \
	OrthoOrbital Ag 2   dyz \
	OrthoOrbital Ag 2   dz2 \
	OrthoOrbital Ag 2   dxz \
	OrthoOrbital Ag 2   dx2-y2 \
	OrthoOrbital Ag 3   s \
	OrthoOrbital Ag 3   p \
	OrthoOrbital Ag 3   px \
	OrthoOrbital Ag 3   py \
	OrthoOrbital Ag 3   pz \
	OrthoOrbital Ag 3   d \
	OrthoOrbital Ag 3   dxy \
	OrthoOrbital Ag 3   dyz \
	OrthoOrbital Ag 3   dz2 \
	OrthoOrbital Ag 3   dxz \
	OrthoOrbital Ag 3   dx2-y2 \
	OrthoOrbital Ag 4   s \
	OrthoOrbital Ag 4   p \
	OrthoOrbital Ag 4   px \
	OrthoOrbital Ag 4   py \
	OrthoOrbital Ag 4   pz \
	OrthoOrbital Ag 4   d \
	OrthoOrbital Ag 4   dxy \
	OrthoOrbital Ag 4   dyz \
	OrthoOrbital Ag 4   dz2 \
	OrthoOrbital Ag 4   dxz \
	OrthoOrbital Ag 4   dx2-y2 \
	OrthoOrbital Ag 5   s \
	OrthoOrbital Ag 5   p \
	OrthoOrbital Ag 5   px \
	OrthoOrbital Ag 5   py \
	OrthoOrbital Ag 5   pz \
	OrthoOrbital Ag 5   d \
	OrthoOrbital Ag 5   dxy \
	OrthoOrbital Ag 5   dyz \
	OrthoOrbital Ag 5   dz2 \
	OrthoOrbital Ag 5   dxz \
	OrthoOrbital Ag 5   dx2-y2 \
	OrthoOrbital Ag 6   s \
	OrthoOrbital Ag 6   p \
	OrthoOrbital Ag 6   px \
	OrthoOrbital Ag 6   py \
	OrthoOrbital Ag 6   pz \
	OrthoOrbital Ag 6   d \
	OrthoOrbital Ag 6   dxy \
	OrthoOrbital Ag 6   dyz \
	OrthoOrbital Ag 6   dz2 \
	OrthoOrbital Ag 6   dxz \
	OrthoOrbital Ag 6   dx2-y2 \
	OrthoOrbital Ag 7   s \
	OrthoOrbital Ag 7   p \
	OrthoOrbital Ag 7   px \
	OrthoOrbital Ag 7   py \
	OrthoOrbital Ag 7   pz \
	OrthoOrbital Ag 7   d \
	OrthoOrbital Ag 7   dxy \
	OrthoOrbital Ag 7   dyz \
	OrthoOrbital Ag 7   dz2 \
	OrthoOrbital Ag 7   dxz \
	OrthoOrbital Ag 7   dx2-y2 \
	OrthoOrbital Ag 8   s \
	OrthoOrbital Ag 8   p \
	OrthoOrbital Ag 8   px \
	OrthoOrbital Ag 8   py \
	OrthoOrbital Ag 8   pz \
	OrthoOrbital Ag 8   d \
	OrthoOrbital Ag 8   dxy \
	OrthoOrbital Ag 8   dyz \
	OrthoOrbital Ag 8   dz2 \
	OrthoOrbital Ag 8   dxz \
	OrthoOrbital Ag 8   dx2-y2 \
	OrthoOrbital Ag 9   s \
	OrthoOrbital Ag 9   p \
	OrthoOrbital Ag 9   px \
	OrthoOrbital Ag 9   py \
	OrthoOrbital Ag 9   pz \
	OrthoOrbital Ag 9   d \
	OrthoOrbital Ag 9   dxy \
	OrthoOrbital Ag 9   dyz \
	OrthoOrbital Ag 9   dz2 \
	OrthoOrbital Ag 9   dxz \
	OrthoOrbital Ag 9   dx2-y2 \
	OrthoOrbital Ag 10   s \
	OrthoOrbital Ag 10   p \
	OrthoOrbital Ag 10   px \
	OrthoOrbital Ag 10   py \
	OrthoOrbital Ag 10   pz \
	OrthoOrbital Ag 10   d \
	OrthoOrbital Ag 10   dxy \
	OrthoOrbital Ag 10   dyz \
	OrthoOrbital Ag 10   dz2 \
	OrthoOrbital Ag 10   dxz \
	OrthoOrbital Ag 10   dx2-y2 \
	OrthoOrbital Ag 11   s \
	OrthoOrbital Ag 11   p \
	OrthoOrbital Ag 11   px \
	OrthoOrbital Ag 11   py \
	OrthoOrbital Ag 11   pz \
	OrthoOrbital Ag 11   d \
	OrthoOrbital Ag 11   dxy \
	OrthoOrbital Ag 11   dyz \
	OrthoOrbital Ag 11   dz2 \
	OrthoOrbital Ag 11   dxz \
	OrthoOrbital Ag 11   dx2-y2 \
	OrthoOrbital Ag 12   s \
	OrthoOrbital Ag 12   p \
	OrthoOrbital Ag 12   px \
	OrthoOrbital Ag 12   py \
	OrthoOrbital Ag 12   pz \
	OrthoOrbital Ag 12   d \
	OrthoOrbital Ag 12   dxy \
	OrthoOrbital Ag 12   dyz \
	OrthoOrbital Ag 12   dz2 \
	OrthoOrbital Ag 12   dxz \
	OrthoOrbital Ag 12   dx2-y2
dump End ElecDensity KEdensity BandEigs EigStats RhoAtom DOS Kpoints
dump Ionic State IonicPositions Lattice EigStats Ecomponents
dump 
dump 
dump 
dump 
dump 
dump 
dump 
dump 
dump-name jdft.$VAR
elec-cutoff 20
elec-eigen-algo Davidson
elec-ex-corr gga-PBE
elec-initial-magnetization 0.000000 no
elec-n-bands 137
elec-smearing Fermi 0.001
electronic-minimize  \
	dirUpdateScheme      FletcherReeves \
	linminMethod         DirUpdateRecommended \
	nIterations          100 \
	history              15 \
	knormThreshold       0 \
	energyDiffThreshold  1e-07 \
	nEnergyDiff          2 \
	alphaTstart          1 \
	alphaTmin            1e-10 \
	updateTestStepSize   yes \
	alphaTreduceFactor   0.1 \
	alphaTincreaseFactor 3 \
	nAlphaAdjustMax      3 \
	wolfeEnergy          0.0001 \
	wolfeGradient        0.9 \
	fdTest               no
exchange-regularization WignerSeitzTruncated
fluid None
fluid-ex-corr lda-TF lda-PZ
fluid-gummel-loop 10 1.000000e-05
fluid-minimize  \
	dirUpdateScheme      PolakRibiere \
	linminMethod         DirUpdateRecommended \
	nIterations          100 \
	history              15 \
	knormThreshold       0 \
	energyDiffThreshold  0 \
	nEnergyDiff          2 \
	alphaTstart          1 \
	alphaTmin            1e-10 \
	updateTestStepSize   yes \
	alphaTreduceFactor   0.1 \
	alphaTincreaseFactor 3 \
	nAlphaAdjustMax      3 \
	wolfeEnergy          0.0001 \
	wolfeGradient        0.9 \
	fdTest               no
fluid-solvent H2O 55.338 ScalarEOS \
	epsBulk 78.4 \
	pMol 0.92466 \
	epsInf 1.77 \
	Pvap 1.06736e-10 \
	sigmaBulk 4.62e-05 \
	Rvdw 2.61727 \
	Res 1.42 \
	tauNuc 343133 \
	poleEl 15 7 1
forces-output-coords Positions
ion Ag   0.000000000000000   0.000000000000000  17.994577000000000 1
ion Ag   0.000000000000000   4.425771000000000   2.347141000000000 1
ion Ag   0.000000000000000   8.851556000000000   5.476605000000000 1
ion Ag   0.000000000000000   0.000000000000000   8.606126000000000 1
ion Ag   0.000000000000000   4.425771000000000  11.735590999999999 1
ion Ag   5.420447000000000   8.851556000000000  14.865112000000002 1
ion Ag   2.710223000000000   0.000000000000000   3.911845000000000 1
ion Ag   2.710223000000000   4.425771000000000   7.041366000000001 1
ion Ag   2.710223000000000   8.851556000000000  10.170887000000002 1
ion Ag   2.710223000000000   0.000000000000000  13.300352000000000 1
ion Ag   2.710223000000000   4.425771000000000  16.429873000000004 1
ion Ag   2.710223000000000   8.851556000000000   0.782380000000000 1
ion-species /projects/musgravc/apps/jdftx-1.6.0/build/pseudopotentials/GBRV_v1.5/$ID_pbe_v1.uspp
ion-species /projects/musgravc/apps/jdftx-1.6.0/build/pseudopotentials/GBRV_v1.5/$ID_pbe_v1.2.uspp
ion-species /projects/musgravc/apps/jdftx-1.6.0/build/pseudopotentials/GBRV_v1.5/$ID_pbe_v1.4.uspp
ion-species /projects/musgravc/apps/jdftx-1.6.0/build/pseudopotentials/GBRV_v1.5/$ID_pbe_v1.5.uspp
ion-width 0
ionic-minimize  \
	dirUpdateScheme      L-BFGS \
	linminMethod         DirUpdateRecommended \
	nIterations          100 \
	history              15 \
	knormThreshold       0.0001 \
	energyDiffThreshold  1e-06 \
	nEnergyDiff          2 \
	alphaTstart          1 \
	alphaTmin            1e-10 \
	updateTestStepSize   yes \
	alphaTreduceFactor   0.1 \
	alphaTincreaseFactor 3 \
	nAlphaAdjustMax      3 \
	wolfeEnergy          0.0001 \
	wolfeGradient        0.9 \
	fdTest               no
kpoint   0.000000000000   0.000000000000   0.000000000000  1.00000000000000
kpoint-folding 12 5 1 
latt-move-scale 0 0 0
latt-scale 1 1 1 
lattice  \
	   5.420447000000000   -0.000000000000000    0.000000000000000  \
	   0.000000000000000   13.277327000000000    0.000000000000000  \
	   0.000000000000000    0.000000000000000   56.330927000000003 
lattice-minimize  \
	dirUpdateScheme      L-BFGS \
	linminMethod         DirUpdateRecommended \
	nIterations          0 \
	history              15 \
	knormThreshold       0 \
	energyDiffThreshold  1e-06 \
	nEnergyDiff          2 \
	alphaTstart          1 \
	alphaTmin            1e-10 \
	updateTestStepSize   yes \
	alphaTreduceFactor   0.1 \
	alphaTincreaseFactor 3 \
	nAlphaAdjustMax      3 \
	wolfeEnergy          0.0001 \
	wolfeGradient        0.9 \
	fdTest               no
lcao-params 30 1e-06 0.001
pcm-variant GLSSA13
spintype z-spin
subspace-rotation-factor 1 yes
symmetries none
symmetry-threshold 0.0001
van-der-waals D3


Applied RMS atom displacement 0 bohrs to make symmetries exact.

---------- Initializing the Grid ----------
R = 
[      5.42045            0            0  ]
[            0      13.2773            0  ]
[            0            0      56.3309  ]
unit cell volume = 4054.08
G =
[    1.15916          0         -0  ]
[          0   0.473227          0  ]
[          0         -0   0.111541  ]
Minimum fftbox size, Smin = [  24  56  228  ]
Chosen fftbox size, S = [  24  56  240  ]

---------- Exchange Correlation functional ----------
Initalized PBE GGA exchange.
Initalized PBE GGA correlation.

---------- Setting up pseudopotentials ----------
Width of ionic core gaussian charges (only for fluid interactions / plotting) set to 0

Reading pseudopotential file '/projects/musgravc/apps/jdftx-1.6.0/build/pseudopotentials/GBRV_v1.5/ag_pbe_v1.4.uspp':
  Title: Ag.  Created by USPP 7.3.6 on 1-4-15
  Reference state energy: -147.606242.  19 valence electrons in orbitals:
    |400>  occupation: 2  eigenvalue: -3.637437
    |410>  occupation: 6  eigenvalue: -2.297267
    |420>  occupation: 10  eigenvalue: -0.417763
    |500>  occupation: 0.5  eigenvalue: -0.283525
    |510>  occupation: 0  eigenvalue: -0.122889
  lMax: 2  lLocal: 0  QijEcut: 5.5
  6 projectors sampled on a log grid with 717 points:
    l: 0  eig: -0.283528  rCut: 1.5
    l: 0  eig: -3.637440  rCut: 1.5
    l: 1  eig: -0.122892  rCut: 1.5
    l: 1  eig: -2.297267  rCut: 1.5
    l: 2  eig: -0.417762  rCut: 1.7
    l: 2  eig: -1.000000  rCut: 1.7
  Partial core density with radius 1.2
  Transforming core density to a uniform radial grid of dG=0.02 with 1176 points.
  Transforming local potential to a uniform radial grid of dG=0.02 with 1176 points.
  Transforming nonlocal projectors to a uniform radial grid of dG=0.02 with 432 points.
  Transforming density augmentations to a uniform radial grid of dG=0.02 with 1176 points.
  Transforming atomic orbitals to a uniform radial grid of dG=0.02 with 432 points.
  Core radius for overlap checks: 1.70 bohrs.

Initialized 1 species with 12 total atoms.

Folded 1 k-points by 12x5x1 to 60 k-points.

---------- Setting up k-points, bands, fillings ----------
No reducable k-points. 
Computing the number of bands and number of electrons
Calculating initial fillings.
nElectrons: 228.000000   nBands: 137   nStates: 120

----- Setting up reduced wavefunction bases (one per k-point) -----
average nbasis = 17322.383 , ideal nbasis = 17319.352

----- Initializing Supercell corresponding to k-point mesh -----
Lattice vector linear combinations in supercell:
[  12   0   0  ]
[   0   5   0  ]
[   0   0   1  ]
Supercell lattice vectors:
[  65.0454  0  0  ]
[  0  66.3866  0  ]
[  0  0  56.3309  ]

Initializing DFT-D3 calculator:
	Parameters set for gga-PBE functional
	s6:  1.000  s_r6:  1.217
	s8:  0.722  s_r8:  1.000
	Per-atom parameters loaded for:
	Ag:  sqrtQ[a0]:  5.443  Rcov[a0]:  2.173  CN: [ 0.00 0.97 ]

---------- Setting up ewald sum ----------
Optimum gaussian width for ewald sums = 4.204142 bohr.
Real space sum over 1045 unit cells with max indices [  9  5  2  ]
Reciprocal space sum over 4095 terms with max indices [  3  6  22  ]

Computing DFT-D3 correction:
# coordination-number Ag 5.359 6.871 9.174 9.203 9.199 7.666 7.666 9.199 9.203 9.174 6.871 5.359
# diagonal-C6 Ag 268.61 268.61 268.61 268.61 268.61 268.61 268.61 268.61 268.61 268.61 268.61 268.61
EvdW_6 =   -0.068574
EvdW_8 =   -0.096173

---------- Allocating electronic variables ----------
Initializing wave functions:  linear combination of atomic orbitals
Ag pseudo-atom occupations:   s ( 2 1 )  p ( 6 0 )  d ( 10 )
	FillingsUpdate:  mu: -0.005314750  nElectrons: 228.000000  magneticMoment: [ Abs: 0.00091  Tot: -0.00005 ]
LCAOMinimize: Iter:   0  F: -1771.0699090239497764  |grad|_K:  7.029e-04  alpha:  1.000e+00
	FillingsUpdate:  mu: +0.248605780  nElectrons: 228.000000  magneticMoment: [ Abs: 0.00072  Tot: -0.00003 ]
LCAOMinimize: Iter:   1  F: -1771.0989040530946568  |grad|_K:  8.752e-04  alpha:  2.547e-01  linmin:  5.994e-02  cgtest: -6.816e-01  t[s]:     82.14
	FillingsUpdate:  mu: +0.277908006  nElectrons: 228.000000  magneticMoment: [ Abs: 0.00067  Tot: -0.00004 ]
LCAOMinimize: Iter:   2  F: -1771.1005093199771636  |grad|_K:  9.148e-04  alpha:  3.571e-02  linmin:  2.750e-03  cgtest:  1.008e+00  t[s]:    115.22
	FillingsUpdate:  mu: +0.116024387  nElectrons: 228.000000  magneticMoment: [ Abs: 0.00068  Tot: -0.00006 ]
LCAOMinimize: Iter:   3  F: -1771.2217377104202569  |grad|_K:  1.130e-04  alpha:  9.402e-02  linmin: -1.230e-01  cgtest:  5.973e-01  t[s]:    148.18
LCAOMinimize: Encountered beta<0, resetting CG.
	FillingsUpdate:  mu: +0.092176678  nElectrons: 228.000000  magneticMoment: [ Abs: 0.00066  Tot: -0.00007 ]
LCAOMinimize: Iter:   4  F: -1771.2268628159283708  |grad|_K:  1.118e-04  alpha:  2.781e-01  linmin:  5.117e-03  cgtest: -1.909e-02  t[s]:    181.71
	FillingsUpdate:  mu: +0.104300998  nElectrons: 228.000000  magneticMoment: [ Abs: 0.00063  Tot: -0.00008 ]
LCAOMinimize: Iter:   5  F: -1771.2300927964638504  |grad|_K:  2.496e-05  alpha:  1.859e-01  linmin:  1.063e-04  cgtest:  2.624e-01  t[s]:    214.76
LCAOMinimize: Encountered beta<0, resetting CG.
	FillingsUpdate:  mu: +0.106961880  nElectrons: 228.000000  magneticMoment: [ Abs: 0.00063  Tot: -0.00008 ]
LCAOMinimize: Iter:   6  F: -1771.2302297541348253  |grad|_K:  2.848e-05  alpha:  1.487e-01  linmin: -7.912e-05  cgtest:  1.768e-03  t[s]:    247.76
	FillingsUpdate:  mu: +0.108344465  nElectrons: 228.000000  magneticMoment: [ Abs: 0.00063  Tot: -0.00008 ]
LCAOMinimize: Iter:   7  F: -1771.2303097174103641  |grad|_K:  6.841e-06  alpha:  6.673e-02  linmin:  3.402e-04  cgtest: -2.921e-02  t[s]:    280.79
	FillingsUpdate:  mu: +0.107399921  nElectrons: 228.000000  magneticMoment: [ Abs: 0.00063  Tot: -0.00008 ]
LCAOMinimize: Iter:   8  F: -1771.2303171516102793  |grad|_K:  1.980e-06  alpha:  1.076e-01  linmin:  2.970e-04  cgtest:  5.197e-03  t[s]:    313.82
LCAOMinimize: 	Predicted alpha/alphaT>3.000000, increasing alphaT to 3.227432e-01.
	FillingsUpdate:  mu: +0.107393463  nElectrons: 228.000000  magneticMoment: [ Abs: 0.00063  Tot: -0.00008 ]
LCAOMinimize: Iter:   9  F: -1771.2303202885443625  |grad|_K:  1.658e-06  alpha:  5.412e-01  linmin: -1.318e-04  cgtest:  4.392e-04  t[s]:    355.52
	FillingsUpdate:  mu: +0.107406760  nElectrons: 228.000000  magneticMoment: [ Abs: 0.00063  Tot: -0.00008 ]
LCAOMinimize: Iter:  10  F: -1771.2303204742211165  |grad|_K:  6.828e-07  alpha:  4.569e-02  linmin:  2.686e-04  cgtest: -5.144e-03  t[s]:    388.56
LCAOMinimize: 	Predicted alpha/alphaT>3.000000, increasing alphaT to 1.370740e-01.
	FillingsUpdate:  mu: +0.107460183  nElectrons: 228.000000  magneticMoment: [ Abs: 0.00064  Tot: -0.00008 ]
LCAOMinimize: Iter:  11  F: -1771.2303206687365673  |grad|_K:  3.496e-07  alpha:  2.827e-01  linmin:  8.206e-05  cgtest:  4.756e-03  t[s]:    430.04
LCAOMinimize: Converged (|Delta F|<1.000000e-06 for 2 iters).


---- Citations for features of the code used in this run ----

   Software package:
      R. Sundararaman, K. Letchworth-Weaver, K.A. Schwarz, D. Gunceler, Y. Ozhabes and T.A. Arias, 'JDFTx: software for joint density-functional theory', SoftwareX 6, 278 (2017)

   gga-PBE exchange-correlation functional:
      J.P. Perdew, K. Burke and M. Ernzerhof, Phys. Rev. Lett. 77, 3865 (1996)

   Pseudopotentials:
      KF Garrity, JW Bennett, KM Rabe and D Vanderbilt, Comput. Mater. Sci. 81, 446 (2014)

   DFT-D3 dispersion correction:
      S. Grimme, J. Antony, S. Ehrlich and H. Krieg, J. Chem. Phys. 132, 154104 (2010)

   Total energy minimization with Auxiliary Hamiltonian:
      C. Freysoldt, S. Boeck, and J. Neugebauer, Phys. Rev. B 79, 241103(R) (2009)

   Linear-tetrahedron sampling for density of states:
      G. Lehmann and M. Taut, Phys. status solidi (b) 54, 469 (1972)

This list may not be complete. Please suggest additional citations or
report any other bugs at https://github.com/shankar1729/jdftx/issues

Initialization completed successfully at t[s]:    434.85


Computing DFT-D3 correction:
# coordination-number Ag 5.359 6.871 9.174 9.203 9.199 7.666 7.666 9.199 9.203 9.174 6.871 5.359
# diagonal-C6 Ag 268.61 268.61 268.61 268.61 268.61 268.61 268.61 268.61 268.61 268.61 268.61 268.61
EvdW_6 =   -0.068574
EvdW_8 =   -0.096173

-------- Electronic minimization -----------
	FillingsUpdate:  mu: +0.107460183  nElectrons: 228.000000  magneticMoment: [ Abs: 0.00064  Tot: -0.00008 ]
ElecMinimize: Iter:   0  F: -1771.230320668736567  |grad|_K:  2.008e-05  alpha:  1.000e+00
	FillingsUpdate:  mu: +0.116122620  nElectrons: 228.000000  magneticMoment: [ Abs: 0.00049  Tot: -0.00008 ]
	SubspaceRotationAdjust: set factor to 1
ElecMinimize: Iter:   1  F: -1771.281697348817033  |grad|_K:  1.409e-05  alpha:  4.468e-01  linmin:  2.531e-05  t[s]:    509.46
	FillingsUpdate:  mu: +0.105599261  nElectrons: 228.000000  magneticMoment: [ Abs: 0.00039  Tot: -0.00009 ]
	SubspaceRotationAdjust: set factor to 0.913
ElecMinimize: Iter:   2  F: -1771.297530594871887  |grad|_K:  6.954e-06  alpha:  2.782e-01  linmin: -1.737e-05  t[s]:    555.09
	FillingsUpdate:  mu: +0.122648811  nElectrons: 228.000000  magneticMoment: [ Abs: 0.00030  Tot: -0.00008 ]
	SubspaceRotationAdjust: set factor to 0.68
ElecMinimize: Iter:   3  F: -1771.301706427291037  |grad|_K:  6.322e-06  alpha:  3.017e-01  linmin: -2.883e-05  t[s]:    600.68
	FillingsUpdate:  mu: +0.111334826  nElectrons: 228.000000  magneticMoment: [ Abs: 0.00025  Tot: -0.00007 ]
	SubspaceRotationAdjust: set factor to 0.519
ElecMinimize: Iter:   4  F: -1771.303675792432614  |grad|_K:  3.770e-06  alpha:  1.706e-01  linmin: -3.068e-05  t[s]:    646.12
	FillingsUpdate:  mu: +0.109824275  nElectrons: 228.000000  magneticMoment: [ Abs: 0.00022  Tot: -0.00007 ]
	SubspaceRotationAdjust: set factor to 0.369
ElecMinimize: Iter:   5  F: -1771.304267967880378  |grad|_K:  3.780e-06  alpha:  1.454e-01  linmin:  6.059e-06  t[s]:    691.85
	FillingsUpdate:  mu: +0.112249866  nElectrons: 228.000000  magneticMoment: [ Abs: 0.00017  Tot: -0.00006 ]
	SubspaceRotationAdjust: set factor to 0.632
ElecMinimize: Iter:   6  F: -1771.305188423351410  |grad|_K:  2.040e-06  alpha:  2.257e-01  linmin:  2.135e-05  t[s]:    737.33
	FillingsUpdate:  mu: +0.115405003  nElectrons: 228.000000  magneticMoment: [ Abs: 0.00014  Tot: -0.00005 ]
	SubspaceRotationAdjust: set factor to 0.43
ElecMinimize: Iter:   7  F: -1771.305494752932873  |grad|_K:  2.366e-06  alpha:  2.580e-01  linmin: -1.780e-05  t[s]:    783.58
	FillingsUpdate:  mu: +0.116402759  nElectrons: 228.000000  magneticMoment: [ Abs: 0.00012  Tot: -0.00005 ]
	SubspaceRotationAdjust: set factor to 0.275
ElecMinimize: Iter:   8  F: -1771.305669292183211  |grad|_K:  1.121e-06  alpha:  1.089e-01  linmin: -4.792e-06  t[s]:    829.08
ElecMinimize: 	Predicted alpha/alphaT>3.000000, increasing alphaT to 3.267019e-01.
	FillingsUpdate:  mu: +0.114050896  nElectrons: 228.000000  magneticMoment: [ Abs: 0.00010  Tot: -0.00004 ]
	SubspaceRotationAdjust: set factor to 0.271
ElecMinimize: Iter:   9  F: -1771.305788797887089  |grad|_K:  7.774e-07  alpha:  3.325e-01  linmin:  2.417e-05  t[s]:    886.04
	FillingsUpdate:  mu: +0.114560840  nElectrons: 228.000000  magneticMoment: [ Abs: 0.00008  Tot: -0.00003 ]
	SubspaceRotationAdjust: set factor to 0.253
ElecMinimize: Iter:  10  F: -1771.305850385381973  |grad|_K:  6.847e-07  alpha:  3.576e-01  linmin:  1.306e-05  t[s]:    931.87
	FillingsUpdate:  mu: +0.115577207  nElectrons: 228.000000  magneticMoment: [ Abs: 0.00007  Tot: -0.00003 ]
	SubspaceRotationAdjust: set factor to 0.209
ElecMinimize: Iter:  11  F: -1771.305882050979562  |grad|_K:  4.102e-07  alpha:  2.365e-01  linmin: -8.990e-07  t[s]:    977.42
	FillingsUpdate:  mu: +0.115911434  nElectrons: 228.000000  magneticMoment: [ Abs: 0.00006  Tot: -0.00002 ]
	SubspaceRotationAdjust: set factor to 0.257
ElecMinimize: Iter:  12  F: -1771.305901333100337  |grad|_K:  3.039e-07  alpha:  4.012e-01  linmin:  1.328e-05  t[s]:   1023.11
	FillingsUpdate:  mu: +0.115662624  nElectrons: 228.000000  magneticMoment: [ Abs: 0.00005  Tot: -0.00002 ]
	SubspaceRotationAdjust: set factor to 0.231
ElecMinimize: Iter:  13  F: -1771.305909954110348  |grad|_K:  2.431e-07  alpha:  3.273e-01  linmin:  2.736e-06  t[s]:   1068.63
	FillingsUpdate:  mu: +0.115520985  nElectrons: 228.000000  magneticMoment: [ Abs: 0.00005  Tot: -0.00001 ]
	SubspaceRotationAdjust: set factor to 0.21
ElecMinimize: Iter:  14  F: -1771.305915399438618  |grad|_K:  1.750e-07  alpha:  3.224e-01  linmin:  3.842e-06  t[s]:   1115.11
	FillingsUpdate:  mu: +0.115711910  nElectrons: 228.000000  magneticMoment: [ Abs: 0.00004  Tot: -0.00001 ]
	SubspaceRotationAdjust: set factor to 0.247
ElecMinimize: Iter:  15  F: -1771.305918739107256  |grad|_K:  1.367e-07  alpha:  3.821e-01  linmin:  2.779e-06  t[s]:   1160.66
	FillingsUpdate:  mu: +0.115830037  nElectrons: 228.000000  magneticMoment: [ Abs: 0.00003  Tot: -0.00001 ]
	SubspaceRotationAdjust: set factor to 0.254
ElecMinimize: Iter:  16  F: -1771.305920796624150  |grad|_K:  1.083e-07  alpha:  3.858e-01  linmin:  2.688e-06  t[s]:   1206.20
	FillingsUpdate:  mu: +0.115759808  nElectrons: 228.000000  magneticMoment: [ Abs: 0.00003  Tot: -0.00001 ]
	SubspaceRotationAdjust: set factor to 0.224
ElecMinimize: Iter:  17  F: -1771.305921900432622  |grad|_K:  8.561e-08  alpha:  3.293e-01  linmin:  1.114e-06  t[s]:   1251.82
	FillingsUpdate:  mu: +0.115704462  nElectrons: 228.000000  magneticMoment: [ Abs: 0.00002  Tot: -0.00001 ]
	SubspaceRotationAdjust: set factor to 0.223
ElecMinimize: Iter:  18  F: -1771.305922567785046  |grad|_K:  6.010e-08  alpha:  3.188e-01  linmin:  8.997e-07  t[s]:   1297.48
	FillingsUpdate:  mu: +0.115765540  nElectrons: 228.000000  magneticMoment: [ Abs: 0.00002  Tot: -0.00000 ]
	SubspaceRotationAdjust: set factor to 0.252
ElecMinimize: Iter:  19  F: -1771.305923004506440  |grad|_K:  4.406e-08  alpha:  4.235e-01  linmin:  1.537e-06  t[s]:   1342.90
	FillingsUpdate:  mu: +0.115792668  nElectrons: 228.000000  magneticMoment: [ Abs: 0.00001  Tot: -0.00000 ]
	SubspaceRotationAdjust: set factor to 0.224
ElecMinimize: Iter:  20  F: -1771.305923193560830  |grad|_K:  3.617e-08  alpha:  3.412e-01  linmin: -1.424e-07  t[s]:   1389.31
	FillingsUpdate:  mu: +0.115777292  nElectrons: 228.000000  magneticMoment: [ Abs: 0.00001  Tot: -0.00000 ]
	SubspaceRotationAdjust: set factor to 0.199
ElecMinimize: Iter:  21  F: -1771.305923310201706  |grad|_K:  2.445e-08  alpha:  3.120e-01  linmin:  1.689e-07  t[s]:   1434.82
	FillingsUpdate:  mu: +0.115761909  nElectrons: 228.000000  magneticMoment: [ Abs: 0.00001  Tot: -0.00000 ]
	SubspaceRotationAdjust: set factor to 0.221
ElecMinimize: Iter:  22  F: -1771.305923377173713  |grad|_K:  1.769e-08  alpha:  3.915e-01  linmin:  3.225e-07  t[s]:   1480.55
	FillingsUpdate:  mu: +0.115773964  nElectrons: 228.000000  magneticMoment: [ Abs: 0.00001  Tot: -0.00000 ]
	SubspaceRotationAdjust: set factor to 0.225
ElecMinimize: Iter:  23  F: -1771.305923409640855  |grad|_K:  1.338e-08  alpha:  3.630e-01  linmin: -1.068e-06  t[s]:   1526.21
ElecMinimize: Converged (|Delta F|<1.000000e-07 for 2 iters).
Setting wave functions to eigenvectors of Hamiltonian
Converging empty states (this may take a while): |deigs|: 1.436e-02

Computing DFT-D3 correction:
# coordination-number Ag 5.359 6.871 9.174 9.203 9.199 7.666 7.666 9.199 9.203 9.174 6.871 5.359
# diagonal-C6 Ag 268.61 268.61 268.61 268.61 268.61 268.61 268.61 268.61 268.61 268.61 268.61 268.61
EvdW_6 =   -0.068574
EvdW_8 =   -0.096173

# Ionic positions in cartesian coordinates:
ion Ag   0.000000000000000   0.000000000000000  17.994577000000000 1
ion Ag   0.000000000000000   4.425771000000000   2.347141000000000 1
ion Ag   0.000000000000000   8.851556000000000   5.476605000000000 1
ion Ag   0.000000000000000   0.000000000000000   8.606126000000000 1
ion Ag   0.000000000000000   4.425771000000000  11.735590999999999 1
ion Ag   5.420447000000000   8.851556000000000  14.865112000000002 1
ion Ag   2.710223000000000   0.000000000000000   3.911845000000000 1
ion Ag   2.710223000000000   4.425771000000000   7.041366000000001 1
ion Ag   2.710223000000000   8.851556000000000  10.170887000000002 1
ion Ag   2.710223000000000   0.000000000000000  13.300352000000000 1
ion Ag   2.710223000000000   4.425771000000000  16.429873000000004 1
ion Ag   2.710223000000000   8.851556000000000   0.782380000000000 1

# Forces in Cartesian coordinates:
force Ag  -0.000015519780229  -0.001381836549493  -0.001319594289011 1
force Ag   0.000000722667185  -0.002376077057940  -0.003261684104961 1
force Ag   0.000014636499523   0.001854395821318   0.000482090485179 1
force Ag  -0.000017476178843  -0.000120749024295   0.002315255574326 1
force Ag   0.000001424994063   0.000725620648003  -0.001984558345114 1
force Ag   0.000010928781086  -0.001269666199915   0.005525448073358 1
force Ag  -0.000012743688848   0.001213876985260  -0.005429885403393 1
force Ag   0.000000900187829  -0.000594282632755   0.002141942302568 1
force Ag   0.000016795996902   0.000063353294570  -0.002155074795535 1
force Ag  -0.000014362168934  -0.001907657364598  -0.000361066505902 1
force Ag   0.000002868999327   0.002544603565311   0.003332597917890 1
force Ag   0.000018211298252   0.001271804840144   0.001374298746986 1

# Energy components:
   Eewald =     8246.2563877566681185
       EH =     9844.4182869543692505
     Eloc =   -20140.2883788088402071
      Enl =       47.3295310986848108
     EvdW =       -0.1647472392836835
      Exc =     -173.8749199486587145
 Exc_core =        2.4980491912248959
       KE =      402.5202318525549003
-------------------------------------
     Etot =    -1771.3055591432807887
       TS =        0.0003642663601630
-------------------------------------
        F =    -1771.3059234096408545


Dumping 'jdft.fillings' ... done
Dumping 'jdft.wfns' ... done
Dumping 'jdft.ionpos' ... done
Dumping 'jdft.lattice' ... done
Dumping 'jdft.eigenvals' ... done
Dumping 'jdft.eigStats' ... 
	eMin: -3.267934 at state 60 ( [ +0.000000 +0.000000 +0.000000 ] spin -1 )
	HOMO: +0.115566 at state 45 ( [ -0.250000 +0.000000 +0.000000 ] spin 1 )
	mu  : +0.115774
	LUMO: +0.116012 at state 85 ( [ +0.416667 +0.000000 +0.000000 ] spin -1 )
	eMax: +0.429747 at state 93 ( [ +0.500000 -0.400000 +0.000000 ] spin -1 )
	HOMO-LUMO gap: +0.000447
	Optical gap  : +0.008511 at state 86 ( [ +0.416667 +0.200000 +0.000000 ] spin -1 )
Dumping 'jdft.Ecomponents' ... done
IonicMinimize: Iter:   0  F: -1771.305923409640855  |grad|_K:  1.907e-03  t[s]:   1684.51

#--- Lowdin population analysis ---
# oxidation-state Ag +0.090 +0.015 -0.040 -0.003 -0.007 -0.021 -0.021 -0.007 -0.003 -0.040 +0.015 +0.089
# magnetic-moments Ag -0.000 -0.000 -0.000 -0.000 -0.000 -0.000 -0.000 -0.000 -0.000 -0.000 -0.000 -0.000


Computing DFT-D3 correction:
# coordination-number Ag 5.360 6.864 9.170 9.201 9.194 7.662 7.661 9.194 9.202 9.170 6.864 5.361
# diagonal-C6 Ag 268.61 268.61 268.61 268.61 268.61 268.61 268.61 268.61 268.61 268.61 268.61 268.61
EvdW_6 =   -0.068567
EvdW_8 =   -0.096159

-------- Electronic minimization -----------
	FillingsUpdate:  mu: +0.115805491  nElectrons: 228.000000  magneticMoment: [ Abs: 0.00000  Tot: -0.00000 ]
ElecMinimize: Iter:   0  F: -1771.306022946739404  |grad|_K:  2.411e-07  alpha:  1.000e+00
	FillingsUpdate:  mu: +0.115696779  nElectrons: 228.000000  magneticMoment: [ Abs: 0.00000  Tot: -0.00000 ]
	SubspaceRotationAdjust: set factor to 0.14
ElecMinimize: Iter:   1  F: -1771.306027772715197  |grad|_K:  2.115e-07  alpha:  2.903e-01  linmin: -3.882e-06  t[s]:   1767.31
	FillingsUpdate:  mu: +0.115564699  nElectrons: 228.000000  magneticMoment: [ Abs: 0.00000  Tot: -0.00000 ]
	SubspaceRotationAdjust: set factor to 0.164
ElecMinimize: Iter:   2  F: -1771.306035863769011  |grad|_K:  1.948e-07  alpha:  6.327e-01  linmin:  2.073e-06  t[s]:   1813.12
	FillingsUpdate:  mu: +0.115810653  nElectrons: 228.000000  magneticMoment: [ Abs: 0.00000  Tot: -0.00000 ]
	SubspaceRotationAdjust: set factor to 0.186
ElecMinimize: Iter:   3  F: -1771.306043716289878  |grad|_K:  1.753e-07  alpha:  7.241e-01  linmin: -4.625e-07  t[s]:   1858.96
	FillingsUpdate:  mu: +0.115788138  nElectrons: 228.000000  magneticMoment: [ Abs: 0.00000  Tot: -0.00000 ]
	SubspaceRotationAdjust: set factor to 0.183
ElecMinimize: Iter:   4  F: -1771.306047423015571  |grad|_K:  1.251e-07  alpha:  4.216e-01  linmin: -1.144e-07  t[s]:   1904.53
	FillingsUpdate:  mu: +0.115728525  nElectrons: 228.000000  magneticMoment: [ Abs: 0.00000  Tot: -0.00000 ]
	SubspaceRotationAdjust: set factor to 0.169
ElecMinimize: Iter:   5  F: -1771.306049184858693  |grad|_K:  7.069e-08  alpha:  3.935e-01  linmin: -3.099e-07  t[s]:   1950.34
	FillingsUpdate:  mu: +0.115784583  nElectrons: 228.000000  magneticMoment: [ Abs: 0.00000  Tot: -0.00000 ]
	SubspaceRotationAdjust: set factor to 0.165
ElecMinimize: Iter:   6  F: -1771.306049799487710  |grad|_K:  4.409e-08  alpha:  4.302e-01  linmin: -3.506e-06  t[s]:   1995.90
	FillingsUpdate:  mu: +0.115785908  nElectrons: 228.000000  magneticMoment: [ Abs: 0.00000  Tot: -0.00000 ]
	SubspaceRotationAdjust: set factor to 0.177
ElecMinimize: Iter:   7  F: -1771.306050013964978  |grad|_K:  2.696e-08  alpha:  3.863e-01  linmin: -2.440e-06  t[s]:   2041.79
	FillingsUpdate:  mu: +0.115765685  nElectrons: 228.000000  magneticMoment: [ Abs: 0.00000  Tot: -0.00000 ]
	SubspaceRotationAdjust: set factor to 0.196
ElecMinimize: Iter:   8  F: -1771.306050105187751  |grad|_K:  1.819e-08  alpha:  4.386e-01  linmin:  4.398e-05  t[s]:   2087.28
	FillingsUpdate:  mu: +0.115766246  nElectrons: 228.000000  magneticMoment: [ Abs: 0.00000  Tot: -0.00000 ]
	SubspaceRotationAdjust: set factor to 0.229
ElecMinimize: Iter:   9  F: -1771.306050141941796  |grad|_K:  1.285e-08  alpha:  3.883e-01  linmin: -2.840e-05  t[s]:   2133.00
ElecMinimize: Converged (|Delta F|<1.000000e-07 for 2 iters).
Setting wave functions to eigenvectors of Hamiltonian
Converging empty states (this may take a while): |deigs|: 2.014e-08

Computing DFT-D3 correction:
# coordination-number Ag 5.360 6.864 9.170 9.201 9.194 7.662 7.661 9.194 9.202 9.170 6.864 5.361
# diagonal-C6 Ag 268.61 268.61 268.61 268.61 268.61 268.61 268.61 268.61 268.61 268.61 268.61 268.61
EvdW_6 =   -0.068567
EvdW_8 =   -0.096159
IonicMinimize: 	Wolfe criterion not satisfied: alpha: 1  (E-E0)/|gdotd0|: -0.967732  gdotd/gdotd0: 0.937288 (taking cubic step)

Computing DFT-D3 correction:
# coordination-number Ag 5.363 6.850 9.162 9.197 9.185 7.653 7.652 9.185 9.198 9.161 6.850 5.363
# diagonal-C6 Ag 268.61 268.61 268.61 268.61 268.61 268.61 268.61 268.61 268.61 268.61 268.61 268.61
EvdW_6 =   -0.068553
EvdW_8 =   -0.096134

-------- Electronic minimization -----------
	FillingsUpdate:  mu: +0.115805938  nElectrons: 228.000000  magneticMoment: [ Abs: 0.00001  Tot: -0.00000 ]
ElecMinimize: Iter:   0  F: -1771.306173713915769  |grad|_K:  3.873e-07  alpha:  1.000e+00
	FillingsUpdate:  mu: +0.115297592  nElectrons: 228.000000  magneticMoment: [ Abs: 0.00001  Tot: -0.00000 ]
	SubspaceRotationAdjust: set factor to 0.322
ElecMinimize: Iter:   1  F: -1771.306205916947420  |grad|_K:  4.005e-07  alpha:  7.509e-01  linmin:  6.062e-07  t[s]:   2261.66
	FillingsUpdate:  mu: +0.115898478  nElectrons: 228.000000  magneticMoment: [ Abs: 0.00000  Tot: -0.00000 ]
	SubspaceRotationAdjust: set factor to 0.364
ElecMinimize: Iter:   2  F: -1771.306241375000354  |grad|_K:  4.408e-07  alpha:  7.731e-01  linmin: -9.519e-07  t[s]:   2308.40
	FillingsUpdate:  mu: +0.115845341  nElectrons: 228.000000  magneticMoment: [ Abs: 0.00000  Tot: -0.00000 ]
	SubspaceRotationAdjust: set factor to 0.321
ElecMinimize: Iter:   3  F: -1771.306263026076067  |grad|_K:  3.760e-07  alpha:  3.897e-01  linmin: -1.221e-07  t[s]:   2353.96
	FillingsUpdate:  mu: +0.115724165  nElectrons: 228.000000  magneticMoment: [ Abs: 0.00000  Tot: -0.00000 ]
	SubspaceRotationAdjust: set factor to 0.199
ElecMinimize: Iter:   4  F: -1771.306270927330388  |grad|_K:  2.532e-07  alpha:  1.955e-01  linmin: -2.205e-07  t[s]:   2399.62
	FillingsUpdate:  mu: +0.115705972  nElectrons: 228.000000  magneticMoment: [ Abs: 0.00000  Tot: -0.00000 ]
	SubspaceRotationAdjust: set factor to 0.208
ElecMinimize: Iter:   5  F: -1771.306276306997461  |grad|_K:  1.287e-07  alpha:  2.934e-01  linmin: -1.144e-07  t[s]:   2445.31
	FillingsUpdate:  mu: +0.115792507  nElectrons: 228.000000  magneticMoment: [ Abs: 0.00000  Tot: -0.00000 ]
	SubspaceRotationAdjust: set factor to 0.208
ElecMinimize: Iter:   6  F: -1771.306277962842159  |grad|_K:  8.140e-08  alpha:  3.497e-01  linmin:  4.404e-06  t[s]:   2491.05
	FillingsUpdate:  mu: +0.115800781  nElectrons: 228.000000  magneticMoment: [ Abs: 0.00000  Tot: -0.00000 ]
	SubspaceRotationAdjust: set factor to 0.157
ElecMinimize: Iter:   7  F: -1771.306278573768395  |grad|_K:  4.890e-08  alpha:  3.226e-01  linmin:  1.688e-06  t[s]:   2536.52
	FillingsUpdate:  mu: +0.115766331  nElectrons: 228.000000  magneticMoment: [ Abs: 0.00000  Tot: -0.00000 ]
	SubspaceRotationAdjust: set factor to 0.126
ElecMinimize: Iter:   8  F: -1771.306278800204382  |grad|_K:  3.257e-08  alpha:  3.313e-01  linmin:  1.459e-05  t[s]:   2583.09
	FillingsUpdate:  mu: +0.115753301  nElectrons: 228.000000  magneticMoment: [ Abs: 0.00000  Tot: -0.00000 ]
	SubspaceRotationAdjust: set factor to 0.152
ElecMinimize: Iter:   9  F: -1771.306278905400177  |grad|_K:  2.014e-08  alpha:  3.467e-01  linmin: -4.917e-05  t[s]:   2628.69
	FillingsUpdate:  mu: +0.115760050  nElectrons: 228.000000  magneticMoment: [ Abs: 0.00000  Tot: -0.00000 ]
	SubspaceRotationAdjust: set factor to 0.146
ElecMinimize: Iter:  10  F: -1771.306278950517026  |grad|_K:  1.324e-08  alpha:  3.899e-01  linmin:  2.044e-04  t[s]:   2674.06
	FillingsUpdate:  mu: +0.115762039  nElectrons: 228.000000  magneticMoment: [ Abs: 0.00000  Tot: -0.00000 ]
	SubspaceRotationAdjust: set factor to 0.154
ElecMinimize: Iter:  11  F: -1771.306278971701204  |grad|_K:  9.642e-09  alpha:  4.271e-01  linmin:  2.509e-04  t[s]:   2719.71
ElecMinimize: Converged (|Delta F|<1.000000e-07 for 2 iters).
Setting wave functions to eigenvectors of Hamiltonian
Converging empty states (this may take a while): |deigs|: 4.868e-08

Computing DFT-D3 correction:
# coordination-number Ag 5.363 6.850 9.162 9.197 9.185 7.653 7.652 9.185 9.198 9.161 6.850 5.363
# diagonal-C6 Ag 268.61 268.61 268.61 268.61 268.61 268.61 268.61 268.61 268.61 268.61 268.61 268.61
EvdW_6 =   -0.068553
EvdW_8 =   -0.096134

# Ionic positions in cartesian coordinates:
ion Ag  -0.000048156242516  -0.004151356229882  17.990453274718870 1
ion Ag   0.000000571099728   4.418636922244778   2.337191005271020 1
ion Ag   0.000042312596741   8.857113340882552   5.477886329041438 1
ion Ag  -0.000054025438358  -0.000368093654288   8.612906824308881 1
ion Ag   0.000002678080361   4.427942015362606  11.729472382550561 1
ion Ag   5.420478189441431   8.847741154818852  14.881523401805980 1
ion Ag   2.710183172031628   0.003635784374378   3.895390401375724 1
ion Ag   2.710224103661659   4.423982305520333   7.047626884493606 1
ion Ag   2.710271791088879   8.851740213302307  10.164256833199298 1
ion Ag   2.710178316591370  -0.005728818675197  13.299103858068198 1
ion Ag   2.710230010096152   4.433398964114530  16.439705851339575 1
ion Ag   2.710276036992928   8.855365567939030   0.786337953826860 1

# Forces in Cartesian coordinates:
force Ag  -0.000015152962494  -0.001060866622239  -0.001282305719346 1
force Ag   0.000003670600051  -0.001797490704594  -0.002847584192095 1
force Ag   0.000014187302359   0.001525980475593   0.000252609656057 1
force Ag  -0.000015707740871  -0.000074457760599   0.001509205827696 1
force Ag   0.000002686696450   0.000681476687167  -0.001133052955929 1
force Ag   0.000011073936097  -0.001180949067217   0.004634958428983 1
force Ag  -0.000013207610173   0.001139935602787  -0.004571258441998 1
force Ag  -0.000000762721609  -0.000589582083111   0.001227636257157 1
force Ag   0.000015001851522   0.000040613690861  -0.001411727068597 1
force Ag  -0.000014041681952  -0.001545253448448  -0.000169306336797 1
force Ag  -0.000000514367613   0.001916819900888   0.002898704324392 1
force Ag   0.000017896546756   0.000985723772319   0.001306725913457 1

# Energy components:
   Eewald =     8240.4046935125370510
       EH =     9838.5813036373838258
     Eloc =   -20128.5975183852460759
      Enl =       47.3301595973506295
     EvdW =       -0.1646869229818932
      Exc =     -173.8726831991791073
 Exc_core =        2.4980489098046612
       KE =      402.5147678237252080
-------------------------------------
     Etot =    -1771.3059150266055894
       TS =        0.0003639450955141
-------------------------------------
        F =    -1771.3062789717012038


Dumping 'jdft.fillings' ... done
Dumping 'jdft.wfns' ... done
Dumping 'jdft.ionpos' ... done
Dumping 'jdft.lattice' ... done
Dumping 'jdft.eigenvals' ... done
Dumping 'jdft.eigStats' ... 
	eMin: -3.267878 at state 0 ( [ +0.000000 +0.000000 +0.000000 ] spin 1 )
	HOMO: +0.115607 at state 45 ( [ -0.250000 +0.000000 +0.000000 ] spin 1 )
	mu  : +0.115762
	LUMO: +0.115909 at state 95 ( [ -0.416667 +0.000000 +0.000000 ] spin -1 )
	eMax: +0.429790 at state 32 ( [ +0.500000 +0.400000 +0.000000 ] spin 1 )
	HOMO-LUMO gap: +0.000303
	Optical gap  : +0.008368 at state 29 ( [ +0.416667 -0.200000 +0.000000 ] spin 1 )
Dumping 'jdft.Ecomponents' ... done
IonicMinimize: Iter:   1  F: -1771.306278971701204  |grad|_K:  1.551e-03  alpha:  3.000e+00  linmin: -9.936e-01  t[s]:   2766.35

#--- Lowdin population analysis ---
# oxidation-state Ag +0.089 +0.015 -0.040 -0.003 -0.006 -0.021 -0.022 -0.007 -0.002 -0.039 +0.015 +0.089
# magnetic-moments Ag -0.000 +0.000 +0.000 -0.000 -0.000 -0.000 +0.000 -0.000 -0.000 -0.000 -0.000 +0.000


Computing DFT-D3 correction:
# coordination-number Ag 5.425 6.774 9.082 9.110 9.063 7.588 7.585 9.063 9.112 9.080 6.773 5.426
# diagonal-C6 Ag 268.61 268.61 268.61 268.61 268.61 268.61 268.61 268.61 268.61 268.61 268.61 268.61
EvdW_6 =   -0.068354
EvdW_8 =   -0.095827

-------- Electronic minimization -----------
	FillingsUpdate:  mu: +0.237749093  nElectrons: 228.000000  magneticMoment: [ Abs: 0.00002  Tot: -0.00000 ]
ElecMinimize: Iter:   0  F: -1769.919666748456848  |grad|_K:  1.302e-04  alpha:  1.000e+00
	FillingsUpdate:  mu: +0.086435325  nElectrons: 228.000000  magneticMoment: [ Abs: 0.00007  Tot: -0.00000 ]
	SubspaceRotationAdjust: set factor to 0.148
ElecMinimize: Iter:   1  F: -1771.163276118326166  |grad|_K:  3.840e-05  alpha:  2.762e-01  linmin:  1.273e-02  t[s]:   2847.53
	FillingsUpdate:  mu: +0.092067669  nElectrons: 228.000000  magneticMoment: [ Abs: 0.00007  Tot: -0.00000 ]
	SubspaceRotationAdjust: set factor to 0.191
ElecMinimize: Iter:   2  F: -1771.263110842225160  |grad|_K:  1.200e-05  alpha:  2.531e-01  linmin: -1.379e-04  t[s]:   2893.39
	FillingsUpdate:  mu: +0.112236624  nElectrons: 228.000000  magneticMoment: [ Abs: 0.00007  Tot: -0.00000 ]
	SubspaceRotationAdjust: set factor to 0.253
ElecMinimize: Iter:   3  F: -1771.277308539723890  |grad|_K:  7.027e-06  alpha:  3.443e-01  linmin: -3.737e-05  t[s]:   2939.01
	FillingsUpdate:  mu: +0.119263623  nElectrons: 228.000000  magneticMoment: [ Abs: 0.00006  Tot: -0.00000 ]
	SubspaceRotationAdjust: set factor to 0.326
ElecMinimize: Iter:   4  F: -1771.284901173796698  |grad|_K:  7.492e-06  alpha:  5.371e-01  linmin: -1.709e-06  t[s]:   2984.72
	FillingsUpdate:  mu: +0.117075062  nElectrons: 228.000000  magneticMoment: [ Abs: 0.00005  Tot: -0.00000 ]
	SubspaceRotationAdjust: set factor to 0.412
ElecMinimize: Iter:   5  F: -1771.294604660240793  |grad|_K:  6.699e-06  alpha:  6.033e-01  linmin: -4.692e-05  t[s]:   3030.44
	FillingsUpdate:  mu: +0.120072733  nElectrons: 228.000000  magneticMoment: [ Abs: 0.00003  Tot: -0.00000 ]
	SubspaceRotationAdjust: set factor to 0.47
ElecMinimize: Iter:   6  F: -1771.301441314419890  |grad|_K:  5.698e-06  alpha:  5.271e-01  linmin:  5.619e-07  t[s]:   3076.03
	FillingsUpdate:  mu: +0.116157180  nElectrons: 228.000000  magneticMoment: [ Abs: 0.00002  Tot: -0.00000 ]
	SubspaceRotationAdjust: set factor to 0.494
ElecMinimize: Iter:   7  F: -1771.304929143114805  |grad|_K:  3.682e-06  alpha:  3.740e-01  linmin:  2.666e-06  t[s]:   3121.81
	FillingsUpdate:  mu: +0.114425595  nElectrons: 228.000000  magneticMoment: [ Abs: 0.00002  Tot: -0.00000 ]
	SubspaceRotationAdjust: set factor to 0.482
ElecMinimize: Iter:   8  F: -1771.306320685150240  |grad|_K:  2.196e-06  alpha:  3.592e-01  linmin: -2.369e-06  t[s]:   3167.20
	FillingsUpdate:  mu: +0.116577638  nElectrons: 228.000000  magneticMoment: [ Abs: 0.00001  Tot: -0.00000 ]
	SubspaceRotationAdjust: set factor to 0.475
ElecMinimize: Iter:   9  F: -1771.306798862455935  |grad|_K:  1.485e-06  alpha:  3.467e-01  linmin:  1.213e-06  t[s]:   3213.78
	FillingsUpdate:  mu: +0.115367054  nElectrons: 228.000000  magneticMoment: [ Abs: 0.00001  Tot: -0.00000 ]
	SubspaceRotationAdjust: set factor to 0.401
ElecMinimize: Iter:  10  F: -1771.307008280728496  |grad|_K:  1.389e-06  alpha:  3.320e-01  linmin:  1.636e-05  t[s]:   3259.44
	FillingsUpdate:  mu: +0.115084603  nElectrons: 228.000000  magneticMoment: [ Abs: 0.00001  Tot: -0.00000 ]
	SubspaceRotationAdjust: set factor to 0.285
ElecMinimize: Iter:  11  F: -1771.307087932259947  |grad|_K:  9.392e-07  alpha:  1.443e-01  linmin: -7.962e-06  t[s]:   3305.07
	FillingsUpdate:  mu: +0.115693914  nElectrons: 228.000000  magneticMoment: [ Abs: 0.00001  Tot: -0.00000 ]
	SubspaceRotationAdjust: set factor to 0.399
ElecMinimize: Iter:  12  F: -1771.307169208432697  |grad|_K:  6.334e-07  alpha:  3.221e-01  linmin: -3.652e-06  t[s]:   3350.84
	FillingsUpdate:  mu: +0.115730945  nElectrons: 228.000000  magneticMoment: [ Abs: 0.00000  Tot: -0.00000 ]
	SubspaceRotationAdjust: set factor to 0.381
ElecMinimize: Iter:  13  F: -1771.307209035915321  |grad|_K:  5.895e-07  alpha:  3.471e-01  linmin:  2.625e-07  t[s]:   3397.18
	FillingsUpdate:  mu: +0.115564833  nElectrons: 228.000000  magneticMoment: [ Abs: 0.00000  Tot: -0.00000 ]
	SubspaceRotationAdjust: set factor to 0.297
ElecMinimize: Iter:  14  F: -1771.307228680066828  |grad|_K:  4.856e-07  alpha:  1.977e-01  linmin: -2.430e-09  t[s]:   3443.78
	FillingsUpdate:  mu: +0.115421551  nElectrons: 228.000000  magneticMoment: [ Abs: 0.00000  Tot: -0.00000 ]
	SubspaceRotationAdjust: set factor to 0.366
ElecMinimize: Iter:  15  F: -1771.307248903478921  |grad|_K:  3.156e-07  alpha:  2.999e-01  linmin: -1.362e-06  t[s]:   3490.46
	FillingsUpdate:  mu: +0.115662121  nElectrons: 228.000000  magneticMoment: [ Abs: 0.00000  Tot: -0.00000 ]
	SubspaceRotationAdjust: set factor to 0.374
ElecMinimize: Iter:  16  F: -1771.307260462138174  |grad|_K:  2.759e-07  alpha:  4.057e-01  linmin: -9.134e-07  t[s]:   3536.81
	FillingsUpdate:  mu: +0.115709978  nElectrons: 228.000000  magneticMoment: [ Abs: 0.00000  Tot: -0.00000 ]
	SubspaceRotationAdjust: set factor to 0.255
ElecMinimize: Iter:  17  F: -1771.307264491401838  |grad|_K:  2.081e-07  alpha:  1.851e-01  linmin:  3.742e-07  t[s]:   3583.04
	FillingsUpdate:  mu: +0.115641717  nElectrons: 228.000000  magneticMoment: [ Abs: 0.00000  Tot: -0.00000 ]
	SubspaceRotationAdjust: set factor to 0.255
ElecMinimize: Iter:  18  F: -1771.307268211817473  |grad|_K:  1.288e-07  alpha:  3.004e-01  linmin: -1.421e-07  t[s]:   3629.14
	FillingsUpdate:  mu: +0.115627547  nElectrons: 228.000000  magneticMoment: [ Abs: 0.00000  Tot: -0.00000 ]
	SubspaceRotationAdjust: set factor to 0.258
ElecMinimize: Iter:  19  F: -1771.307269871487961  |grad|_K:  9.164e-08  alpha:  3.496e-01  linmin: -8.232e-07  t[s]:   3675.20
	FillingsUpdate:  mu: +0.115636983  nElectrons: 228.000000  magneticMoment: [ Abs: 0.00000  Tot: +0.00000 ]
	SubspaceRotationAdjust: set factor to 0.197
ElecMinimize: Iter:  20  F: -1771.307270550330713  |grad|_K:  6.682e-08  alpha:  2.827e-01  linmin:  1.143e-06  t[s]:   3721.31
	FillingsUpdate:  mu: +0.115641587  nElectrons: 228.000000  magneticMoment: [ Abs: 0.00000  Tot: +0.00000 ]
	SubspaceRotationAdjust: set factor to 0.184
ElecMinimize: Iter:  21  F: -1771.307270926283763  |grad|_K:  4.322e-08  alpha:  2.946e-01  linmin:  2.704e-06  t[s]:   3767.21
	FillingsUpdate:  mu: +0.115635682  nElectrons: 228.000000  magneticMoment: [ Abs: 0.00000  Tot: +0.00000 ]
	SubspaceRotationAdjust: set factor to 0.211
ElecMinimize: Iter:  22  F: -1771.307271114679907  |grad|_K:  3.050e-08  alpha:  3.527e-01  linmin: -4.176e-05  t[s]:   3813.92
	FillingsUpdate:  mu: +0.115627473  nElectrons: 228.000000  magneticMoment: [ Abs: 0.00000  Tot: +0.00000 ]
	SubspaceRotationAdjust: set factor to 0.201
ElecMinimize: Iter:  23  F: -1771.307271204611652  |grad|_K:  2.219e-08  alpha:  3.379e-01  linmin: -2.135e-05  t[s]:   3859.86
	FillingsUpdate:  mu: +0.115629890  nElectrons: 228.000000  magneticMoment: [ Abs: 0.00000  Tot: +0.00000 ]
	SubspaceRotationAdjust: set factor to 0.229
ElecMinimize: Iter:  24  F: -1771.307271254022226  |grad|_K:  1.657e-08  alpha:  3.506e-01  linmin:  7.613e-06  t[s]:   3905.88
ElecMinimize: Converged (|Delta F|<1.000000e-07 for 2 iters).
Setting wave functions to eigenvectors of Hamiltonian
Converging empty states (this may take a while): |deigs|: 5.456e-06

Computing DFT-D3 correction:
# coordination-number Ag 5.425 6.774 9.082 9.110 9.063 7.588 7.585 9.063 9.112 9.080 6.773 5.426
# diagonal-C6 Ag 268.61 268.61 268.61 268.61 268.61 268.61 268.61 268.61 268.61 268.61 268.61 268.61
EvdW_6 =   -0.068354
EvdW_8 =   -0.095827

# Ionic positions in cartesian coordinates:
ion Ag  -0.000464614883777  -0.021798242959852  17.955925956591535 1
ion Ag   0.000205778566828   4.390151797120704   2.273215823892966 1
ion Ag   0.000412819794974   8.887130822403025   5.476099892845349 1
ion Ag  -0.000433223369380  -0.000857482859379   8.624452036025097 1
ion Ag   0.000117039065557   4.445117462412666  11.729730903122892 1
ion Ag   5.420784289090633   8.818011693782578  14.977001490651000 1
ion Ag   2.709789678914837   0.032466831064513   3.800100252805291 1
ion Ag   2.710132327541951   4.407572918923910   7.047253246783310 1
ion Ag   2.710614408612079   8.851861088457483  10.152680905671870 1
ion Ag   2.709791084608630  -0.035316164082172  13.301404198387379 1
ion Ag   2.710080440840757   4.463047812980139  16.503972365907764 1
ion Ag   2.710754971216911   8.871919462756384   0.820017927315560 1

# Forces in Cartesian coordinates:
force Ag  -0.000013187896737   0.000285174622485   0.000079237712521 1
force Ag   0.000001348419360   0.000860438391541  -0.001417121002408 1
force Ag   0.000005083569324   0.000157155389889   0.000241598362588 1
force Ag  -0.000004554120094   0.000308267798007  -0.000629186465784 1
force Ag  -0.000000662097210  -0.000308850631367   0.000676289684641 1
force Ag   0.000013238977337  -0.000130634007839   0.000792495175858 1
force Ag  -0.000006499531029   0.000102755080937  -0.000848294780955 1
force Ag   0.000000566339587   0.000318273551826  -0.000732993424983 1
force Ag   0.000005517553004  -0.000281784569080   0.000602340476079 1
force Ag  -0.000001851245168  -0.000115007941257  -0.000317023493999 1
force Ag  -0.000002506421267  -0.000932329420953   0.001403758791811 1
force Ag   0.000016569882520  -0.000228342943135  -0.000074118942662 1

# Energy components:
   Eewald =     8201.0304451687006804
       EH =     9799.2495199220484210
     Eloc =   -20049.8815513611516508
      Enl =       47.3317976534818712
     EvdW =       -0.1641816470641888
      Exc =     -173.8622407926841333
 Exc_core =        2.4980487362339825
       KE =      402.4912512336877626
-------------------------------------
     Etot =    -1771.3069110867490963
       TS =        0.0003601672730791
-------------------------------------
        F =    -1771.3072712540222255


Dumping 'jdft.fillings' ... done
Dumping 'jdft.wfns' ... done
Dumping 'jdft.ionpos' ... done
Dumping 'jdft.lattice' ... done
Dumping 'jdft.eigenvals' ... done
Dumping 'jdft.eigStats' ... 
	eMin: -3.267632 at state 0 ( [ +0.000000 +0.000000 +0.000000 ] spin 1 )
	HOMO: +0.115596 at state 15 ( [ +0.250000 +0.000000 +0.000000 ] spin 1 )
	mu  : +0.115630
	LUMO: +0.115862 at state 80 ( [ +0.333333 +0.000000 +0.000000 ] spin -1 )
	eMax: +0.429908 at state 33 ( [ +0.500000 -0.400000 +0.000000 ] spin 1 )
	HOMO-LUMO gap: +0.000266
	Optical gap  : +0.002596 at state 80 ( [ +0.333333 +0.000000 +0.000000 ] spin -1 )
Dumping 'jdft.Ecomponents' ... done
IonicMinimize: Iter:   2  F: -1771.307271254022226  |grad|_K:  5.117e-04  alpha:  9.858e-01  linmin: -4.512e-01  t[s]:   4000.53

#--- Lowdin population analysis ---
# oxidation-state Ag +0.085 +0.016 -0.038 -0.002 -0.004 -0.023 -0.023 -0.004 -0.003 -0.038 +0.016 +0.086
# magnetic-moments Ag -0.000 +0.000 -0.000 +0.000 +0.000 +0.000 -0.000 -0.000 +0.000 +0.000 -0.000 +0.000


Computing DFT-D3 correction:
# coordination-number Ag 5.460 6.745 9.054 9.062 8.999 7.535 7.534 8.998 9.064 9.051 6.745 5.461
# diagonal-C6 Ag 268.61 268.61 268.61 268.61 268.61 268.61 268.61 268.61 268.61 268.61 268.61 268.61
EvdW_6 =   -0.068210
EvdW_8 =   -0.095609

-------- Electronic minimization -----------
	FillingsUpdate:  mu: +0.178957304  nElectrons: 228.000000  magneticMoment: [ Abs: 0.00001  Tot: +0.00000 ]
ElecMinimize: Iter:   0  F: -1771.033087344905198  |grad|_K:  5.851e-05  alpha:  1.000e+00
	FillingsUpdate:  mu: +0.095664298  nElectrons: 228.000000  magneticMoment: [ Abs: 0.00003  Tot: +0.00000 ]
	SubspaceRotationAdjust: set factor to 0.18
ElecMinimize: Iter:   1  F: -1771.278687335318637  |grad|_K:  1.532e-05  alpha:  2.529e-01  linmin:  9.452e-04  t[s]:   4082.87
	FillingsUpdate:  mu: +0.104151440  nElectrons: 228.000000  magneticMoment: [ Abs: 0.00003  Tot: +0.00000 ]
	SubspaceRotationAdjust: set factor to 0.285
ElecMinimize: Iter:   2  F: -1771.298548795830584  |grad|_K:  5.549e-06  alpha:  2.981e-01  linmin: -3.499e-05  t[s]:   4128.87
	FillingsUpdate:  mu: +0.114078924  nElectrons: 228.000000  magneticMoment: [ Abs: 0.00003  Tot: +0.00000 ]
	SubspaceRotationAdjust: set factor to 0.366
ElecMinimize: Iter:   3  F: -1771.301790304160477  |grad|_K:  3.511e-06  alpha:  3.679e-01  linmin: -1.234e-05  t[s]:   4175.03
	FillingsUpdate:  mu: +0.118887980  nElectrons: 228.000000  magneticMoment: [ Abs: 0.00002  Tot: +0.00000 ]
	SubspaceRotationAdjust: set factor to 0.455
ElecMinimize: Iter:   4  F: -1771.303860897079403  |grad|_K:  3.716e-06  alpha:  5.874e-01  linmin:  4.214e-06  t[s]:   4221.10
	FillingsUpdate:  mu: +0.115369440  nElectrons: 228.000000  magneticMoment: [ Abs: 0.00002  Tot: +0.00000 ]
	SubspaceRotationAdjust: set factor to 0.5
ElecMinimize: Iter:   5  F: -1771.305570746253125  |grad|_K:  3.300e-06  alpha:  4.342e-01  linmin: -3.973e-06  t[s]:   4267.20
	FillingsUpdate:  mu: +0.115801086  nElectrons: 228.000000  magneticMoment: [ Abs: 0.00001  Tot: +0.00000 ]
	SubspaceRotationAdjust: set factor to 0.384
ElecMinimize: Iter:   6  F: -1771.306242964756166  |grad|_K:  3.375e-06  alpha:  2.160e-01  linmin:  2.118e-06  t[s]:   4313.43
	FillingsUpdate:  mu: +0.117161486  nElectrons: 228.000000  magneticMoment: [ Abs: 0.00001  Tot: +0.00000 ]
	SubspaceRotationAdjust: set factor to 0.27
ElecMinimize: Iter:   7  F: -1771.306894945087379  |grad|_K:  1.766e-06  alpha:  2.002e-01  linmin:  2.822e-06  t[s]:   4359.60
	FillingsUpdate:  mu: +0.115879222  nElectrons: 228.000000  magneticMoment: [ Abs: 0.00001  Tot: +0.00000 ]
	SubspaceRotationAdjust: set factor to 0.258
ElecMinimize: Iter:   8  F: -1771.307229143268160  |grad|_K:  1.115e-06  alpha:  3.752e-01  linmin:  4.356e-06  t[s]:   4406.65
	FillingsUpdate:  mu: +0.115376957  nElectrons: 228.000000  magneticMoment: [ Abs: 0.00000  Tot: +0.00000 ]
	SubspaceRotationAdjust: set factor to 0.236
ElecMinimize: Iter:   9  F: -1771.307344996428128  |grad|_K:  6.336e-07  alpha:  3.263e-01  linmin: -8.355e-07  t[s]:   4452.77
	FillingsUpdate:  mu: +0.115604715  nElectrons: 228.000000  magneticMoment: [ Abs: 0.00000  Tot: +0.00000 ]
	SubspaceRotationAdjust: set factor to 0.215
ElecMinimize: Iter:  10  F: -1771.307387712031186  |grad|_K:  4.319e-07  alpha:  3.721e-01  linmin:  1.726e-06  t[s]:   4498.92
	FillingsUpdate:  mu: +0.115652172  nElectrons: 228.000000  magneticMoment: [ Abs: 0.00000  Tot: +0.00000 ]
	SubspaceRotationAdjust: set factor to 0.199
ElecMinimize: Iter:  11  F: -1771.307405215639392  |grad|_K:  2.841e-07  alpha:  3.282e-01  linmin:  1.815e-06  t[s]:   4544.99
	FillingsUpdate:  mu: +0.115565201  nElectrons: 228.000000  magneticMoment: [ Abs: 0.00000  Tot: +0.00000 ]
	SubspaceRotationAdjust: set factor to 0.221
ElecMinimize: Iter:  12  F: -1771.307413942622134  |grad|_K:  2.028e-07  alpha:  3.781e-01  linmin: -9.461e-07  t[s]:   4591.44
	FillingsUpdate:  mu: +0.115491649  nElectrons: 228.000000  magneticMoment: [ Abs: 0.00000  Tot: +0.00000 ]
	SubspaceRotationAdjust: set factor to 0.287
ElecMinimize: Iter:  13  F: -1771.307418846163728  |grad|_K:  1.623e-07  alpha:  4.171e-01  linmin:  2.761e-07  t[s]:   4637.43
	FillingsUpdate:  mu: +0.115467376  nElectrons: 228.000000  magneticMoment: [ Abs: 0.00000  Tot: +0.00000 ]
	SubspaceRotationAdjust: set factor to 0.359
ElecMinimize: Iter:  14  F: -1771.307422648159218  |grad|_K:  1.476e-07  alpha:  5.051e-01  linmin: -4.819e-07  t[s]:   4683.82
	FillingsUpdate:  mu: +0.115524641  nElectrons: 228.000000  magneticMoment: [ Abs: 0.00000  Tot: +0.00000 ]
	SubspaceRotationAdjust: set factor to 0.326
ElecMinimize: Iter:  15  F: -1771.307425138201779  |grad|_K:  1.659e-07  alpha:  3.999e-01  linmin:  1.316e-07  t[s]:   4729.92
	FillingsUpdate:  mu: +0.115563996  nElectrons: 228.000000  magneticMoment: [ Abs: 0.00000  Tot: +0.00000 ]
	SubspaceRotationAdjust: set factor to 0.251
ElecMinimize: Iter:  16  F: -1771.307427046617249  |grad|_K:  1.158e-07  alpha:  2.424e-01  linmin:  1.067e-07  t[s]:   4776.04
	FillingsUpdate:  mu: +0.115527316  nElectrons: 228.000000  magneticMoment: [ Abs: 0.00000  Tot: +0.00000 ]
	SubspaceRotationAdjust: set factor to 0.243
ElecMinimize: Iter:  17  F: -1771.307428510511500  |grad|_K:  8.189e-08  alpha:  3.821e-01  linmin: -2.654e-07  t[s]:   4822.15
	FillingsUpdate:  mu: +0.115523027  nElectrons: 228.000000  magneticMoment: [ Abs: 0.00000  Tot: +0.00000 ]
	SubspaceRotationAdjust: set factor to 0.25
ElecMinimize: Iter:  18  F: -1771.307429263525137  |grad|_K:  5.608e-08  alpha:  3.927e-01  linmin: -1.766e-06  t[s]:   4868.32
	FillingsUpdate:  mu: +0.115539856  nElectrons: 228.000000  magneticMoment: [ Abs: 0.00000  Tot: -0.00000 ]
	SubspaceRotationAdjust: set factor to 0.246
ElecMinimize: Iter:  19  F: -1771.307429600761225  |grad|_K:  3.774e-08  alpha:  3.749e-01  linmin: -5.965e-06  t[s]:   4914.48
	FillingsUpdate:  mu: +0.115534080  nElectrons: 228.000000  magneticMoment: [ Abs: 0.00000  Tot: -0.00000 ]
	SubspaceRotationAdjust: set factor to 0.219
ElecMinimize: Iter:  20  F: -1771.307429747644392  |grad|_K:  2.981e-08  alpha:  3.609e-01  linmin:  3.262e-05  t[s]:   4960.61
	FillingsUpdate:  mu: +0.115527365  nElectrons: 228.000000  magneticMoment: [ Abs: 0.00000  Tot: -0.00000 ]
	SubspaceRotationAdjust: set factor to 0.207
ElecMinimize: Iter:  21  F: -1771.307429828619433  |grad|_K:  2.067e-08  alpha:  3.195e-01  linmin:  3.600e-05  t[s]:   5008.24
	FillingsUpdate:  mu: +0.115530398  nElectrons: 228.000000  magneticMoment: [ Abs: 0.00000  Tot: -0.00000 ]
	SubspaceRotationAdjust: set factor to 0.272
ElecMinimize: Iter:  22  F: -1771.307429877806726  |grad|_K:  1.521e-08  alpha:  4.044e-01  linmin:  8.073e-05  t[s]:   5054.28
ElecMinimize: Converged (|Delta F|<1.000000e-07 for 2 iters).
Setting wave functions to eigenvectors of Hamiltonian
Converging empty states (this may take a while): |deigs|: 6.509e-07

Computing DFT-D3 correction:
# coordination-number Ag 5.460 6.745 9.054 9.062 8.999 7.535 7.534 8.998 9.064 9.051 6.745 5.461
# diagonal-C6 Ag 268.61 268.61 268.61 268.61 268.61 268.61 268.61 268.61 268.61 268.61 268.61 268.61
EvdW_6 =   -0.068210
EvdW_8 =   -0.095609

# Ionic positions in cartesian coordinates:
ion Ag  -0.000835089193225  -0.019447746877921  17.952575522542393 1
ion Ag   0.000233066434848   4.402354563971732   2.232175498798331 1
ion Ag   0.000555867376247   8.896039579057398   5.482049626540310 1
ion Ag  -0.000617642366256   0.005462161189378   8.615603562316899 1
ion Ag   0.000092730564731   4.441206619462149  11.741912010618664 1
ion Ag   5.421090183219004   8.810348909281863  15.011635400873319 1
ion Ag   2.709568434942028   0.039234261490688   3.765068156421881 1
ion Ag   2.710112036536857   4.411810052599891   7.034705220612988 1
ion Ag   2.710766700667505   8.845862745746128  10.161813969011339 1
ion Ag   2.709667813033849  -0.043479324285809  13.294704315038043 1
ion Ag   2.709990967228897   4.449522371687740  16.545500652271059 1
ion Ag   2.711159931555517   8.870393806676761   0.824111064954784 1

# Forces in Cartesian coordinates:
force Ag  -0.000009025377431  -0.000108837972454   0.000308322774406 1
force Ag  -0.000000342454771   0.000252148926018  -0.000242780447537 1
force Ag   0.000004497303525   0.000148668702818   0.000007283874631 1
force Ag  -0.000001593228037   0.000151490012676  -0.000742402175549 1
force Ag  -0.000002669179781  -0.000137880445720   0.000698257246244 1
force Ag   0.000004471811239  -0.000473154389059   0.000026581146575 1
force Ag  -0.000002176903569   0.000498258002273  -0.000011971510814 1
force Ag   0.000002957002207   0.000157011279817  -0.000698775318092 1
force Ag   0.000003172283050  -0.000144932211897   0.000717429590338 1
force Ag  -0.000001161147432  -0.000139245789278   0.000033293919491 1
force Ag   0.000001809707580  -0.000223808428461   0.000246250016483 1
force Ag   0.000011965428602   0.000081958215098  -0.000348250101878 1

# Energy components:
   Eewald =     8176.1402280030570182
       EH =     9774.3724553934771393
     Eloc =   -20000.1099651934637222
      Enl =       47.3342432759257719
     EvdW =       -0.1638194770537746
      Exc =     -173.8565300188672893
 Exc_core =        2.4980483092758408
       KE =      402.4782711128509618
-------------------------------------
     Etot =    -1771.3070685947991478
       TS =        0.0003612830075891
-------------------------------------
        F =    -1771.3074298778067259


Dumping 'jdft.fillings' ... done
Dumping 'jdft.wfns' ... done
Dumping 'jdft.ionpos' ... done
Dumping 'jdft.lattice' ... done
Dumping 'jdft.eigenvals' ... done
Dumping 'jdft.eigStats' ... 
	eMin: -3.267602 at state 0 ( [ +0.000000 +0.000000 +0.000000 ] spin 1 )
	HOMO: +0.114821 at state 35 ( [ -0.416667 +0.000000 +0.000000 ] spin 1 )
	mu  : +0.115530
	LUMO: +0.115590 at state 45 ( [ -0.250000 +0.000000 +0.000000 ] spin 1 )
	eMax: +0.429814 at state 33 ( [ +0.500000 -0.400000 +0.000000 ] spin 1 )
	HOMO-LUMO gap: +0.000769
	Optical gap  : +0.001550 at state 45 ( [ -0.250000 +0.000000 +0.000000 ] spin 1 )
Dumping 'jdft.Ecomponents' ... done
IonicMinimize: Iter:   3  F: -1771.307429877806726  |grad|_K:  2.941e-04  alpha:  1.000e+00  linmin: -4.537e-01  t[s]:   5112.50

#--- Lowdin population analysis ---
# oxidation-state Ag +0.084 +0.016 -0.038 -0.003 -0.003 -0.022 -0.022 -0.003 -0.003 -0.038 +0.016 +0.084
# magnetic-moments Ag -0.000 -0.000 -0.000 +0.000 +0.000 +0.000 -0.000 -0.000 -0.000 +0.000 +0.000 +0.000


Computing DFT-D3 correction:
# coordination-number Ag 5.445 6.742 8.995 9.014 8.950 7.538 7.535 8.950 9.018 8.991 6.740 5.444
# diagonal-C6 Ag 268.61 268.61 268.61 268.61 268.61 268.61 268.61 268.61 268.61 268.61 268.61 268.61
EvdW_6 =   -0.068077
EvdW_8 =   -0.095405

-------- Electronic minimization -----------
	FillingsUpdate:  mu: +0.174462500  nElectrons: 228.000000  magneticMoment: [ Abs: 0.00001  Tot: -0.00000 ]
ElecMinimize: Iter:   0  F: -1771.073575024584898  |grad|_K:  5.428e-05  alpha:  1.000e+00
	FillingsUpdate:  mu: +0.094074265  nElectrons: 228.000000  magneticMoment: [ Abs: 0.00003  Tot: +0.00000 ]
	SubspaceRotationAdjust: set factor to 0.196
ElecMinimize: Iter:   1  F: -1771.281491192067961  |grad|_K:  1.432e-05  alpha:  2.456e-01  linmin: -6.042e-04  t[s]:   5194.33
	FillingsUpdate:  mu: +0.107491025  nElectrons: 228.000000  magneticMoment: [ Abs: 0.00003  Tot: -0.00000 ]
	SubspaceRotationAdjust: set factor to 0.326
ElecMinimize: Iter:   2  F: -1771.299915776810394  |grad|_K:  5.037e-06  alpha:  3.125e-01  linmin: -1.013e-04  t[s]:   5240.27
	FillingsUpdate:  mu: +0.114934065  nElectrons: 228.000000  magneticMoment: [ Abs: 0.00003  Tot: -0.00000 ]
	SubspaceRotationAdjust: set factor to 0.413
ElecMinimize: Iter:   3  F: -1771.302663888721781  |grad|_K:  3.446e-06  alpha:  3.781e-01  linmin: -8.473e-06  t[s]:   5286.43
	FillingsUpdate:  mu: +0.118005223  nElectrons: 228.000000  magneticMoment: [ Abs: 0.00002  Tot: -0.00000 ]
	SubspaceRotationAdjust: set factor to 0.458
ElecMinimize: Iter:   4  F: -1771.304553362305114  |grad|_K:  3.683e-06  alpha:  5.562e-01  linmin: -2.598e-06  t[s]:   5332.55
	FillingsUpdate:  mu: +0.115854465  nElectrons: 228.000000  magneticMoment: [ Abs: 0.00002  Tot: -0.00000 ]
	SubspaceRotationAdjust: set factor to 0.342
ElecMinimize: Iter:   5  F: -1771.305710975955890  |grad|_K:  3.954e-06  alpha:  2.986e-01  linmin:  1.372e-06  t[s]:   5378.88
	FillingsUpdate:  mu: +0.114680717  nElectrons: 228.000000  magneticMoment: [ Abs: 0.00001  Tot: -0.00000 ]
	SubspaceRotationAdjust: set factor to 0.245
ElecMinimize: Iter:   6  F: -1771.306485217286763  |grad|_K:  2.366e-06  alpha:  1.734e-01  linmin:  6.665e-07  t[s]:   5425.04
	FillingsUpdate:  mu: +0.117322648  nElectrons: 228.000000  magneticMoment: [ Abs: 0.00001  Tot: -0.00000 ]
	SubspaceRotationAdjust: set factor to 0.273
ElecMinimize: Iter:   7  F: -1771.307077615588241  |grad|_K:  1.470e-06  alpha:  3.700e-01  linmin: -2.568e-06  t[s]:   5471.31
	FillingsUpdate:  mu: +0.116688186  nElectrons: 228.000000  magneticMoment: [ Abs: 0.00000  Tot: -0.00000 ]
	SubspaceRotationAdjust: set factor to 0.268
ElecMinimize: Iter:   8  F: -1771.307313549137461  |grad|_K:  1.118e-06  alpha:  3.819e-01  linmin:  2.045e-06  t[s]:   5517.54
	FillingsUpdate:  mu: +0.115722888  nElectrons: 228.000000  magneticMoment: [ Abs: 0.00000  Tot: -0.00000 ]
	SubspaceRotationAdjust: set factor to 0.18
ElecMinimize: Iter:   9  F: -1771.307394578449930  |grad|_K:  6.515e-07  alpha:  2.269e-01  linmin: -1.425e-06  t[s]:   5563.71
	FillingsUpdate:  mu: +0.115398769  nElectrons: 228.000000  magneticMoment: [ Abs: 0.00000  Tot: -0.00000 ]
	SubspaceRotationAdjust: set factor to 0.173
ElecMinimize: Iter:  10  F: -1771.307432015948052  |grad|_K:  4.085e-07  alpha:  3.084e-01  linmin:  1.305e-06  t[s]:   5611.08
	FillingsUpdate:  mu: +0.115646120  nElectrons: 228.000000  magneticMoment: [ Abs: 0.00000  Tot: -0.00000 ]
	SubspaceRotationAdjust: set factor to 0.185
ElecMinimize: Iter:  11  F: -1771.307449263033732  |grad|_K:  2.555e-07  alpha:  3.615e-01  linmin:  5.624e-08  t[s]:   5657.15
	FillingsUpdate:  mu: +0.115730985  nElectrons: 228.000000  magneticMoment: [ Abs: 0.00000  Tot: -0.00000 ]
	SubspaceRotationAdjust: set factor to 0.173
ElecMinimize: Iter:  12  F: -1771.307455509863075  |grad|_K:  1.699e-07  alpha:  3.347e-01  linmin:  9.405e-07  t[s]:   5703.34
	FillingsUpdate:  mu: +0.115632594  nElectrons: 228.000000  magneticMoment: [ Abs: 0.00000  Tot: -0.00000 ]
	SubspaceRotationAdjust: set factor to 0.207
ElecMinimize: Iter:  13  F: -1771.307458468770164  |grad|_K:  1.147e-07  alpha:  3.586e-01  linmin:  1.563e-06  t[s]:   5749.53
	FillingsUpdate:  mu: +0.115543305  nElectrons: 228.000000  magneticMoment: [ Abs: 0.00000  Tot: -0.00000 ]
	SubspaceRotationAdjust: set factor to 0.257
ElecMinimize: Iter:  14  F: -1771.307460092568363  |grad|_K:  9.494e-08  alpha:  4.318e-01  linmin:  2.164e-06  t[s]:   5795.82
	FillingsUpdate:  mu: +0.115558542  nElectrons: 228.000000  magneticMoment: [ Abs: 0.00000  Tot: -0.00000 ]
	SubspaceRotationAdjust: set factor to 0.286
ElecMinimize: Iter:  15  F: -1771.307461084508532  |grad|_K:  8.490e-08  alpha:  3.850e-01  linmin:  9.624e-08  t[s]:   5842.03
	FillingsUpdate:  mu: +0.115603520  nElectrons: 228.000000  magneticMoment: [ Abs: 0.00000  Tot: -0.00000 ]
	SubspaceRotationAdjust: set factor to 0.299
ElecMinimize: Iter:  16  F: -1771.307461950218794  |grad|_K:  7.989e-08  alpha:  4.201e-01  linmin: -8.878e-07  t[s]:   5888.80
	FillingsUpdate:  mu: +0.115580429  nElectrons: 228.000000  magneticMoment: [ Abs: 0.00000  Tot: -0.00000 ]
	SubspaceRotationAdjust: set factor to 0.313
ElecMinimize: Iter:  17  F: -1771.307462625730068  |grad|_K:  6.335e-08  alpha:  3.702e-01  linmin:  5.738e-07  t[s]:   5934.93
	FillingsUpdate:  mu: +0.115543256  nElectrons: 228.000000  magneticMoment: [ Abs: 0.00000  Tot: -0.00000 ]
	SubspaceRotationAdjust: set factor to 0.317
ElecMinimize: Iter:  18  F: -1771.307463085748850  |grad|_K:  4.802e-08  alpha:  4.010e-01  linmin: -1.712e-06  t[s]:   5981.00
	FillingsUpdate:  mu: +0.115575749  nElectrons: 228.000000  magneticMoment: [ Abs: 0.00000  Tot: -0.00000 ]
	SubspaceRotationAdjust: set factor to 0.297
ElecMinimize: Iter:  19  F: -1771.307463330959763  |grad|_K:  3.461e-08  alpha:  3.715e-01  linmin:  2.191e-06  t[s]:   6027.14
	FillingsUpdate:  mu: +0.115581766  nElectrons: 228.000000  magneticMoment: [ Abs: 0.00000  Tot: -0.00000 ]
	SubspaceRotationAdjust: set factor to 0.244
ElecMinimize: Iter:  20  F: -1771.307463437788556  |grad|_K:  2.655e-08  alpha:  3.118e-01  linmin: -9.136e-06  t[s]:   6073.07
	FillingsUpdate:  mu: +0.115568267  nElectrons: 228.000000  magneticMoment: [ Abs: 0.00000  Tot: -0.00000 ]
	SubspaceRotationAdjust: set factor to 0.193
ElecMinimize: Iter:  21  F: -1771.307463496063292  |grad|_K:  1.902e-08  alpha:  2.895e-01  linmin:  1.394e-05  t[s]:   6119.16
	FillingsUpdate:  mu: +0.115562943  nElectrons: 228.000000  magneticMoment: [ Abs: 0.00000  Tot: -0.00000 ]
	SubspaceRotationAdjust: set factor to 0.214
ElecMinimize: Iter:  22  F: -1771.307463528759172  |grad|_K:  1.257e-08  alpha:  3.160e-01  linmin:  4.653e-05  t[s]:   6165.09
ElecMinimize: Converged (|Delta F|<1.000000e-07 for 2 iters).
Setting wave functions to eigenvectors of Hamiltonian
Converging empty states (this may take a while): |deigs|: 9.558e-07

Computing DFT-D3 correction:
# coordination-number Ag 5.445 6.742 8.995 9.014 8.950 7.538 7.535 8.950 9.018 8.991 6.740 5.444
# diagonal-C6 Ag 268.61 268.61 268.61 268.61 268.61 268.61 268.61 268.61 268.61 268.61 268.61 268.61
EvdW_6 =   -0.068077
EvdW_8 =   -0.095405

# Ionic positions in cartesian coordinates:
ion Ag  -0.001331706527974  -0.028513937809755  17.961396627740960 1
ion Ag   0.000168053063097   4.405844964394652   2.207471917693146 1
ion Ag   0.000751801064532   8.908845466198786   5.485056578714619 1
ion Ag  -0.000796972001526   0.011764199645516   8.592886287851595 1
ion Ag  -0.000064859749109   4.436736944107054  11.763389756791810 1
ion Ag   5.421293857209823   8.786407489254136  15.033706961242004 1
ion Ag   2.709381801120896   0.063481982801925   3.743519112322420 1
ion Ag   2.710198241600765   4.417174341611029   7.013417813181356 1
ion Ag   2.710920530333857   8.839211510997325  10.183803611198844 1
ion Ag   2.709527649351931  -0.056502621799358  13.293328981200473 1
ion Ag   2.710033962691475   4.447232209842799  16.570266074646057 1
ion Ag   2.711702641842238   8.877625450755890   0.813611277416726 1

# Forces in Cartesian coordinates:
force Ag  -0.000000204072185  -0.000065661093329  -0.000112817138015 1
force Ag  -0.000000472022282   0.001059141534505  -0.000256304389362 1
force Ag   0.000002766439384   0.000070023436715  -0.000301486713539 1
force Ag   0.000001108956406   0.000043298173624   0.000437350380484 1
force Ag   0.000001687108866  -0.000734129923538  -0.000512513810072 1
force Ag  -0.000002700142712   0.000796779351852  -0.000040392249437 1
force Ag   0.000003035277804  -0.000781193040190  -0.000007710147645 1
force Ag   0.000000265964972   0.000670508063151   0.000519695488483 1
force Ag   0.000001593736645   0.000020996791751  -0.000358028330188 1
force Ag  -0.000001328924519   0.000005064896520   0.000147643320802 1
force Ag   0.000003958636948  -0.001112982413340   0.000280237916682 1
force Ag   0.000003404600486   0.000183913568873   0.000183978465695 1

# Energy components:
   Eewald =     8152.9103472823362608
       EH =     9751.1681487418227334
     Eloc =   -19953.6716290351287171
      Enl =       47.3367769823814513
     EvdW =       -0.1634813540939049
      Exc =     -173.8509382833589143
 Exc_core =        2.4980475954113741
       KE =      402.4656222659466493
-------------------------------------
     Etot =    -1771.3071058046841699
       TS =        0.0003577240749153
-------------------------------------
        F =    -1771.3074635287591718


Dumping 'jdft.fillings' ... done
Dumping 'jdft.wfns' ... done
Dumping 'jdft.ionpos' ... done
Dumping 'jdft.lattice' ... done
Dumping 'jdft.eigenvals' ... done
Dumping 'jdft.eigStats' ... 
	eMin: -3.267353 at state 0 ( [ +0.000000 +0.000000 +0.000000 ] spin 1 )
	HOMO: +0.114759 at state 95 ( [ -0.416667 +0.000000 +0.000000 ] spin -1 )
	mu  : +0.115563
	LUMO: +0.115577 at state 105 ( [ -0.250000 +0.000000 +0.000000 ] spin -1 )
	eMax: +0.429491 at state 33 ( [ +0.500000 -0.400000 +0.000000 ] spin 1 )
	HOMO-LUMO gap: +0.000818
	Optical gap  : +0.001784 at state 45 ( [ -0.250000 +0.000000 +0.000000 ] spin 1 )
Dumping 'jdft.Ecomponents' ... done
IonicMinimize: Iter:   4  F: -1771.307463528759172  |grad|_K:  4.012e-04  alpha:  1.000e+00  linmin:  2.846e-01  t[s]:   6232.52

#--- Lowdin population analysis ---
# oxidation-state Ag +0.083 +0.015 -0.037 -0.003 -0.002 -0.023 -0.023 -0.002 -0.003 -0.037 +0.016 +0.083
# magnetic-moments Ag -0.000 +0.000 -0.000 +0.000 +0.000 +0.000 -0.000 -0.000 -0.000 +0.000 -0.000 +0.000


Computing DFT-D3 correction:
# coordination-number Ag 5.461 6.733 9.012 9.010 8.945 7.522 7.521 8.944 9.012 9.010 6.732 5.461
# diagonal-C6 Ag 268.61 268.61 268.61 268.61 268.61 268.61 268.61 268.61 268.61 268.61 268.61 268.61
EvdW_6 =   -0.068064
EvdW_8 =   -0.095384

-------- Electronic minimization -----------
	FillingsUpdate:  mu: +0.115603130  nElectrons: 228.000000  magneticMoment: [ Abs: 0.00001  Tot: +0.00000 ]
ElecMinimize: Iter:   0  F: -1771.307404410747267  |grad|_K:  3.599e-07  alpha:  1.000e+00
	FillingsUpdate:  mu: +0.115494938  nElectrons: 228.000000  magneticMoment: [ Abs: 0.00001  Tot: +0.00000 ]
	SubspaceRotationAdjust: set factor to 0.299
ElecMinimize: Iter:   1  F: -1771.307429146666664  |grad|_K:  3.705e-07  alpha:  6.678e-01  linmin:  2.210e-08  t[s]:   6316.19
	FillingsUpdate:  mu: +0.115527335  nElectrons: 228.000000  magneticMoment: [ Abs: 0.00001  Tot: +0.00000 ]
	SubspaceRotationAdjust: set factor to 0.35
ElecMinimize: Iter:   2  F: -1771.307452253308384  |grad|_K:  4.181e-07  alpha:  5.887e-01  linmin:  4.851e-07  t[s]:   6362.58
	FillingsUpdate:  mu: +0.115591102  nElectrons: 228.000000  magneticMoment: [ Abs: 0.00000  Tot: +0.00000 ]
	SubspaceRotationAdjust: set factor to 0.35
ElecMinimize: Iter:   3  F: -1771.307476514551126  |grad|_K:  3.291e-07  alpha:  4.855e-01  linmin: -6.603e-07  t[s]:   6408.55
	FillingsUpdate:  mu: +0.115524174  nElectrons: 228.000000  magneticMoment: [ Abs: 0.00000  Tot: +0.00000 ]
	SubspaceRotationAdjust: set factor to 0.248
ElecMinimize: Iter:   4  F: -1771.307484476491709  |grad|_K:  2.881e-07  alpha:  2.571e-01  linmin:  1.419e-07  t[s]:   6454.62
	FillingsUpdate:  mu: +0.115478337  nElectrons: 228.000000  magneticMoment: [ Abs: 0.00000  Tot: +0.00000 ]
	SubspaceRotationAdjust: set factor to 0.176
ElecMinimize: Iter:   5  F: -1771.307489853013976  |grad|_K:  1.326e-07  alpha:  2.266e-01  linmin: -6.731e-07  t[s]:   6501.38
	FillingsUpdate:  mu: +0.115537987  nElectrons: 228.000000  magneticMoment: [ Abs: 0.00000  Tot: +0.00000 ]
	SubspaceRotationAdjust: set factor to 0.188
ElecMinimize: Iter:   6  F: -1771.307491837022326  |grad|_K:  8.166e-08  alpha:  3.947e-01  linmin: -3.380e-06  t[s]:   6547.53
	FillingsUpdate:  mu: +0.115541394  nElectrons: 228.000000  magneticMoment: [ Abs: 0.00000  Tot: +0.00000 ]
	SubspaceRotationAdjust: set factor to 0.176
ElecMinimize: Iter:   7  F: -1771.307492533449022  |grad|_K:  5.032e-08  alpha:  3.653e-01  linmin:  1.783e-05  t[s]:   6593.61
	FillingsUpdate:  mu: +0.115525654  nElectrons: 228.000000  magneticMoment: [ Abs: 0.00000  Tot: +0.00000 ]
	SubspaceRotationAdjust: set factor to 0.156
ElecMinimize: Iter:   8  F: -1771.307492795664984  |grad|_K:  3.378e-08  alpha:  3.625e-01  linmin: -1.147e-05  t[s]:   6639.81
	FillingsUpdate:  mu: +0.115525181  nElectrons: 228.000000  magneticMoment: [ Abs: 0.00000  Tot: +0.00000 ]
	SubspaceRotationAdjust: set factor to 0.168
ElecMinimize: Iter:   9  F: -1771.307492921104540  |grad|_K:  2.085e-08  alpha:  3.847e-01  linmin:  1.192e-04  t[s]:   6686.02
	FillingsUpdate:  mu: +0.115531370  nElectrons: 228.000000  magneticMoment: [ Abs: 0.00000  Tot: +0.00000 ]
	SubspaceRotationAdjust: set factor to 0.201
ElecMinimize: Iter:  10  F: -1771.307492975218565  |grad|_K:  1.500e-08  alpha:  4.379e-01  linmin:  1.560e-04  t[s]:   6732.39
	FillingsUpdate:  mu: +0.115530715  nElectrons: 228.000000  magneticMoment: [ Abs: 0.00000  Tot: +0.00000 ]
	SubspaceRotationAdjust: set factor to 0.23
ElecMinimize: Iter:  11  F: -1771.307493001055718  |grad|_K:  1.164e-08  alpha:  4.006e-01  linmin: -2.139e-04  t[s]:   6779.33
ElecMinimize: Converged (|Delta F|<1.000000e-07 for 2 iters).
Setting wave functions to eigenvectors of Hamiltonian
Converging empty states (this may take a while): |deigs|: 2.284e-08

Computing DFT-D3 correction:
# coordination-number Ag 5.461 6.733 9.012 9.010 8.945 7.522 7.521 8.944 9.012 9.010 6.732 5.461
# diagonal-C6 Ag 268.61 268.61 268.61 268.61 268.61 268.61 268.61 268.61 268.61 268.61 268.61 268.61
EvdW_6 =   -0.068064
EvdW_8 =   -0.095384

# Ionic positions in cartesian coordinates:
ion Ag  -0.001389067117339  -0.029926516148881  17.961553373587769 1
ion Ag   0.000145377617984   4.417204523630718   2.203524706208992 1
ion Ag   0.000784290247261   8.910214721379250   5.482190455674271 1
ion Ag  -0.000809390184562   0.012696228960963   8.594462090486866 1
ion Ag  -0.000075175535043   4.428620216278115  11.760883594739195 1
ion Ag   5.421271590463542   8.792183175620382  15.033961777669234 1
ion Ag   2.709387133870890   0.057656437248727   3.742876102316697 1
ion Ag   2.710198908876288   4.424448090914856   7.016041368620835 1
ion Ag   2.710936214199531   8.838641216312663  10.182969043366448 1
ion Ag   2.709493428381029  -0.057392390731025  13.294855288997290 1
ion Ag   2.710067391799647   4.435165519283482  16.574500120459245 1
ion Ag   2.711774297380773   8.879796777250752   0.814037077873173 1

# Forces in Cartesian coordinates:
force Ag  -0.000000378670331  -0.000240985725875   0.000110689845352 1
force Ag   0.000000172871668   0.000298042523803   0.000156539066694 1
force Ag   0.000002822530555   0.000142064123864   0.000084737571631 1
force Ag   0.000000576153022   0.000037383905505   0.000214490400190 1
force Ag   0.000002214185016  -0.000150752459939  -0.000096726414289 1
force Ag  -0.000001524355605  -0.000200998923477  -0.000057002963816 1
force Ag   0.000002187547817   0.000210135624484   0.000115654876616 1
force Ag   0.000000289775553   0.000186206233522   0.000231426296388 1
force Ag   0.000001650017513  -0.000046651120979  -0.000090429285914 1
force Ag  -0.000001576177802  -0.000103669197569  -0.000004404317168 1
force Ag   0.000002490693355  -0.000272846618590  -0.000089862925879 1
force Ag   0.000003330414021   0.000321337459062  -0.000064490594768 1

# Energy components:
   Eewald =     8151.4127182478614486
       EH =     9749.6731476124714391
     Eloc =   -19950.6785020315983274
      Enl =       47.3367894785061338
     EvdW =       -0.1634475579955892
      Exc =     -173.8506722077466407
 Exc_core =        2.4980476812851733
       KE =      402.4647877457439904
-------------------------------------
     Etot =    -1771.3071310314733182
       TS =        0.0003619695822992
-------------------------------------
        F =    -1771.3074930010557182


Dumping 'jdft.fillings' ... done
Dumping 'jdft.wfns' ... done
Dumping 'jdft.ionpos' ... done
Dumping 'jdft.lattice' ... done
Dumping 'jdft.eigenvals' ... done
Dumping 'jdft.eigStats' ... 
	eMin: -3.267427 at state 60 ( [ +0.000000 +0.000000 +0.000000 ] spin -1 )
	HOMO: +0.115520 at state 105 ( [ -0.250000 +0.000000 +0.000000 ] spin -1 )
	mu  : +0.115531
	LUMO: +0.115643 at state 36 ( [ -0.416667 +0.200000 +0.000000 ] spin 1 )
	eMax: +0.429481 at state 33 ( [ +0.500000 -0.400000 +0.000000 ] spin 1 )
	HOMO-LUMO gap: +0.000122
	Optical gap  : +0.002540 at state 100 ( [ -0.333333 +0.000000 +0.000000 ] spin -1 )
Dumping 'jdft.Ecomponents' ... done
IonicMinimize: Iter:   5  F: -1771.307493001055718  |grad|_K:  1.361e-04  alpha:  1.000e+00  linmin: -4.262e-01  t[s]:   6826.48

#--- Lowdin population analysis ---
# oxidation-state Ag +0.083 +0.015 -0.037 -0.003 -0.002 -0.022 -0.022 -0.002 -0.003 -0.037 +0.016 +0.083
# magnetic-moments Ag +0.000 -0.000 -0.000 -0.000 +0.000 +0.000 -0.000 -0.000 +0.000 +0.000 +0.000 -0.000


Computing DFT-D3 correction:
# coordination-number Ag 5.461 6.732 9.015 9.010 8.949 7.519 7.517 8.945 9.012 9.014 6.732 5.460
# diagonal-C6 Ag 268.61 268.61 268.61 268.61 268.61 268.61 268.61 268.61 268.61 268.61 268.61 268.61
EvdW_6 =   -0.068063
EvdW_8 =   -0.095383

-------- Electronic minimization -----------
	FillingsUpdate:  mu: +0.115501500  nElectrons: 228.000000  magneticMoment: [ Abs: 0.00000  Tot: +0.00000 ]
ElecMinimize: Iter:   0  F: -1771.307487206221367  |grad|_K:  1.896e-07  alpha:  1.000e+00
	FillingsUpdate:  mu: +0.115516005  nElectrons: 228.000000  magneticMoment: [ Abs: 0.00000  Tot: +0.00000 ]
	SubspaceRotationAdjust: set factor to 0.149
ElecMinimize: Iter:   1  F: -1771.307490252979505  |grad|_K:  1.625e-07  alpha:  2.966e-01  linmin:  1.961e-06  t[s]:   6910.49
	FillingsUpdate:  mu: +0.115525580  nElectrons: 228.000000  magneticMoment: [ Abs: 0.00000  Tot: +0.00000 ]
	SubspaceRotationAdjust: set factor to 0.179
ElecMinimize: Iter:   2  F: -1771.307493800848306  |grad|_K:  1.239e-07  alpha:  4.700e-01  linmin:  2.794e-06  t[s]:   6956.75
	FillingsUpdate:  mu: +0.115495197  nElectrons: 228.000000  magneticMoment: [ Abs: 0.00000  Tot: +0.00000 ]
	SubspaceRotationAdjust: set factor to 0.209
ElecMinimize: Iter:   3  F: -1771.307497348333982  |grad|_K:  1.333e-07  alpha:  8.084e-01  linmin:  1.844e-06  t[s]:   7003.08
	FillingsUpdate:  mu: +0.115513179  nElectrons: 228.000000  magneticMoment: [ Abs: 0.00000  Tot: +0.00000 ]
	SubspaceRotationAdjust: set factor to 0.21
ElecMinimize: Iter:   4  F: -1771.307499540620256  |grad|_K:  1.020e-07  alpha:  4.318e-01  linmin: -6.816e-08  t[s]:   7049.30
	FillingsUpdate:  mu: +0.115534767  nElectrons: 228.000000  magneticMoment: [ Abs: 0.00000  Tot: +0.00000 ]
	SubspaceRotationAdjust: set factor to 0.18
ElecMinimize: Iter:   5  F: -1771.307500717804487  |grad|_K:  6.269e-08  alpha:  3.959e-01  linmin: -2.588e-06  t[s]:   7095.46
	FillingsUpdate:  mu: +0.115525395  nElectrons: 228.000000  magneticMoment: [ Abs: 0.00000  Tot: +0.00000 ]
	SubspaceRotationAdjust: set factor to 0.149
[...]
force Ag   0.000003079044961  -0.000088448536164  -0.000360476826123 1
force Ag   0.000002824062711   0.000277165408296   0.000142784793576 1
force Ag   0.000009436049631  -0.000782892820130   0.000266254326685 1
force Ag  -0.000002090742774  -0.000010955416506   0.000144171811954 1
force Ag   0.000001196488238  -0.000334825861927  -0.000380162468817 1
force Ag  -0.000002327561401   0.000082219964551   0.000003055098658 1
force Ag   0.000008552872336   0.000087433058917  -0.000230320364362 1
force Ag   0.000000750485431   0.000653851096797   0.000247098958120 1
force Ag  -0.000016218644454   0.000249966093915   0.000454363233591 1

# Energy components:
   Eewald =     8133.2440512645698618
       EH =     9731.5735950852849783
     Eloc =   -19914.4079234344462748
      Enl =       47.3401814489100303
     EvdW =       -0.1631968834488589
      Exc =     -173.8465585845150372
 Exc_core =        2.4980499207965217
       KE =      402.4546132382030805
-------------------------------------
     Etot =    -1771.3071879446476942
       TS =        0.0003792005525513
-------------------------------------
        F =    -1771.3075671452002098


Dumping 'jdft.fillings' ... done
Dumping 'jdft.wfns' ... done
Dumping 'jdft.ionpos' ... done
Dumping 'jdft.lattice' ... done
Dumping 'jdft.eigenvals' ... done
Dumping 'jdft.eigStats' ... 
	eMin: -3.267198 at state 60 ( [ +0.000000 +0.000000 +0.000000 ] spin -1 )
	HOMO: +0.115482 at state 39 ( [ -0.416667 -0.200000 +0.000000 ] spin 1 )
	mu  : +0.115488
	LUMO: +0.116252 at state 80 ( [ +0.333333 +0.000000 +0.000000 ] spin -1 )
	eMax: +0.429431 at state 93 ( [ +0.500000 -0.400000 +0.000000 ] spin -1 )
	HOMO-LUMO gap: +0.000770
	Optical gap  : +0.002180 at state 40 ( [ -0.333333 +0.000000 +0.000000 ] spin 1 )
Dumping 'jdft.Ecomponents' ... done
IonicMinimize: Iter:   9  F: -1771.307567145200210  |grad|_K:  2.762e-04  alpha:  1.000e+00  linmin:  2.659e-01  t[s]:  10571.74

#--- Lowdin population analysis ---
# oxidation-state Ag +0.083 +0.015 -0.037 -0.002 -0.003 -0.022 -0.023 -0.003 -0.002 -0.037 +0.017 +0.082
# magnetic-moments Ag -0.000 -0.000 -0.000 -0.000 -0.000 +0.000 -0.000 -0.000 -0.000 -0.000 -0.000 -0.000


Computing DFT-D3 correction:
# coordination-number Ag 5.453 6.714 8.973 8.973 8.943 7.507 7.483 8.907 8.981 9.003 6.738 5.445
# diagonal-C6 Ag 268.61 268.61 268.61 268.61 268.61 268.61 268.61 268.61 268.61 268.61 268.61 268.61
EvdW_6 =   -0.067961
EvdW_8 =   -0.095274

-------- Electronic minimization -----------
	FillingsUpdate:  mu: +0.109483024  nElectrons: 228.000000  magneticMoment: [ Abs: 0.00001  Tot: -0.00000 ]
ElecMinimize: Iter:   0  F: -1771.112413798164425  |grad|_K:  4.643e-05  alpha:  1.000e+00
	FillingsUpdate:  mu: +0.118497414  nElectrons: 228.000000  magneticMoment: [ Abs: 0.00002  Tot: -0.00000 ]
	SubspaceRotationAdjust: set factor to 0.314
ElecMinimize: Iter:   1  F: -1771.282730954744011  |grad|_K:  1.524e-05  alpha:  2.781e-01  linmin:  6.799e-04  t[s]:  10653.72
	FillingsUpdate:  mu: +0.116742719  nElectrons: 228.000000  magneticMoment: [ Abs: 0.00002  Tot: -0.00000 ]
	SubspaceRotationAdjust: set factor to 0.26
ElecMinimize: Iter:   2  F: -1771.299903127027392  |grad|_K:  6.535e-06  alpha:  2.600e-01  linmin:  5.243e-06  t[s]:  10700.92
	FillingsUpdate:  mu: +0.116089483  nElectrons: 228.000000  magneticMoment: [ Abs: 0.00002  Tot: -0.00000 ]
	SubspaceRotationAdjust: set factor to 0.18
ElecMinimize: Iter:   3  F: -1771.302379665450189  |grad|_K:  4.378e-06  alpha:  2.028e-01  linmin:  3.193e-06  t[s]:  10747.09
	FillingsUpdate:  mu: +0.115643838  nElectrons: 228.000000  magneticMoment: [ Abs: 0.00002  Tot: -0.00000 ]
	SubspaceRotationAdjust: set factor to 0.257
ElecMinimize: Iter:   4  F: -1771.304395288254454  |grad|_K:  2.833e-06  alpha:  3.679e-01  linmin: -2.071e-07  t[s]:  10793.23
	FillingsUpdate:  mu: +0.115815987  nElectrons: 228.000000  magneticMoment: [ Abs: 0.00001  Tot: +0.00000 ]
	SubspaceRotationAdjust: set factor to 0.263
ElecMinimize: Iter:   5  F: -1771.305606708950108  |grad|_K:  2.794e-06  alpha:  5.278e-01  linmin:  2.867e-06  t[s]:  10839.38
	FillingsUpdate:  mu: +0.115740859  nElectrons: 228.000000  magneticMoment: [ Abs: 0.00001  Tot: +0.00000 ]
	SubspaceRotationAdjust: set factor to 0.22
ElecMinimize: Iter:   6  F: -1771.306285294260761  |grad|_K:  2.337e-06  alpha:  3.042e-01  linmin:  1.913e-07  t[s]:  10885.54
	FillingsUpdate:  mu: +0.115364992  nElectrons: 228.000000  magneticMoment: [ Abs: 0.00001  Tot: +0.00000 ]
	SubspaceRotationAdjust: set factor to 0.225
ElecMinimize: Iter:   7  F: -1771.306876792200910  |grad|_K:  1.884e-06  alpha:  3.787e-01  linmin:  1.900e-07  t[s]:  10931.71
	FillingsUpdate:  mu: +0.115176265  nElectrons: 228.000000  magneticMoment: [ Abs: 0.00001  Tot: +0.00000 ]
	SubspaceRotationAdjust: set factor to 0.267
ElecMinimize: Iter:   8  F: -1771.307298296226918  |grad|_K:  1.313e-06  alpha:  4.152e-01  linmin:  3.376e-06  t[s]:  10978.71
	FillingsUpdate:  mu: +0.115451797  nElectrons: 228.000000  magneticMoment: [ Abs: 0.00001  Tot: +0.00000 ]
	SubspaceRotationAdjust: set factor to 0.206
ElecMinimize: Iter:   9  F: -1771.307458613100152  |grad|_K:  9.801e-07  alpha:  3.257e-01  linmin: -2.984e-07  t[s]:  11025.34
	FillingsUpdate:  mu: +0.115520146  nElectrons: 228.000000  magneticMoment: [ Abs: 0.00001  Tot: +0.00000 ]
	SubspaceRotationAdjust: set factor to 0.147
ElecMinimize: Iter:  10  F: -1771.307529064091568  |grad|_K:  5.811e-07  alpha:  2.565e-01  linmin:  8.706e-08  t[s]:  11071.60
	FillingsUpdate:  mu: +0.115390501  nElectrons: 228.000000  magneticMoment: [ Abs: 0.00000  Tot: +0.00000 ]
	SubspaceRotationAdjust: set factor to 0.175
ElecMinimize: Iter:  11  F: -1771.307566808448428  |grad|_K:  3.796e-07  alpha:  3.910e-01  linmin:  9.801e-07  t[s]:  11117.59
	FillingsUpdate:  mu: +0.115442581  nElectrons: 228.000000  magneticMoment: [ Abs: 0.00000  Tot: +0.00000 ]
	SubspaceRotationAdjust: set factor to 0.158
ElecMinimize: Iter:  12  F: -1771.307580192685236  |grad|_K:  2.160e-07  alpha:  3.250e-01  linmin: -3.760e-07  t[s]:  11163.65
	FillingsUpdate:  mu: +0.115495914  nElectrons: 228.000000  magneticMoment: [ Abs: 0.00000  Tot: +0.00000 ]
	SubspaceRotationAdjust: set factor to 0.143
ElecMinimize: Iter:  13  F: -1771.307585233003920  |grad|_K:  1.353e-07  alpha:  3.779e-01  linmin: -2.172e-07  t[s]:  11209.69
	FillingsUpdate:  mu: +0.115498217  nElectrons: 228.000000  magneticMoment: [ Abs: 0.00000  Tot: +0.00000 ]
	SubspaceRotationAdjust: set factor to 0.153
ElecMinimize: Iter:  14  F: -1771.307587203181811  |grad|_K:  8.794e-08  alpha:  3.764e-01  linmin: -1.414e-06  t[s]:  11255.82
	FillingsUpdate:  mu: +0.115504556  nElectrons: 228.000000  magneticMoment: [ Abs: 0.00000  Tot: +0.00000 ]
	SubspaceRotationAdjust: set factor to 0.161
ElecMinimize: Iter:  15  F: -1771.307587954113842  |grad|_K:  5.507e-08  alpha:  3.396e-01  linmin: -3.388e-06  t[s]:  11302.24
	FillingsUpdate:  mu: +0.115504734  nElectrons: 228.000000  magneticMoment: [ Abs: 0.00000  Tot: +0.00000 ]
	SubspaceRotationAdjust: set factor to 0.169
ElecMinimize: Iter:  16  F: -1771.307588325939150  |grad|_K:  3.677e-08  alpha:  4.288e-01  linmin:  1.175e-05  t[s]:  11348.55
	FillingsUpdate:  mu: +0.115512223  nElectrons: 228.000000  magneticMoment: [ Abs: 0.00000  Tot: +0.00000 ]
	SubspaceRotationAdjust: set factor to 0.194
ElecMinimize: Iter:  17  F: -1771.307588474779322  |grad|_K:  2.623e-08  alpha:  3.853e-01  linmin:  1.374e-05  t[s]:  11394.65
	FillingsUpdate:  mu: +0.115518734  nElectrons: 228.000000  magneticMoment: [ Abs: 0.00000  Tot: +0.00000 ]
	SubspaceRotationAdjust: set factor to 0.234
ElecMinimize: Iter:  18  F: -1771.307588554774384  |grad|_K:  1.946e-08  alpha:  4.076e-01  linmin:  1.459e-06  t[s]:  11440.69
	FillingsUpdate:  mu: +0.115517421  nElectrons: 228.000000  magneticMoment: [ Abs: 0.00000  Tot: +0.00000 ]
	SubspaceRotationAdjust: set factor to 0.281
ElecMinimize: Iter:  19  F: -1771.307588601623138  |grad|_K:  1.554e-08  alpha:  4.306e-01  linmin: -8.049e-05  t[s]:  11486.98
ElecMinimize: Converged (|Delta F|<1.000000e-07 for 2 iters).
Setting wave functions to eigenvectors of Hamiltonian
Converging empty states (this may take a while): |deigs|: 1.070e-07

Computing DFT-D3 correction:
# coordination-number Ag 5.453 6.714 8.973 8.973 8.943 7.507 7.483 8.907 8.981 9.003 6.738 5.445
# diagonal-C6 Ag 268.61 268.61 268.61 268.61 268.61 268.61 268.61 268.61 268.61 268.61 268.61 268.61
EvdW_6 =   -0.067961
EvdW_8 =   -0.095274

# Ionic positions in cartesian coordinates:
ion Ag  -0.001328173829519  -0.145108332265649  17.978564578212897 1
ion Ag  -0.000117854735923   4.525277695760409   2.192549049964730 1
ion Ag   0.000761935366764   8.974712623607662   5.464630172655469 1
ion Ag  -0.000977761688915   0.023566178374173   8.609545720676023 1
ion Ag   0.000250476569550   4.388309374990874  11.768313548508088 1
ion Ag   5.421211036875064   8.704398651390013  15.037486912712415 1
ion Ag   2.709256046768481   0.148854483261931   3.738086836013862 1
ion Ag   2.710051621202053   4.463021201113136   7.020062158413786 1
ion Ag   2.711061429959912   8.823142516822131  10.177169510030277 1
ion Ag   2.709437437601957  -0.119618327650332  13.310762992417017 1
ion Ag   2.710656988761720   4.329595353373922  16.576363839182058 1
ion Ag   2.711521817148857   8.993156581221728   0.788319681213390 1

# Forces in Cartesian coordinates:
force Ag   0.000009854236325   0.000080992946854   0.000163861945240 1
force Ag  -0.000008195564054  -0.000265143658160   0.000267334743694 1
force Ag  -0.000007468394274  -0.000063822987844   0.000026515485230 1
force Ag   0.000001516070830   0.000026656917124  -0.000297377694799 1
force Ag   0.000000942340288   0.000032752578943  -0.000142064984431 1
force Ag   0.000007546437031   0.000062217297441   0.000092667974417 1
force Ag  -0.000003059835542   0.000118334245283   0.000087321979426 1
force Ag   0.000000838869064  -0.000022406235762  -0.000231465252736 1
force Ag  -0.000000851758156   0.000004815147200  -0.000084688252569 1
force Ag   0.000005015531376  -0.000087826019260   0.000108189466007 1
force Ag   0.000000468269193   0.000001906114497   0.000215256286731 1
force Ag  -0.000010875558989   0.000144326189815   0.000167765581262 1

# Energy components:
   Eewald =     8135.6931952818795253
       EH =     9734.0126199337046273
     Eloc =   -19919.2959422554849880
      Enl =       47.3393963058001361
     EvdW =       -0.1632353924239114
      Exc =     -173.8468842480683634
 Exc_core =        2.4980489876980005
       KE =      402.4555862904448986
-------------------------------------
     Etot =    -1771.3072150964503635
       TS =        0.0003735051726676
-------------------------------------
        F =    -1771.3075886016231379


Dumping 'jdft.fillings' ... done
Dumping 'jdft.wfns' ... done
Dumping 'jdft.ionpos' ... done
Dumping 'jdft.lattice' ... done
Dumping 'jdft.eigenvals' ... done
Dumping 'jdft.eigStats' ... 
	eMin: -3.267157 at state 60 ( [ +0.000000 +0.000000 +0.000000 ] spin -1 )
	HOMO: +0.114889 at state 75 ( [ +0.250000 +0.000000 +0.000000 ] spin -1 )
	mu  : +0.115517
	LUMO: +0.115560 at state 36 ( [ -0.416667 +0.200000 +0.000000 ] spin 1 )
	eMax: +0.429421 at state 93 ( [ +0.500000 -0.400000 +0.000000 ] spin -1 )
	HOMO-LUMO gap: +0.000671
	Optical gap  : +0.002336 at state 80 ( [ +0.333333 +0.000000 +0.000000 ] spin -1 )
Dumping 'jdft.Ecomponents' ... done
IonicMinimize: Iter:  10  F: -1771.307588601623138  |grad|_K:  1.166e-04  alpha:  1.000e+00  linmin: -1.560e-01  t[s]:  11539.64

#--- Lowdin population analysis ---
# oxidation-state Ag +0.083 +0.015 -0.037 -0.002 -0.003 -0.022 -0.023 -0.003 -0.002 -0.037 +0.016 +0.083
# magnetic-moments Ag +0.000 +0.000 +0.000 +0.000 -0.000 +0.000 +0.000 +0.000 +0.000 -0.000 -0.000 +0.000


Computing DFT-D3 correction:
# coordination-number Ag 5.453 6.727 8.989 8.979 8.926 7.498 7.508 8.931 8.979 8.990 6.725 5.445
# diagonal-C6 Ag 268.61 268.61 268.61 268.61 268.61 268.61 268.61 268.61 268.61 268.61 268.61 268.61
EvdW_6 =   -0.067973
EvdW_8 =   -0.095285

-------- Electronic minimization -----------
	FillingsUpdate:  mu: +0.115575301  nElectrons: 228.000000  magneticMoment: [ Abs: 0.00001  Tot: +0.00000 ]
ElecMinimize: Iter:   0  F: -1771.307489503886700  |grad|_K:  4.721e-07  alpha:  1.000e+00
	FillingsUpdate:  mu: +0.115538231  nElectrons: 228.000000  magneticMoment: [ Abs: 0.00001  Tot: +0.00000 ]
	SubspaceRotationAdjust: set factor to 0.173
ElecMinimize: Iter:   1  F: -1771.307516838638094  |grad|_K:  5.235e-07  alpha:  4.290e-01  linmin: -2.961e-06  t[s]:  11624.37
	FillingsUpdate:  mu: +0.115525723  nElectrons: 228.000000  magneticMoment: [ Abs: 0.00001  Tot: +0.00000 ]
	SubspaceRotationAdjust: set factor to 0.16
ElecMinimize: Iter:   2  F: -1771.307539603585383  |grad|_K:  3.609e-07  alpha:  2.905e-01  linmin:  1.579e-07  t[s]:  11670.54
	FillingsUpdate:  mu: +0.115574163  nElectrons: 228.000000  magneticMoment: [ Abs: 0.00000  Tot: +0.00000 ]
	SubspaceRotationAdjust: set factor to 0.199
ElecMinimize: Iter:   3  F: -1771.307565315405100  |grad|_K:  3.607e-07  alpha:  6.905e-01  linmin: -4.516e-07  t[s]:  11716.61
	FillingsUpdate:  mu: +0.115560258  nElectrons: 228.000000  magneticMoment: [ Abs: 0.00000  Tot: +0.00000 ]
	SubspaceRotationAdjust: set factor to 0.183
ElecMinimize: Iter:   4  F: -1771.307579344176247  |grad|_K:  2.606e-07  alpha:  3.771e-01  linmin: -3.889e-07  t[s]:  11762.73
	FillingsUpdate:  mu: +0.115532606  nElectrons: 228.000000  magneticMoment: [ Abs: 0.00000  Tot: +0.00000 ]
	SubspaceRotationAdjust: set factor to 0.157
ElecMinimize: Iter:   5  F: -1771.307586338602732  |grad|_K:  1.561e-07  alpha:  3.601e-01  linmin: -1.442e-07  t[s]:  11808.71
	FillingsUpdate:  mu: +0.115527935  nElectrons: 228.000000  magneticMoment: [ Abs: 0.00000  Tot: +0.00000 ]
	SubspaceRotationAdjust: set factor to 0.166
ElecMinimize: Iter:   6  F: -1771.307588778225636  |grad|_K:  9.603e-08  alpha:  3.501e-01  linmin:  2.873e-07  t[s]:  11854.88
	FillingsUpdate:  mu: +0.115528068  nElectrons: 228.000000  magneticMoment: [ Abs: 0.00000  Tot: +0.00000 ]
	SubspaceRotationAdjust: set factor to 0.185
ElecMinimize: Iter:   7  F: -1771.307589783880985  |grad|_K:  6.051e-08  alpha:  3.815e-01  linmin:  4.848e-06  t[s]:  11901.38
	FillingsUpdate:  mu: +0.115528446  nElectrons: 228.000000  magneticMoment: [ Abs: 0.00000  Tot: +0.00000 ]
	SubspaceRotationAdjust: set factor to 0.185
ElecMinimize: Iter:   8  F: -1771.307590157761069  |grad|_K:  4.182e-08  alpha:  3.572e-01  linmin:  6.326e-06  t[s]:  11947.32
	FillingsUpdate:  mu: +0.115526471  nElectrons: 228.000000  magneticMoment: [ Abs: 0.00000  Tot: +0.00000 ]
	SubspaceRotationAdjust: set factor to 0.209
ElecMinimize: Iter:   9  F: -1771.307590361424445  |grad|_K:  2.777e-08  alpha:  4.073e-01  linmin: -2.259e-05  t[s]:  11993.35
	FillingsUpdate:  mu: +0.115528252  nElectrons: 228.000000  magneticMoment: [ Abs: 0.00000  Tot: +0.00000 ]
	SubspaceRotationAdjust: set factor to 0.25
ElecMinimize: Iter:  10  F: -1771.307590459509584  |grad|_K:  2.288e-08  alpha:  4.444e-01  linmin:  3.207e-05  t[s]:  12039.37
	FillingsUpdate:  mu: +0.115531396  nElectrons: 228.000000  magneticMoment: [ Abs: 0.00000  Tot: +0.00000 ]
	SubspaceRotationAdjust: set factor to 0.299
ElecMinimize: Iter:  11  F: -1771.307590520454369  |grad|_K:  1.803e-08  alpha:  4.085e-01  linmin: -3.421e-05  t[s]:  12085.25
ElecMinimize: Converged (|Delta F|<1.000000e-07 for 2 iters).
Setting wave functions to eigenvectors of Hamiltonian
Converging empty states (this may take a while): |deigs|: 5.144e-08

Computing DFT-D3 correction:
# coordination-number Ag 5.453 6.727 8.989 8.979 8.926 7.498 7.508 8.931 8.979 8.990 6.725 5.445
# diagonal-C6 Ag 268.61 268.61 268.61 268.61 268.61 268.61 268.61 268.61 268.61 268.61 268.61 268.61
EvdW_6 =   -0.067973
EvdW_8 =   -0.095285

# Ionic positions in cartesian coordinates:
ion Ag  -0.001121206800331  -0.129188165492062  17.980303078914648 1
ion Ag  -0.000289002370860   4.507501946228169   2.199587915554886 1
ion Ag   0.000620688093757   8.966127150615412   5.465898016889573 1
ion Ag  -0.000918259822103   0.022872842250819   8.600637907991677 1
ion Ag   0.000244323456245   4.391949668250918  11.762201247948042 1
ion Ag   5.421389292872856   8.715735256824843  15.038500690092651 1
ion Ag   2.709216515596799   0.138915706648070   3.740008826169716 1
ion Ag   2.710097304212612   4.459492484359036   7.014741555420063 1
ion Ag   2.711042095937494   8.824843533206163  10.174438997507078 1
ion Ag   2.709535328660258  -0.113983734002411  13.309929182764018 1
ion Ag   2.710612713652903   4.341198066726623  16.580611841707071 1
ion Ag   2.711355206510372   8.983843244384421   0.794995739040595 1

# Forces in Cartesian coordinates:
force Ag   0.000005459901347  -0.000034264096940   0.000008273235484 1
force Ag  -0.000003568212468   0.000209542668889  -0.000089653512431 1
force Ag  -0.000003621628544   0.000007503055033  -0.000034213666124 1
force Ag   0.000000672006580   0.000018499970973   0.000067560106782 1
force Ag   0.000000388148354   0.000006222132632  -0.000016942899000 1
force Ag   0.000003713991231  -0.000117006373895  -0.000115937810195 1
force Ag  -0.000003259543342  -0.000025761008998  -0.000047729090159 1
force Ag  -0.000001454520910   0.000029608722117  -0.000015061855934 1
force Ag  -0.000000171032874   0.000054517922428  -0.000013773754029 1
force Ag   0.000004850193626  -0.000000688511149  -0.000164024325454 1
force Ag   0.000003350882669   0.000010203645888  -0.000138048063934 1
force Ag  -0.000008195627756  -0.000003314840402   0.000021759645142 1

# Energy components:
   Eewald =     8137.4671000457274204
       EH =     9735.7827519057809695
     Eloc =   -19922.8405395309018786
      Enl =       47.3394203673814786
     EvdW =       -0.1632585173054696
      Exc =     -173.8473348620097454
 Exc_core =        2.4980486182200750
       KE =      402.4565932230856333
-------------------------------------
     Etot =    -1771.3072187500233667
       TS =        0.0003717704311004
-------------------------------------
        F =    -1771.3075905204543687


Dumping 'jdft.fillings' ... done
Dumping 'jdft.wfns' ... done
Dumping 'jdft.ionpos' ... done
Dumping 'jdft.lattice' ... done
Dumping 'jdft.eigenvals' ... done
Dumping 'jdft.eigStats' ... 
	eMin: -3.267137 at state 60 ( [ +0.000000 +0.000000 +0.000000 ] spin -1 )
	HOMO: +0.114954 at state 75 ( [ +0.250000 +0.000000 +0.000000 ] spin -1 )
	mu  : +0.115531
	LUMO: +0.115587 at state 29 ( [ +0.416667 -0.200000 +0.000000 ] spin 1 )
	eMax: +0.429380 at state 33 ( [ +0.500000 -0.400000 +0.000000 ] spin 1 )
	HOMO-LUMO gap: +0.000633
	Optical gap  : +0.002352 at state 20 ( [ +0.333333 +0.000000 +0.000000 ] spin 1 )
Dumping 'jdft.Ecomponents' ... done
IonicMinimize: Iter:  11  F: -1771.307590520454369  |grad|_K:  5.643e-05  alpha:  1.000e+00  linmin:  4.806e-01  t[s]:  12132.23
IonicMinimize: Converged (|grad|_K<1.000000e-04).

#--- Lowdin population analysis ---
# oxidation-state Ag +0.082 +0.016 -0.037 -0.002 -0.003 -0.023 -0.023 -0.003 -0.002 -0.037 +0.016 +0.083
# magnetic-moments Ag +0.000 +0.000 +0.000 +0.000 +0.000 +0.000 +0.000 +0.000 +0.000 +0.000 +0.000 +0.000


Dumping 'jdft.n_up' ... done
Dumping 'jdft.n_dn' ... done
Dumping 'jdft.tau_up' ... done
Dumping 'jdft.tau_dn' ... done
Dumping 'jdft.eigenvals' ... done
Dumping 'jdft.eigStats' ... 
	eMin: -3.267137 at state 60 ( [ +0.000000 +0.000000 +0.000000 ] spin -1 )
	HOMO: +0.114954 at state 75 ( [ +0.250000 +0.000000 +0.000000 ] spin -1 )
	mu  : +0.115531
	LUMO: +0.115587 at state 29 ( [ +0.416667 -0.200000 +0.000000 ] spin 1 )
	eMax: +0.429380 at state 33 ( [ +0.500000 -0.400000 +0.000000 ] spin 1 )
	HOMO-LUMO gap: +0.000633
	Optical gap  : +0.002352 at state 20 ( [ +0.333333 +0.000000 +0.000000 ] spin 1 )
Dumping 'jdft.kPts' ... done
Dumping 'jdft.dosUp' ... done.
Dumping 'jdft.dosDn' ... done.
End date and time: Mon Dec  6 20:21:43 2021  (Duration: 0-3:22:42.76)
Done!
