
*************** JDFTx 1.6.0  ***************

Start date and time: Mon Dec  6 16:20:45 2021
Executable /projects/musgravc/apps/jdftx-1.6.1/build/jdftx with command-line: -i in
Running on hosts (process indices):  shas0116.rc.int.colorado.edu (0-23)
Divided in process groups (process indices):  0 (0)  1 (1)  2 (2)  3 (3)  4 (4)  5 (5)  6 (6)  7 (7)  8 (8)  9 (9)  10 (10)  11 (11)  12 (12)  13 (13)  14 (14)  15 (15)  16 (16)  17 (17)  18 (18)  19 (19)  20 (20)  21 (21)  22 (22)  23 (23)
Resource initialization completed at t[s]:      0.00
Run totals: 24 processes, 24 threads, 0 GPUs


Input parsed successfully to the following command list (including defaults):

basis kpoint-dependent
converge-empty-states yes
coords-type Cartesian
core-overlap-check none
coulomb-interaction Periodic
davidson-band-ratio 1.1
density-of-states Etol 1.000000e-06 Esigma 1.000000e-03 \
		Complete \
	Total \
	OrthoOrbital Pt 1   s \
	OrthoOrbital Pt 1   p \
	OrthoOrbital Pt 1   px \
	OrthoOrbital Pt 1   py \
	OrthoOrbital Pt 1   pz \
	OrthoOrbital Pt 1   d \
	OrthoOrbital Pt 1   dxy \
	OrthoOrbital Pt 1   dyz \
	OrthoOrbital Pt 1   dz2 \
	OrthoOrbital Pt 1   dxz \
	OrthoOrbital Pt 1   dx2-y2 \
	OrthoOrbital Pt 2   s \
	OrthoOrbital Pt 2   p \
	OrthoOrbital Pt 2   px \
	OrthoOrbital Pt 2   py \
	OrthoOrbital Pt 2   pz \
	OrthoOrbital Pt 2   d \
	OrthoOrbital Pt 2   dxy \
	OrthoOrbital Pt 2   dyz \
	OrthoOrbital Pt 2   dz2 \
	OrthoOrbital Pt 2   dxz \
	OrthoOrbital Pt 2   dx2-y2 \
	OrthoOrbital Pt 3   s \
	OrthoOrbital Pt 3   p \
	OrthoOrbital Pt 3   px \
	OrthoOrbital Pt 3   py \
	OrthoOrbital Pt 3   pz \
	OrthoOrbital Pt 3   d \
	OrthoOrbital Pt 3   dxy \
	OrthoOrbital Pt 3   dyz \
	OrthoOrbital Pt 3   dz2 \
	OrthoOrbital Pt 3   dxz \
	OrthoOrbital Pt 3   dx2-y2 \
	OrthoOrbital Pt 4   s \
	OrthoOrbital Pt 4   p \
	OrthoOrbital Pt 4   px \
	OrthoOrbital Pt 4   py \
	OrthoOrbital Pt 4   pz \
	OrthoOrbital Pt 4   d \
	OrthoOrbital Pt 4   dxy \
	OrthoOrbital Pt 4   dyz \
	OrthoOrbital Pt 4   dz2 \
	OrthoOrbital Pt 4   dxz \
	OrthoOrbital Pt 4   dx2-y2 \
	OrthoOrbital Pt 5   s \
	OrthoOrbital Pt 5   p \
	OrthoOrbital Pt 5   px \
	OrthoOrbital Pt 5   py \
	OrthoOrbital Pt 5   pz \
	OrthoOrbital Pt 5   d \
	OrthoOrbital Pt 5   dxy \
	OrthoOrbital Pt 5   dyz \
	OrthoOrbital Pt 5   dz2 \
	OrthoOrbital Pt 5   dxz \
	OrthoOrbital Pt 5   dx2-y2 \
	OrthoOrbital Pt 6   s \
	OrthoOrbital Pt 6   p \
	OrthoOrbital Pt 6   px \
	OrthoOrbital Pt 6   py \
	OrthoOrbital Pt 6   pz \
	OrthoOrbital Pt 6   d \
	OrthoOrbital Pt 6   dxy \
	OrthoOrbital Pt 6   dyz \
	OrthoOrbital Pt 6   dz2 \
	OrthoOrbital Pt 6   dxz \
	OrthoOrbital Pt 6   dx2-y2 \
	OrthoOrbital Pt 7   s \
	OrthoOrbital Pt 7   p \
	OrthoOrbital Pt 7   px \
	OrthoOrbital Pt 7   py \
	OrthoOrbital Pt 7   pz \
	OrthoOrbital Pt 7   d \
	OrthoOrbital Pt 7   dxy \
	OrthoOrbital Pt 7   dyz \
	OrthoOrbital Pt 7   dz2 \
	OrthoOrbital Pt 7   dxz \
	OrthoOrbital Pt 7   dx2-y2 \
	OrthoOrbital Pt 8   s \
	OrthoOrbital Pt 8   p \
	OrthoOrbital Pt 8   px \
	OrthoOrbital Pt 8   py \
	OrthoOrbital Pt 8   pz \
	OrthoOrbital Pt 8   d \
	OrthoOrbital Pt 8   dxy \
	OrthoOrbital Pt 8   dyz \
	OrthoOrbital Pt 8   dz2 \
	OrthoOrbital Pt 8   dxz \
	OrthoOrbital Pt 8   dx2-y2 \
	OrthoOrbital Pt 9   s \
	OrthoOrbital Pt 9   p \
	OrthoOrbital Pt 9   px \
	OrthoOrbital Pt 9   py \
	OrthoOrbital Pt 9   pz \
	OrthoOrbital Pt 9   d \
	OrthoOrbital Pt 9   dxy \
	OrthoOrbital Pt 9   dyz \
	OrthoOrbital Pt 9   dz2 \
	OrthoOrbital Pt 9   dxz \
	OrthoOrbital Pt 9   dx2-y2 \
	OrthoOrbital Pt 10   s \
	OrthoOrbital Pt 10   p \
	OrthoOrbital Pt 10   px \
	OrthoOrbital Pt 10   py \
	OrthoOrbital Pt 10   pz \
	OrthoOrbital Pt 10   d \
	OrthoOrbital Pt 10   dxy \
	OrthoOrbital Pt 10   dyz \
	OrthoOrbital Pt 10   dz2 \
	OrthoOrbital Pt 10   dxz \
	OrthoOrbital Pt 10   dx2-y2 \
	OrthoOrbital Pt 11   s \
	OrthoOrbital Pt 11   p \
	OrthoOrbital Pt 11   px \
	OrthoOrbital Pt 11   py \
	OrthoOrbital Pt 11   pz \
	OrthoOrbital Pt 11   d \
	OrthoOrbital Pt 11   dxy \
	OrthoOrbital Pt 11   dyz \
	OrthoOrbital Pt 11   dz2 \
	OrthoOrbital Pt 11   dxz \
	OrthoOrbital Pt 11   dx2-y2 \
	OrthoOrbital Pt 12   s \
	OrthoOrbital Pt 12   p \
	OrthoOrbital Pt 12   px \
	OrthoOrbital Pt 12   py \
	OrthoOrbital Pt 12   pz \
	OrthoOrbital Pt 12   d \
	OrthoOrbital Pt 12   dxy \
	OrthoOrbital Pt 12   dyz \
	OrthoOrbital Pt 12   dz2 \
	OrthoOrbital Pt 12   dxz \
	OrthoOrbital Pt 12   dx2-y2 \
	OrthoOrbital Pt 13   s \
	OrthoOrbital Pt 13   p \
	OrthoOrbital Pt 13   px \
	OrthoOrbital Pt 13   py \
	OrthoOrbital Pt 13   pz \
	OrthoOrbital Pt 13   d \
	OrthoOrbital Pt 13   dxy \
	OrthoOrbital Pt 13   dyz \
	OrthoOrbital Pt 13   dz2 \
	OrthoOrbital Pt 13   dxz \
	OrthoOrbital Pt 13   dx2-y2 \
	OrthoOrbital Pt 14   s \
	OrthoOrbital Pt 14   p \
	OrthoOrbital Pt 14   px \
	OrthoOrbital Pt 14   py \
	OrthoOrbital Pt 14   pz \
	OrthoOrbital Pt 14   d \
	OrthoOrbital Pt 14   dxy \
	OrthoOrbital Pt 14   dyz \
	OrthoOrbital Pt 14   dz2 \
	OrthoOrbital Pt 14   dxz \
	OrthoOrbital Pt 14   dx2-y2 \
	OrthoOrbital Pt 15   s \
	OrthoOrbital Pt 15   p \
	OrthoOrbital Pt 15   px \
	OrthoOrbital Pt 15   py \
	OrthoOrbital Pt 15   pz \
	OrthoOrbital Pt 15   d \
	OrthoOrbital Pt 15   dxy \
	OrthoOrbital Pt 15   dyz \
	OrthoOrbital Pt 15   dz2 \
	OrthoOrbital Pt 15   dxz \
	OrthoOrbital Pt 15   dx2-y2 \
	OrthoOrbital Pt 16   s \
	OrthoOrbital Pt 16   p \
	OrthoOrbital Pt 16   px \
	OrthoOrbital Pt 16   py \
	OrthoOrbital Pt 16   pz \
	OrthoOrbital Pt 16   d \
	OrthoOrbital Pt 16   dxy \
	OrthoOrbital Pt 16   dyz \
	OrthoOrbital Pt 16   dz2 \
	OrthoOrbital Pt 16   dxz \
	OrthoOrbital Pt 16   dx2-y2 \
	OrthoOrbital Pt 17   s \
	OrthoOrbital Pt 17   p \
	OrthoOrbital Pt 17   px \
	OrthoOrbital Pt 17   py \
	OrthoOrbital Pt 17   pz \
	OrthoOrbital Pt 17   d \
	OrthoOrbital Pt 17   dxy \
	OrthoOrbital Pt 17   dyz \
	OrthoOrbital Pt 17   dz2 \
	OrthoOrbital Pt 17   dxz \
	OrthoOrbital Pt 17   dx2-y2 \
	OrthoOrbital Pt 18   s \
	OrthoOrbital Pt 18   p \
	OrthoOrbital Pt 18   px \
	OrthoOrbital Pt 18   py \
	OrthoOrbital Pt 18   pz \
	OrthoOrbital Pt 18   d \
	OrthoOrbital Pt 18   dxy \
	OrthoOrbital Pt 18   dyz \
	OrthoOrbital Pt 18   dz2 \
	OrthoOrbital Pt 18   dxz \
	OrthoOrbital Pt 18   dx2-y2
dump End ElecDensity KEdensity BandEigs EigStats RhoAtom DOS Kpoints
dump Ionic State IonicPositions Lattice EigStats Ecomponents
dump 
dump 
dump 
dump 
dump 
dump 
dump 
dump 
dump-name jdft.$VAR
elec-cutoff 20
elec-eigen-algo Davidson
elec-ex-corr gga-PBE
elec-initial-magnetization 0.000000 no
elec-n-bands 173
elec-smearing Fermi 0.001
electronic-minimize  \
	dirUpdateScheme      FletcherReeves \
	linminMethod         DirUpdateRecommended \
	nIterations          100 \
	history              15 \
	knormThreshold       0 \
	energyDiffThreshold  1e-07 \
	nEnergyDiff          2 \
	alphaTstart          1 \
	alphaTmin            1e-10 \
	updateTestStepSize   yes \
	alphaTreduceFactor   0.1 \
	alphaTincreaseFactor 3 \
	nAlphaAdjustMax      3 \
	wolfeEnergy          0.0001 \
	wolfeGradient        0.9 \
	fdTest               no
exchange-regularization WignerSeitzTruncated
fluid LinearPCM 298.000000 1.013250
fluid-anion F- 0.5 MeanFieldLJ \
	epsBulk 1 \
	pMol 0 \
	epsInf 1 \
	Pvap 0 \
	sigmaBulk 0 \
	Rvdw 2.24877 \
	Res 0 \
	tauNuc 343133
fluid-cation Na+ 0.5 MeanFieldLJ \
	epsBulk 1 \
	pMol 0 \
	epsInf 1 \
	Pvap 0 \
	sigmaBulk 0 \
	Rvdw 2.19208 \
	Res 0 \
	tauNuc 343133
fluid-ex-corr lda-TF lda-PZ
fluid-gummel-loop 10 1.000000e-05
fluid-minimize  \
	dirUpdateScheme      PolakRibiere \
	linminMethod         DirUpdateRecommended \
	nIterations          400 \
	history              15 \
	knormThreshold       1e-11 \
	energyDiffThreshold  0 \
	nEnergyDiff          2 \
	alphaTstart          1 \
	alphaTmin            1e-10 \
	updateTestStepSize   yes \
	alphaTreduceFactor   0.1 \
	alphaTincreaseFactor 3 \
	nAlphaAdjustMax      6 \
	wolfeEnergy          0.0001 \
	wolfeGradient        0.9 \
	fdTest               no
fluid-solvent H2O 55.338 ScalarEOS \
	epsBulk 78.4 \
	pMol 0.92466 \
	epsInf 1.77 \
	Pvap 1.06736e-10 \
	sigmaBulk 4.62e-05 \
	Rvdw 2.61727 \
	Res 1.42 \
	tauNuc 343133 \
	poleEl 15 7 1
forces-output-coords Positions
ion Pt   0.000000000000000   6.975987000000000  64.742620999999986 1
ion Pt   0.000000000000000  13.951988999999998  62.276236999999995 1
ion Pt   5.231995999999999   0.000000000000000  45.011551999999995 1
ion Pt   0.000000000000000   5.231990000000000  59.809853999999987 1
ion Pt   0.000000000000000  12.207992000000001  57.343469999999989 1
ion Pt   0.000000000000000   3.487993000000000  54.877085999999991 1
ion Pt   0.000000000000000  10.463996000000000  52.410702999999991 1
ion Pt   5.231995999999999   1.743997000000000  49.944318999999986 1
ion Pt   5.231995999999999   8.719999000000000  47.477935999999993 1
ion Pt   2.615997999999999   9.591989999999999  61.043078999999992 1
ion Pt   2.615997999999999   0.872006000000000  58.576694999999994 1
ion Pt   2.615997999999999   2.616003000000000  63.509462999999982 1
ion Pt   2.615997999999999   7.847993000000000  56.110311999999986 1
ion Pt   2.615997999999999  14.823980000000001  53.643927999999995 1
ion Pt   2.615997999999999   6.103996000000000  51.177543999999990 1
ion Pt   2.615997999999999  13.079982999999999  48.711093999999996 1
ion Pt   2.615997999999999   4.360000000000000  46.244709999999991 1
ion Pt   2.615997999999999  11.335986000000000  65.975845999999990 1
ion-species /projects/musgravc/apps/jdftx-1.6.0/build/pseudopotentials/GBRV_v1.5/$ID_pbe_v1.uspp
ion-species /projects/musgravc/apps/jdftx-1.6.0/build/pseudopotentials/GBRV_v1.5/$ID_pbe_v1.2.uspp
ion-species /projects/musgravc/apps/jdftx-1.6.0/build/pseudopotentials/GBRV_v1.5/$ID_pbe_v1.4.uspp
ion-species /projects/musgravc/apps/jdftx-1.6.0/build/pseudopotentials/GBRV_v1.5/$ID_pbe_v1.5.uspp
ion-width Ecut
ionic-minimize  \
	dirUpdateScheme      L-BFGS \
	linminMethod         DirUpdateRecommended \
	nIterations          100 \
	history              15 \
	knormThreshold       0.0001 \
	energyDiffThreshold  1e-06 \
	nEnergyDiff          2 \
	alphaTstart          1 \
	alphaTmin            1e-10 \
	updateTestStepSize   yes \
	alphaTreduceFactor   0.1 \
	alphaTincreaseFactor 3 \
	nAlphaAdjustMax      3 \
	wolfeEnergy          0.0001 \
	wolfeGradient        0.9 \
	fdTest               no
kpoint   0.000000000000   0.000000000000   0.000000000000  1.00000000000000
kpoint-folding 12 4 1 
latt-move-scale 0 0 0
latt-scale 1 1 1 
lattice  \
	   5.231996000000000    0.000000000000000    0.000000000000000  \
	   0.000000000000000   15.695986000000000    0.000000000000000  \
	   0.000000000000000    0.000000000000000   66.592426000000003 
lattice-minimize  \
	dirUpdateScheme      L-BFGS \
	linminMethod         DirUpdateRecommended \
	nIterations          0 \
	history              15 \
	knormThreshold       0 \
	energyDiffThreshold  1e-06 \
	nEnergyDiff          2 \
	alphaTstart          1 \
	alphaTmin            1e-10 \
	updateTestStepSize   yes \
	alphaTreduceFactor   0.1 \
	alphaTincreaseFactor 3 \
	nAlphaAdjustMax      3 \
	wolfeEnergy          0.0001 \
	wolfeGradient        0.9 \
	fdTest               no
lcao-params 30 1e-06 0.001
pcm-variant CANDLE
spintype z-spin
subspace-rotation-factor 1 yes
symmetries none
symmetry-threshold 0.0001
van-der-waals D3


Applied RMS atom displacement 0 bohrs to make symmetries exact.

---------- Initializing the Grid ----------
R = 
[        5.232            0            0  ]
[            0       15.696            0  ]
[            0            0      66.5924  ]
unit cell volume = 5468.66
G =
[    1.20092          0          0  ]
[          0   0.400305          0  ]
[          0          0  0.0943529  ]
Minimum fftbox size, Smin = [  24  64  272  ]
Chosen fftbox size, S = [  24  64  280  ]

---------- Exchange Correlation functional ----------
Initalized PBE GGA exchange.
Initalized PBE GGA correlation.

---------- Setting up pseudopotentials ----------
Width of ionic core gaussian charges (only for fluid interactions / plotting) set to 0.397384

Reading pseudopotential file '/projects/musgravc/apps/jdftx-1.6.0/build/pseudopotentials/GBRV_v1.5/pt_pbe_v1.4.uspp':
  Title: Pt.  Created by USPP 7.3.6 on 31-3-15
  Reference state energy: -105.002503.  16 valence electrons in orbitals:
    |510>  occupation: 6  eigenvalue: -2.158104
    |520>  occupation: 9.5  eigenvalue: -0.335376
    |600>  occupation: 0  eigenvalue: -0.319640
    |610>  occupation: 0  eigenvalue: -0.122947
  lMax: 2  lLocal: 3  QijEcut: 5.5
  6 projectors sampled on a log grid with 745 points:
    l: 0  eig: -0.319640  rCut: 2.45
    l: 0  eig: 1.500000  rCut: 2.45
    l: 1  eig: -2.158104  rCut: 1.6
    l: 1  eig: -0.122947  rCut: 1.6
    l: 2  eig: -0.500000  rCut: 1.6
    l: 2  eig: -0.335375  rCut: 1.6
  Partial core density with radius 1.1
  Transforming core density to a uniform radial grid of dG=0.02 with 1174 points.
  Transforming local potential to a uniform radial grid of dG=0.02 with 1174 points.
  Transforming nonlocal projectors to a uniform radial grid of dG=0.02 with 432 points.
  Transforming density augmentations to a uniform radial grid of dG=0.02 with 1174 points.
  Transforming atomic orbitals to a uniform radial grid of dG=0.02 with 432 points.
  Core radius for overlap checks: 2.45 bohrs.

Initialized 1 species with 18 total atoms.

Folded 1 k-points by 12x4x1 to 48 k-points.

---------- Setting up k-points, bands, fillings ----------
No reducable k-points. 
Computing the number of bands and number of electrons
Calculating initial fillings.
nElectrons: 288.000000   nBands: 173   nStates: 96

----- Setting up reduced wavefunction bases (one per k-point) -----
average nbasis = 23357.729 , ideal nbasis = 23362.528

----- Initializing Supercell corresponding to k-point mesh -----
Lattice vector linear combinations in supercell:
[  12   0   0  ]
[   0   4   0  ]
[   0   0   1  ]
Supercell lattice vectors:
[  62.784  0  0  ]
[  0  62.7839  0  ]
[  0  0  66.5924  ]

Initializing DFT-D3 calculator:
	Parameters set for gga-PBE functional
	s6:  1.000  s_r6:  1.217
	s8:  0.722  s_r8:  1.000
	Per-atom parameters loaded for:
	Pt:  sqrtQ[a0]:  5.888  Rcov[a0]:  2.116  CN: [ 0.00 1.92 6.67 ]

Initializing DFT-D2 calculator for fluid / solvation:
	Pt:  C6:  815.23 Eh-a0^6  R0: 3.326 a0 (WARNING: beyond Grimme's data set)

---------- Setting up ewald sum ----------
Optimum gaussian width for ewald sums = 4.341685 bohr.
Real space sum over 855 unit cells with max indices [  9  4  2  ]
Reciprocal space sum over 5355 terms with max indices [  3  7  25  ]

Computing DFT-D3 correction:
# coordination-number Pt 7.126 8.720 5.563 9.550 9.559 9.560 9.554 9.544 7.157 9.544 9.554 7.157 9.560 9.559 9.550 8.720 7.126 5.562
# diagonal-C6 Pt 336.87 336.87 336.87 336.87 336.87 336.87 336.87 336.87 336.87 336.87 336.87 336.87 336.87 336.87 336.87 336.87 336.87 336.87
EvdW_6 =   -0.152132
EvdW_8 =   -0.247826

---------- Allocating electronic variables ----------
Initializing wave functions:  linear combination of atomic orbitals
Pt pseudo-atom occupations:   s ( 0 )  p ( 6 0 )  d ( 10 )
	FillingsUpdate:  mu: -1.253396687  nElectrons: 288.000000  magneticMoment: [ Abs: 0.00165  Tot: -0.00009 ]
LCAOMinimize: Iter:   0  F: -1593.1022587903803469  |grad|_K:  1.085e-02  alpha:  1.000e+00
LCAOMinimize: 	Step increased F by 1.878936e+02, reducing alpha to 2.063111e-02.
	FillingsUpdate:  mu: -0.090664620  nElectrons: 288.000000  magneticMoment: [ Abs: 0.00144  Tot: +0.00002 ]
LCAOMinimize: Iter:   1  F: -1599.1315078833149528  |grad|_K:  2.510e-03  alpha:  2.063e-02  linmin:  8.567e-02  cgtest: -3.605e-01  t[s]:    160.12
LCAOMinimize: 	Predicted alpha/alphaT>3.000000, increasing alphaT to 6.189332e-02.
	FillingsUpdate:  mu: +0.294162267  nElectrons: 288.000000  magneticMoment: [ Abs: 0.00116  Tot: -0.00007 ]
LCAOMinimize: Iter:   2  F: -1599.9938442912537084  |grad|_K:  3.320e-03  alpha:  8.536e-02  linmin:  2.753e-03  cgtest:  5.481e-01  t[s]:    221.34
	FillingsUpdate:  mu: +0.014458701  nElectrons: 288.000000  magneticMoment: [ Abs: 0.00110  Tot: -0.00005 ]
LCAOMinimize: Iter:   3  F: -1600.4253617920517172  |grad|_K:  1.604e-03  alpha:  2.268e-02  linmin:  4.284e-02  cgtest: -3.781e-01  t[s]:    270.07
LCAOMinimize: 	Predicted alpha/alphaT>3.000000, increasing alphaT to 6.803034e-02.
	FillingsUpdate:  mu: +0.150431055  nElectrons: 288.000000  magneticMoment: [ Abs: 0.00092  Tot: +0.00005 ]
LCAOMinimize: Iter:   4  F: -1600.8688972578881931  |grad|_K:  2.146e-03  alpha:  1.019e-01  linmin: -1.119e-03  cgtest:  3.891e-01  t[s]:    331.16
	FillingsUpdate:  mu: +0.139757072  nElectrons: 288.000000  magneticMoment: [ Abs: 0.00090  Tot: +0.00006 ]
LCAOMinimize: Iter:   5  F: -1600.9460402820218405  |grad|_K:  1.255e-03  alpha:  7.543e-03  linmin:  7.097e-03  cgtest: -1.476e-01  t[s]:    380.68
	FillingsUpdate:  mu: +0.179494920  nElectrons: 288.000000  magneticMoment: [ Abs: 0.00088  Tot: +0.00009 ]
LCAOMinimize: Iter:   6  F: -1600.9951248993470472  |grad|_K:  6.528e-04  alpha:  1.499e-02  linmin:  4.609e-03  cgtest:  2.638e-01  t[s]:    429.41
	FillingsUpdate:  mu: +0.185544509  nElectrons: 288.000000  magneticMoment: [ Abs: 0.00087  Tot: +0.00009 ]
LCAOMinimize: Iter:   7  F: -1601.0124221083117391  |grad|_K:  9.790e-04  alpha:  1.814e-02  linmin: -5.678e-04  cgtest:  1.319e-02  t[s]:    478.38
	FillingsUpdate:  mu: +0.128603627  nElectrons: 288.000000  magneticMoment: [ Abs: 0.00085  Tot: +0.00008 ]
LCAOMinimize: Iter:   8  F: -1601.0487571010119154  |grad|_K:  5.507e-04  alpha:  1.669e-02  linmin: -1.606e-03  cgtest: -1.163e-01  t[s]:    527.38
	FillingsUpdate:  mu: +0.175161450  nElectrons: 288.000000  magneticMoment: [ Abs: 0.00082  Tot: +0.00008 ]
LCAOMinimize: Iter:   9  F: -1601.0803200417558401  |grad|_K:  5.031e-04  alpha:  4.644e-02  linmin:  3.312e-03  cgtest: -6.424e-02  t[s]:    575.99
	FillingsUpdate:  mu: +0.184635075  nElectrons: 288.000000  magneticMoment: [ Abs: 0.00081  Tot: +0.00008 ]
LCAOMinimize: Iter:  10  F: -1601.0895587468862686  |grad|_K:  7.560e-04  alpha:  1.675e-02  linmin: -2.057e-04  cgtest:  4.800e-02  t[s]:    624.84
	FillingsUpdate:  mu: +0.118942107  nElectrons: 288.000000  magneticMoment: [ Abs: 0.00076  Tot: +0.00009 ]
LCAOMinimize: Iter:  11  F: -1601.1303443267427156  |grad|_K:  4.586e-04  alpha:  3.167e-02  linmin:  9.475e-04  cgtest: -3.332e-01  t[s]:    673.98
	FillingsUpdate:  mu: +0.130292222  nElectrons: 288.000000  magneticMoment: [ Abs: 0.00075  Tot: +0.00011 ]
LCAOMinimize: Iter:  12  F: -1601.1418783983865524  |grad|_K:  4.869e-04  alpha:  2.481e-02  linmin:  8.724e-05  cgtest:  5.454e-02  t[s]:    722.97
	FillingsUpdate:  mu: +0.123344779  nElectrons: 288.000000  magneticMoment: [ Abs: 0.00075  Tot: +0.00012 ]
LCAOMinimize: Iter:  13  F: -1601.1459750730184624  |grad|_K:  2.430e-04  alpha:  7.505e-03  linmin: -1.201e-03  cgtest:  1.591e-02  t[s]:    771.82
LCAOMinimize: 	Predicted alpha/alphaT>3.000000, increasing alphaT to 2.251645e-02.
	FillingsUpdate:  mu: +0.126914199  nElectrons: 288.000000  magneticMoment: [ Abs: 0.00075  Tot: +0.00016 ]
LCAOMinimize: Iter:  14  F: -1601.1512903404982353  |grad|_K:  2.397e-04  alpha:  3.927e-02  linmin:  3.021e-04  cgtest: -3.890e-02  t[s]:    833.14
	FillingsUpdate:  mu: +0.122082134  nElectrons: 288.000000  magneticMoment: [ Abs: 0.00075  Tot: +0.00016 ]
LCAOMinimize: Iter:  15  F: -1601.1522480421729142  |grad|_K:  1.443e-04  alpha:  7.458e-03  linmin:  5.039e-04  cgtest:  7.882e-03  t[s]:    882.00
LCAOMinimize: 	Predicted alpha/alphaT>3.000000, increasing alphaT to 2.237295e-02.
	FillingsUpdate:  mu: +0.115619550  nElectrons: 288.000000  magneticMoment: [ Abs: 0.00075  Tot: +0.00017 ]
LCAOMinimize: Iter:  16  F: -1601.1533918904824532  |grad|_K:  1.087e-04  alpha:  2.442e-02  linmin: -3.944e-04  cgtest: -3.080e-03  t[s]:    943.31
	FillingsUpdate:  mu: +0.119393184  nElectrons: 288.000000  magneticMoment: [ Abs: 0.00076  Tot: +0.00017 ]
LCAOMinimize: Iter:  17  F: -1601.1538487272869133  |grad|_K:  1.225e-04  alpha:  1.702e-02  linmin:  1.854e-05  cgtest: -7.376e-03  t[s]:    991.99
	FillingsUpdate:  mu: +0.123034129  nElectrons: 288.000000  magneticMoment: [ Abs: 0.00076  Tot: +0.00018 ]
LCAOMinimize: Iter:  18  F: -1601.1541818580221843  |grad|_K:  4.539e-05  alpha:  9.803e-03  linmin: -2.070e-04  cgtest:  1.071e-02  t[s]:   1041.08
LCAOMinimize: 	Predicted alpha/alphaT>3.000000, increasing alphaT to 2.940878e-02.
	FillingsUpdate:  mu: +0.127473416  nElectrons: 288.000000  magneticMoment: [ Abs: 0.00076  Tot: +0.00018 ]
LCAOMinimize: Iter:  19  F: -1601.1544184325161950  |grad|_K:  9.390e-05  alpha:  5.083e-02  linmin:  1.424e-04  cgtest: -7.150e-04  t[s]:   1102.33
	FillingsUpdate:  mu: +0.129275698  nElectrons: 288.000000  magneticMoment: [ Abs: 0.00076  Tot: +0.00019 ]
LCAOMinimize: Iter:  20  F: -1601.1546121420778945  |grad|_K:  5.537e-05  alpha:  9.644e-03  linmin: -7.804e-04  cgtest:  2.777e-02  t[s]:   1151.24
LCAOMinimize: 	Predicted alpha/alphaT>3.000000, increasing alphaT to 2.893314e-02.
	FillingsUpdate:  mu: +0.127027786  nElectrons: 288.000000  magneticMoment: [ Abs: 0.00077  Tot: +0.00020 ]
LCAOMinimize: Iter:  21  F: -1601.1548485466246348  |grad|_K:  5.902e-05  alpha:  3.381e-02  linmin: -2.475e-05  cgtest: -2.150e-02  t[s]:   1212.55
	FillingsUpdate:  mu: +0.128007503  nElectrons: 288.000000  magneticMoment: [ Abs: 0.00077  Tot: +0.00021 ]
LCAOMinimize: Iter:  22  F: -1601.1549755759726850  |grad|_K:  7.672e-05  alpha:  1.611e-02  linmin: -1.601e-05  cgtest:  2.194e-03  t[s]:   1261.62
	FillingsUpdate:  mu: +0.131431220  nElectrons: 288.000000  magneticMoment: [ Abs: 0.00078  Tot: +0.00022 ]
LCAOMinimize: Iter:  23  F: -1601.1551990653526900  |grad|_K:  3.018e-05  alpha:  1.679e-02  linmin:  1.064e-04  cgtest: -9.911e-03  t[s]:   1311.42
	FillingsUpdate:  mu: +0.132460314  nElectrons: 288.000000  magneticMoment: [ Abs: 0.00078  Tot: +0.00023 ]
LCAOMinimize: Iter:  24  F: -1601.1552546956745573  |grad|_K:  4.896e-05  alpha:  2.706e-02  linmin:  1.840e-05  cgtest:  1.269e-03  t[s]:   1360.51
	FillingsUpdate:  mu: +0.132784272  nElectrons: 288.000000  magneticMoment: [ Abs: 0.00078  Tot: +0.00023 ]
LCAOMinimize: Iter:  25  F: -1601.1553147913750763  |grad|_K:  2.555e-05  alpha:  1.110e-02  linmin:  1.126e-05  cgtest: -4.840e-03  t[s]:   1409.24
	FillingsUpdate:  mu: +0.130721314  nElectrons: 288.000000  magneticMoment: [ Abs: 0.00079  Tot: +0.00024 ]
LCAOMinimize: Iter:  26  F: -1601.1553578326766001  |grad|_K:  2.660e-05  alpha:  2.918e-02  linmin:  1.506e-05  cgtest: -4.389e-04  t[s]:   1458.56
	FillingsUpdate:  mu: +0.130220041  nElectrons: 288.000000  magneticMoment: [ Abs: 0.00079  Tot: +0.00025 ]
LCAOMinimize: Iter:  27  F: -1601.1553777497706506  |grad|_K:  2.946e-05  alpha:  1.246e-02  linmin:  1.767e-05  cgtest:  7.460e-05  t[s]:   1507.41
	FillingsUpdate:  mu: +0.130338025  nElectrons: 288.000000  magneticMoment: [ Abs: 0.00080  Tot: +0.00026 ]
LCAOMinimize: Iter:  28  F: -1601.1554273054823625  |grad|_K:  1.570e-05  alpha:  2.528e-02  linmin:  2.721e-05  cgtest:  1.535e-03  t[s]:   1556.47
	FillingsUpdate:  mu: +0.130554869  nElectrons: 288.000000  magneticMoment: [ Abs: 0.00080  Tot: +0.00026 ]
LCAOMinimize: Iter:  29  F: -1601.1554393896083184  |grad|_K:  2.600e-05  alpha:  2.170e-02  linmin:  1.356e-06  cgtest:  3.260e-04  t[s]:   1605.50
	FillingsUpdate:  mu: +0.130601648  nElectrons: 288.000000  magneticMoment: [ Abs: 0.00081  Tot: +0.00028 ]
LCAOMinimize: Iter:  30  F: -1601.1554699691896531  |grad|_K:  1.953e-05  alpha:  2.001e-02  linmin:  4.556e-06  cgtest:  6.838e-05  t[s]:   1654.38
LCAOMinimize: None of the convergence criteria satisfied after 30 iterations.
----- createFluidSolver() ----- (Fluid-side solver setup)
   Initializing fluid molecule 'H2O'
     Initializing site 'O'
       Electron density: proportional to exp(-r/0.36935)*erfc((r-0.51523)/0.36823) with norm 6.826
       Charge density: gaussian nuclear width 0.478731 with net site charge 0.826
       Polarizability: cuspless exponential with width 0.32 and norm 3.73
       Hard sphere radius: 2.57003 bohrs
       Positions in reference frame:
         [ +0.000000 +0.000000 +0.000000 ]
     Initializing site 'H'
       Electron density: proportional to exp(-r/0.34641)*erfc((r-0)/0.390882) with norm 0.587
       Charge density: gaussian nuclear width 0.377945 with net site charge -0.413
       Polarizability: cuspless exponential with width 0.39 and norm 3.3
       Positions in reference frame:
         [ +0.000000 -1.441945 +1.122523 ]
         [ +0.000000 +1.441945 +1.122523 ]
     Net charge: 0   dipole magnitude: 0.927204
     Initializing spherical shell mfKernel with radius 2.61727 Bohr
     deltaS corrections:
       site 'O': -7.54299
       site 'H': -6.83917
   Initializing fluid molecule 'Na+'
     Initializing site 'Na'
       Electron density: proportional to exp(-r/0.19682)*erfc((r-0.71491)/0.41314) with norm 8.1383
       Charge density: gaussian nuclear width 0.365347 with net site charge -1
       Hard sphere radius: 1.86327 bohrs
       Positions in reference frame:
         [ +0.000000 +0.000000 +0.000000 ]
     Net charge: -1   dipole magnitude: 0
     Initializing gaussian mfKernel with width: 1.55004 Bohr
     deltaS corrections:
       site 'Na': -22.3555
   Initializing fluid molecule 'F-'
     Initializing site 'F'
       Electron density: proportional to exp(-r/0.38886)*erfc((r-0)/0.438782) with norm 8
       Charge density: gaussian nuclear width 0.374796 with net site charge 1
       Hard sphere radius: 2.39995 bohrs
       Positions in reference frame:
         [ +0.000000 +0.000000 +0.000000 ]
     Net charge: 1   dipole magnitude: 0
     Initializing gaussian mfKernel with width: 1.59012 Bohr
     deltaS corrections:
       site 'F': -9.04335

Correction to mu due to finite nuclear width = -0.052253
   Cavity determined by nc: 0.00142 and sigma: 0.707107
   Nonlocal vdW cavity from gaussian model electron density with norm = 8 and sigma = 0.993594 bohr
   Charge asymmetry in cavity with sensitivity pCavity = 36.5 e-bohr/Eh
   Electrostatic cavity expanded by eta = 1.46 bohrs
   Weighted density cavitation model constrained by Nbulk: 0.0049383 bohr^-3, Pvap: 3.14029 kPa, Rvdw: 2.61727 bohr and sigmaBulk: 4.62e-05 Eh/bohr^2 at T: 298 K.
   Weighted density dispersion model using vdW pair potentials with single solvent site with sqrtC6eff: 0.77 SI.


---- Citations for features of the code used in this run ----

   Software package:
      R. Sundararaman, K. Letchworth-Weaver, K.A. Schwarz, D. Gunceler, Y. Ozhabes and T.A. Arias, 'JDFTx: software for joint density-functional theory', SoftwareX 6, 278 (2017)

   gga-PBE exchange-correlation functional:
      J.P. Perdew, K. Burke and M. Ernzerhof, Phys. Rev. Lett. 77, 3865 (1996)

   Pseudopotentials:
      KF Garrity, JW Bennett, KM Rabe and D Vanderbilt, Comput. Mater. Sci. 81, 446 (2014)

   DFT-D3 dispersion correction:
      S. Grimme, J. Antony, S. Ehrlich and H. Krieg, J. Chem. Phys. 132, 154104 (2010)

   DFT-D2 dispersion correction:
      S. Grimme, J. Comput. Chem. 27, 1787 (2006)

   Charge-asymmetric nonlocally-determined local-electric (CANDLE) solvation model:
      R. Sundararaman and W.A. Goddard III, J. Chem. Phys. 142, 064107 (2015)

   Total energy minimization with Auxiliary Hamiltonian:
      C. Freysoldt, S. Boeck, and J. Neugebauer, Phys. Rev. B 79, 241103(R) (2009)

   Linear-tetrahedron sampling for density of states:
      G. Lehmann and M. Taut, Phys. status solidi (b) 54, 469 (1972)

This list may not be complete. Please suggest additional citations or
report any other bugs at https://github.com/shankar1729/jdftx/issues

Initialization completed successfully at t[s]:   1665.02


Computing DFT-D3 correction:
# coordination-number Pt 7.126 8.720 5.563 9.550 9.559 9.560 9.554 9.544 7.157 9.544 9.554 7.157 9.560 9.559 9.550 8.720 7.126 5.562
# diagonal-C6 Pt 336.87 336.87 336.87 336.87 336.87 336.87 336.87 336.87 336.87 336.87 336.87 336.87 336.87 336.87 336.87 336.87 336.87 336.87
EvdW_6 =   -0.152132
EvdW_8 =   -0.247826
Fluid solver invoked on fresh (random / LCAO) wavefunctions
Running a vacuum solve first:

-------- Initial electronic minimization -----------
	FillingsUpdate:  mu: +0.130601956  nElectrons: 288.000000  magneticMoment: [ Abs: 0.00081  Tot: +0.00028 ]
ElecMinimize: Iter:   0  F: -1601.155469969186242  |grad|_K:  3.400e-05  alpha:  1.000e+00
	FillingsUpdate:  mu: +0.163942772  nElectrons: 288.000000  magneticMoment: [ Abs: 0.00070  Tot: +0.00030 ]
	SubspaceRotationAdjust: set factor to 0.543
ElecMinimize: Iter:   1  F: -1601.343122482964873  |grad|_K:  6.017e-05  alpha:  4.189e-01  linmin:  1.760e-05  t[s]:   1770.87
	FillingsUpdate:  mu: +0.164027565  nElectrons: 288.000000  magneticMoment: [ Abs: 0.00070  Tot: +0.00031 ]
	SubspaceRotationAdjust: set factor to 0.242
ElecMinimize: Iter:   2  F: -1601.349236665490253  |grad|_K:  3.734e-05  alpha:  8.058e-03  linmin:  2.114e-03  t[s]:   1836.72
ElecMinimize: 	Predicted alpha/alphaT>3.000000, increasing alphaT to 2.417268e-02.
	FillingsUpdate:  mu: +0.182108554  nElectrons: 288.000000  magneticMoment: [ Abs: 0.00068  Tot: +0.00031 ]
	SubspaceRotationAdjust: set factor to 0.324
ElecMinimize: Iter:   3  F: -1601.360146275997067  |grad|_K:  2.063e-05  alpha:  3.748e-02  linmin:  4.319e-06  t[s]:   1920.16
	FillingsUpdate:  mu: +0.196174321  nElectrons: 288.000000  magneticMoment: [ Abs: 0.00064  Tot: +0.00030 ]
	SubspaceRotationAdjust: set factor to 0.18
ElecMinimize: Iter:   4  F: -1601.374292374331162  |grad|_K:  4.052e-05  alpha:  8.493e-02  linmin: -5.084e-05  t[s]:   1986.08
	FillingsUpdate:  mu: +0.136878240  nElectrons: 288.000000  magneticMoment: [ Abs: 0.00057  Tot: +0.00029 ]
	SubspaceRotationAdjust: set factor to 0.246
ElecMinimize: Iter:   5  F: -1601.400756801128637  |grad|_K:  1.010e-05  alpha:  4.135e-02  linmin:  3.984e-05  t[s]:   2052.13
ElecMinimize: 	Predicted alpha/alphaT>3.000000, increasing alphaT to 1.240585e-01.
	FillingsUpdate:  mu: +0.160490288  nElectrons: 288.000000  magneticMoment: [ Abs: 0.00053  Tot: +0.00028 ]
	SubspaceRotationAdjust: set factor to 0.14
ElecMinimize: Iter:   6  F: -1601.406368642597045  |grad|_K:  1.722e-05  alpha:  1.422e-01  linmin:  1.058e-05  t[s]:   2134.66
	FillingsUpdate:  mu: +0.158973109  nElectrons: 288.000000  magneticMoment: [ Abs: 0.00050  Tot: +0.00028 ]
	SubspaceRotationAdjust: set factor to 0.0958
	SubspaceRotationAdjust: resetting CG because factor has changed by 0.0957911
ElecMinimize: 	State modified externally: resetting search direction.
ElecMinimize: Iter:   7  F: -1601.410235954674363  |grad|_K:  6.573e-06  alpha:  3.342e-02
ElecMinimize: 	Predicted alpha/alphaT>3.000000, increasing alphaT to 1.002645e-01.
	FillingsUpdate:  mu: +0.144536260  nElectrons: 288.000000  magneticMoment: [ Abs: 0.00048  Tot: +0.00028 ]
	SubspaceRotationAdjust: set factor to 0.0737
ElecMinimize: Iter:   8  F: -1601.413149952511276  |grad|_K:  5.510e-06  alpha:  1.730e-01  linmin: -1.848e-04  t[s]:   2319.40
	FillingsUpdate:  mu: +0.140276666  nElectrons: 288.000000  magneticMoment: [ Abs: 0.00046  Tot: +0.00027 ]
	SubspaceRotationAdjust: set factor to 0.0479
ElecMinimize: Iter:   9  F: -1601.414196372077186  |grad|_K:  3.982e-06  alpha:  8.851e-02  linmin:  3.567e-05  t[s]:   2385.61
ElecMinimize: 	Predicted alpha/alphaT>3.000000, increasing alphaT to 2.655242e-01.
	FillingsUpdate:  mu: +0.149087375  nElectrons: 288.000000  magneticMoment: [ Abs: 0.00041  Tot: +0.00027 ]
	SubspaceRotationAdjust: set factor to 0.0617
ElecMinimize: Iter:  10  F: -1601.416309520238883  |grad|_K:  2.805e-06  alpha:  3.427e-01  linmin: -5.395e-06  t[s]:   2467.95
	FillingsUpdate:  mu: +0.150051785  nElectrons: 288.000000  magneticMoment: [ Abs: 0.00039  Tot: +0.00027 ]
	SubspaceRotationAdjust: set factor to 0.0449
ElecMinimize: Iter:  11  F: -1601.417077822310830  |grad|_K:  3.210e-06  alpha:  2.508e-01  linmin: -1.937e-06  t[s]:   2534.85
	FillingsUpdate:  mu: +0.146646754  nElectrons: 288.000000  magneticMoment: [ Abs: 0.00037  Tot: +0.00026 ]
	SubspaceRotationAdjust: set factor to 0.035
ElecMinimize: Iter:  12  F: -1601.417686811105114  |grad|_K:  1.612e-06  alpha:  1.519e-01  linmin:  6.812e-07  t[s]:   2600.94
	FillingsUpdate:  mu: +0.144490245  nElectrons: 288.000000  magneticMoment: [ Abs: 0.00037  Tot: +0.00026 ]
	SubspaceRotationAdjust: set factor to 0.044
ElecMinimize: Iter:  13  F: -1601.418107393497849  |grad|_K:  1.122e-06  alpha:  4.158e-01  linmin:  9.379e-06  t[s]:   2666.98
	FillingsUpdate:  mu: +0.145962101  nElectrons: 288.000000  magneticMoment: [ Abs: 0.00037  Tot: +0.00026 ]
	SubspaceRotationAdjust: set factor to 0.0376
ElecMinimize: Iter:  14  F: -1601.418237093534344  |grad|_K:  1.044e-06  alpha:  2.647e-01  linmin:  1.562e-07  t[s]:   2732.87
	FillingsUpdate:  mu: +0.147487577  nElectrons: 288.000000  magneticMoment: [ Abs: 0.00038  Tot: +0.00025 ]
	SubspaceRotationAdjust: set factor to 0.0337
ElecMinimize: Iter:  15  F: -1601.418346397099640  |grad|_K:  8.080e-07  alpha:  2.577e-01  linmin: -1.513e-06  t[s]:   2799.68
	FillingsUpdate:  mu: +0.145380878  nElectrons: 288.000000  magneticMoment: [ Abs: 0.00039  Tot: +0.00025 ]
	SubspaceRotationAdjust: set factor to 0.0399
ElecMinimize: Iter:  16  F: -1601.418518740517811  |grad|_K:  8.077e-07  alpha:  6.792e-01  linmin:  1.231e-05  t[s]:   2865.71
	FillingsUpdate:  mu: +0.144354750  nElectrons: 288.000000  magneticMoment: [ Abs: 0.00039  Tot: +0.00024 ]
	SubspaceRotationAdjust: set factor to 0.0421
ElecMinimize: Iter:  17  F: -1601.418636658235528  |grad|_K:  7.964e-07  alpha:  4.657e-01  linmin:  8.701e-07  t[s]:   2931.74
	FillingsUpdate:  mu: +0.144671522  nElectrons: 288.000000  magneticMoment: [ Abs: 0.00039  Tot: +0.00024 ]
	SubspaceRotationAdjust: set factor to 0.0346
ElecMinimize: Iter:  18  F: -1601.418718982808969  |grad|_K:  9.330e-07  alpha:  3.335e-01  linmin:  2.763e-08  t[s]:   2997.74
	FillingsUpdate:  mu: +0.144978725  nElectrons: 288.000000  magneticMoment: [ Abs: 0.00039  Tot: +0.00023 ]
	SubspaceRotationAdjust: set factor to 0.0304
ElecMinimize: Iter:  19  F: -1601.418831146910406  |grad|_K:  7.132e-07  alpha:  3.309e-01  linmin: -9.184e-07  t[s]:   3063.57
	FillingsUpdate:  mu: +0.143252678  nElectrons: 288.000000  magneticMoment: [ Abs: 0.00036  Tot: +0.00023 ]
	SubspaceRotationAdjust: set factor to 0.0318
ElecMinimize: Iter:  20  F: -1601.418952560612524  |grad|_K:  7.646e-07  alpha:  6.132e-01  linmin:  2.101e-06  t[s]:   3130.36
	FillingsUpdate:  mu: +0.142930429  nElectrons: 288.000000  magneticMoment: [ Abs: 0.00033  Tot: +0.00022 ]
	SubspaceRotationAdjust: set factor to 0.0313
ElecMinimize: Iter:  21  F: -1601.419073542424258  |grad|_K:  6.771e-07  alpha:  5.322e-01  linmin: -1.732e-06  t[s]:   3196.50
	FillingsUpdate:  mu: +0.143088236  nElectrons: 288.000000  magneticMoment: [ Abs: 0.00031  Tot: +0.00021 ]
	SubspaceRotationAdjust: set factor to 0.0239
ElecMinimize: Iter:  22  F: -1601.419128539084795  |grad|_K:  5.515e-07  alpha:  3.081e-01  linmin:  2.081e-07  t[s]:   3262.46
	FillingsUpdate:  mu: +0.142764732  nElectrons: 288.000000  magneticMoment: [ Abs: 0.00029  Tot: +0.00021 ]
	SubspaceRotationAdjust: set factor to 0.0207
ElecMinimize: Iter:  23  F: -1601.419168232504489  |grad|_K:  4.170e-07  alpha:  3.351e-01  linmin: -1.352e-06  t[s]:   3328.38
	FillingsUpdate:  mu: +0.142142772  nElectrons: 288.000000  magneticMoment: [ Abs: 0.00027  Tot: +0.00021 ]
	SubspaceRotationAdjust: set factor to 0.023
ElecMinimize: Iter:  24  F: -1601.419199740688555  |grad|_K:  3.148e-07  alpha:  4.652e-01  linmin: -1.078e-06  t[s]:   3394.43
	FillingsUpdate:  mu: +0.142224686  nElectrons: 288.000000  magneticMoment: [ Abs: 0.00026  Tot: +0.00021 ]
	SubspaceRotationAdjust: set factor to 0.021
ElecMinimize: Iter:  25  F: -1601.419215978281727  |grad|_K:  2.700e-07  alpha:  4.206e-01  linmin: -4.895e-07  t[s]:   3460.50
	FillingsUpdate:  mu: +0.142314269  nElectrons: 288.000000  magneticMoment: [ Abs: 0.00025  Tot: +0.00021 ]
	SubspaceRotationAdjust: set factor to 0.0195
ElecMinimize: Iter:  26  F: -1601.419225967919601  |grad|_K:  1.775e-07  alpha:  3.519e-01  linmin: -2.884e-07  t[s]:   3526.43
	FillingsUpdate:  mu: +0.142193884  nElectrons: 288.000000  magneticMoment: [ Abs: 0.00025  Tot: +0.00020 ]
	SubspaceRotationAdjust: set factor to 0.0231
ElecMinimize: Iter:  27  F: -1601.419231166751842  |grad|_K:  1.385e-07  alpha:  4.237e-01  linmin: -2.864e-07  t[s]:   3592.50
	FillingsUpdate:  mu: +0.142195994  nElectrons: 288.000000  magneticMoment: [ Abs: 0.00025  Tot: +0.00020 ]
	SubspaceRotationAdjust: set factor to 0.0246
ElecMinimize: Iter:  28  F: -1601.419234809932959  |grad|_K:  1.309e-07  alpha:  4.880e-01  linmin:  3.472e-07  t[s]:   3658.40
	FillingsUpdate:  mu: +0.142275663  nElectrons: 288.000000  magneticMoment: [ Abs: 0.00024  Tot: +0.00020 ]
	SubspaceRotationAdjust: set factor to 0.025
ElecMinimize: Iter:  29  F: -1601.419237723076549  |grad|_K:  1.208e-07  alpha:  4.366e-01  linmin: -1.920e-07  t[s]:   3725.26
	FillingsUpdate:  mu: +0.142301419  nElectrons: 288.000000  magneticMoment: [ Abs: 0.00024  Tot: +0.00020 ]
	SubspaceRotationAdjust: set factor to 0.0286
ElecMinimize: Iter:  30  F: -1601.419240583730698  |grad|_K:  1.150e-07  alpha:  5.034e-01  linmin: -2.393e-07  t[s]:   3791.07
	FillingsUpdate:  mu: +0.142306571  nElectrons: 288.000000  magneticMoment: [ Abs: 0.00023  Tot: +0.00020 ]
	SubspaceRotationAdjust: set factor to 0.0326
ElecMinimize: Iter:  31  F: -1601.419243836724490  |grad|_K:  1.277e-07  alpha:  6.321e-01  linmin: -3.371e-07  t[s]:   3857.32
	FillingsUpdate:  mu: +0.142393107  nElectrons: 288.000000  magneticMoment: [ Abs: 0.00023  Tot: +0.00020 ]
	SubspaceRotationAdjust: set factor to 0.0312
ElecMinimize: Iter:  32  F: -1601.419247489094687  |grad|_K:  1.689e-07  alpha:  5.756e-01  linmin:  1.978e-08  t[s]:   3923.17
	FillingsUpdate:  mu: +0.142492989  nElectrons: 288.000000  magneticMoment: [ Abs: 0.00022  Tot: +0.00019 ]
	SubspaceRotationAdjust: set factor to 0.0259
ElecMinimize: Iter:  33  F: -1601.419251822845808  |grad|_K:  1.612e-07  alpha:  3.902e-01  linmin:  2.471e-07  t[s]:   3989.49
	FillingsUpdate:  mu: +0.142594016  nElectrons: 288.000000  magneticMoment: [ Abs: 0.00021  Tot: +0.00019 ]
	SubspaceRotationAdjust: set factor to 0.0262
ElecMinimize: Iter:  34  F: -1601.419256627984396  |grad|_K:  1.452e-07  alpha:  4.751e-01  linmin:  3.028e-07  t[s]:   4056.30
	FillingsUpdate:  mu: +0.142800798  nElectrons: 288.000000  magneticMoment: [ Abs: 0.00020  Tot: +0.00018 ]
	SubspaceRotationAdjust: set factor to 0.0273
ElecMinimize: Iter:  35  F: -1601.419261091956969  |grad|_K:  1.313e-07  alpha:  5.442e-01  linmin:  6.773e-07  t[s]:   4123.63
	FillingsUpdate:  mu: +0.142883596  nElectrons: 288.000000  magneticMoment: [ Abs: 0.00019  Tot: +0.00018 ]
	SubspaceRotationAdjust: set factor to 0.0245
ElecMinimize: Iter:  36  F: -1601.419264042323675  |grad|_K:  1.171e-07  alpha:  4.401e-01  linmin:  9.203e-08  t[s]:   4189.90
	FillingsUpdate:  mu: +0.142878649  nElectrons: 288.000000  magneticMoment: [ Abs: 0.00019  Tot: +0.00017 ]
	SubspaceRotationAdjust: set factor to 0.0202
ElecMinimize: Iter:  37  F: -1601.419265888319387  |grad|_K:  8.945e-08  alpha:  3.457e-01  linmin: -1.571e-07  t[s]:   4256.28
	FillingsUpdate:  mu: +0.142909375  nElectrons: 288.000000  magneticMoment: [ Abs: 0.00019  Tot: +0.00017 ]
	SubspaceRotationAdjust: set factor to 0.0221
ElecMinimize: Iter:  38  F: -1601.419267153059309  |grad|_K:  6.121e-08  alpha:  4.057e-01  linmin: -3.362e-07  t[s]:   4322.75
	FillingsUpdate:  mu: +0.142973355  nElectrons: 288.000000  magneticMoment: [ Abs: 0.00018  Tot: +0.00017 ]
	SubspaceRotationAdjust: set factor to 0.023
ElecMinimize: Iter:  39  F: -1601.419267764511460  |grad|_K:  4.762e-08  alpha:  4.189e-01  linmin: -1.199e-06  t[s]:   4388.97
	FillingsUpdate:  mu: +0.142976758  nElectrons: 288.000000  magneticMoment: [ Abs: 0.00018  Tot: +0.00017 ]
	SubspaceRotationAdjust: set factor to 0.0222
ElecMinimize: Iter:  40  F: -1601.419268118123910  |grad|_K:  3.801e-08  alpha:  4.001e-01  linmin: -8.326e-07  t[s]:   4455.17
	FillingsUpdate:  mu: +0.142955211  nElectrons: 288.000000  magneticMoment: [ Abs: 0.00018  Tot: +0.00017 ]
	SubspaceRotationAdjust: set factor to 0.0239
ElecMinimize: Iter:  41  F: -1601.419268344571265  |grad|_K:  2.970e-08  alpha:  4.022e-01  linmin: -2.129e-06  t[s]:   4521.31
	FillingsUpdate:  mu: +0.142966064  nElectrons: 288.000000  magneticMoment: [ Abs: 0.00018  Tot: +0.00017 ]
	SubspaceRotationAdjust: set factor to 0.029
ElecMinimize: Iter:  42  F: -1601.419268509724134  |grad|_K:  2.466e-08  alpha:  4.805e-01  linmin:  1.351e-07  t[s]:   4588.06
	FillingsUpdate:  mu: +0.142979404  nElectrons: 288.000000  magneticMoment: [ Abs: 0.00018  Tot: +0.00017 ]
	SubspaceRotationAdjust: set factor to 0.0312
ElecMinimize: Iter:  43  F: -1601.419268620370985  |grad|_K:  2.397e-08  alpha:  4.674e-01  linmin: -4.174e-06  t[s]:   4654.13
	FillingsUpdate:  mu: +0.142974899  nElectrons: 288.000000  magneticMoment: [ Abs: 0.00018  Tot: +0.00017 ]
	SubspaceRotationAdjust: set factor to 0.0298
ElecMinimize: Iter:  44  F: -1601.419268708206573  |grad|_K:  2.355e-08  alpha:  3.920e-01  linmin:  4.259e-06  t[s]:   4720.26
	FillingsUpdate:  mu: +0.142966266  nElectrons: 288.000000  magneticMoment: [ Abs: 0.00018  Tot: +0.00016 ]
	SubspaceRotationAdjust: set factor to 0.0303
ElecMinimize: Iter:  45  F: -1601.419268808928109  |grad|_K:  2.160e-08  alpha:  4.686e-01  linmin:  3.209e-06  t[s]:   4786.50
	FillingsUpdate:  mu: +0.142975474  nElectrons: 288.000000  magneticMoment: [ Abs: 0.00017  Tot: +0.00016 ]
	SubspaceRotationAdjust: set factor to 0.0331
ElecMinimize: Iter:  46  F: -1601.419268897773009  |grad|_K:  1.877e-08  alpha:  4.898e-01  linmin: -4.476e-06  t[s]:   4852.36
	FillingsUpdate:  mu: +0.142969442  nElectrons: 288.000000  magneticMoment: [ Abs: 0.00017  Tot: +0.00016 ]
	SubspaceRotationAdjust: set factor to 0.036
ElecMinimize: Iter:  47  F: -1601.419268967872313  |grad|_K:  1.659e-08  alpha:  5.089e-01  linmin:  1.928e-06  t[s]:   4918.74
ElecMinimize: Converged (|Delta F|<1.000000e-07 for 2 iters).
Setting wave functions to eigenvectors of Hamiltonian
Converging empty states (this may take a while): |deigs|: 2.576e-03
Vacuum energy after initial minimize, F = -1601.419268967872313


-------- Electronic minimization -----------
	Linear fluid (dielectric constant: 78.4, screening length: 8.12261 Bohr) occupying 0.536988 of unit cell:	Completed after 24 iterations at t[s]:   5168.70
	FillingsUpdate:  mu: -0.197514099  nElectrons: 288.000000  magneticMoment: [ Abs: 0.00015  Tot: +0.00014 ]
ElecMinimize: Iter:   0  F: -1601.423496468770054  |grad|_K:  6.554e-07  alpha:  1.000e+00
	Linear fluid (dielectric constant: 78.4, screening length: 8.12261 Bohr) occupying 0.537583 of unit cell:	Completed after 20 iterations at t[s]:   5224.96
	Linear fluid (dielectric constant: 78.4, screening length: 8.12261 Bohr) occupying 0.537198 of unit cell:	Completed after 20 iterations at t[s]:   5244.61
	FillingsUpdate:  mu: -0.195964207  nElectrons: 288.000000  magneticMoment: [ Abs: 0.00015  Tot: +0.00014 ]
	SubspaceRotationAdjust: set factor to 0.0284
ElecMinimize: Iter:   1  F: -1601.423555827703694  |grad|_K:  5.259e-07  alpha:  3.563e-01  linmin:  2.404e-06  t[s]:   5272.73
	Linear fluid (dielectric constant: 78.4, screening length: 8.12261 Bohr) occupying 0.537503 of unit cell:	Completed after 13 iterations at t[s]:   5296.67
	Linear fluid (dielectric constant: 78.4, screening length: 8.12261 Bohr) occupying 0.537867 of unit cell:	Completed after 15 iterations at t[s]:   5315.74
	FillingsUpdate:  mu: -0.193920315  nElectrons: 288.000000  magneticMoment: [ Abs: 0.00015  Tot: +0.00013 ]
	SubspaceRotationAdjust: set factor to 0.0322
ElecMinimize: Iter:   2  F: -1601.423640334794300  |grad|_K:  3.980e-07  alpha:  7.861e-01  linmin: -3.579e-07  t[s]:   5343.59
	Linear fluid (dielectric constant: 78.4, screening length: 8.12261 Bohr) occupying 0.538345 of unit cell:	Completed after 12 iterations at t[s]:   5367.25
	Linear fluid (dielectric constant: 78.4, screening length: 8.12261 Bohr) occupying 0.538199 of unit cell:	Completed after 6 iterations at t[s]:   5385.52
	FillingsUpdate:  mu: -0.194337976  nElectrons: 288.000000  magneticMoment: [ Abs: 0.00015  Tot: +0.00013 ]
	SubspaceRotationAdjust: set factor to 0.0363
ElecMinimize: Iter:   3  F: -1601.423673940587832  |grad|_K:  2.757e-07  alpha:  5.449e-01  linmin:  5.118e-08  t[s]:   5413.41
	Linear fluid (dielectric constant: 78.4, screening length: 8.12261 Bohr) occupying 0.538357 of unit cell:	Completed after 12 iterations at t[s]:   5437.18
	Linear fluid (dielectric constant: 78.4, screening length: 8.12261 Bohr) occupying 0.538376 of unit cell:	Completed after 2 iterations at t[s]:   5455.06
	FillingsUpdate:  mu: -0.193803328  nElectrons: 288.000000  magneticMoment: [ Abs: 0.00015  Tot: +0.00013 ]
	SubspaceRotationAdjust: set factor to 0.0437
ElecMinimize: Iter:   4  F: -1601.423692039960088  |grad|_K:  2.382e-07  alpha:  6.115e-01  linmin: -1.471e-08  t[s]:   5483.36
	Linear fluid (dielectric constant: 78.4, screening length: 8.12261 Bohr) occupying 0.538488 of unit cell:	Completed after 10 iterations at t[s]:   5506.90
	Linear fluid (dielectric constant: 78.4, screening length: 8.12261 Bohr) occupying 0.538515 of unit cell:	Completed after 7 iterations at t[s]:   5525.30
	FillingsUpdate:  mu: -0.193395868  nElectrons: 288.000000  magneticMoment: [ Abs: 0.00015  Tot: +0.00013 ]
	SubspaceRotationAdjust: set factor to 0.0532
ElecMinimize: Iter:   5  F: -1601.423708856968005  |grad|_K:  2.299e-07  alpha:  7.605e-01  linmin: -6.600e-07  t[s]:   5553.17
	Linear fluid (dielectric constant: 78.4, screening length: 8.12261 Bohr) occupying 0.538620 of unit cell:	Completed after 12 iterations at t[s]:   5576.97
	Linear fluid (dielectric constant: 78.4, screening length: 8.12261 Bohr) occupying 0.538635 of unit cell:	Completed after 3 iterations at t[s]:   5595.05
	FillingsUpdate:  mu: -0.193247262  nElectrons: 288.000000  magneticMoment: [ Abs: 0.00015  Tot: +0.00013 ]
	SubspaceRotationAdjust: set factor to 0.0611
ElecMinimize: Iter:   6  F: -1601.423726849413470  |grad|_K:  2.475e-07  alpha:  8.708e-01  linmin: -2.822e-07  t[s]:   5622.95
	Linear fluid (dielectric constant: 78.4, screening length: 8.12261 Bohr) occupying 0.538761 of unit cell:	Completed after 15 iterations at t[s]:   5647.05
	Linear fluid (dielectric constant: 78.4, screening length: 8.12261 Bohr) occupying 0.538740 of unit cell:	Completed after 8 iterations at t[s]:   5665.50
	FillingsUpdate:  mu: -0.192388831  nElectrons: 288.000000  magneticMoment: [ Abs: 0.00015  Tot: +0.00013 ]
	SubspaceRotationAdjust: set factor to 0.0623
ElecMinimize: Iter:   7  F: -1601.423744040281463  |grad|_K:  2.755e-07  alpha:  7.199e-01  linmin: -1.022e-07  t[s]:   5693.44
	Linear fluid (dielectric constant: 78.4, screening length: 8.12261 Bohr) occupying 0.538863 of unit cell:	Completed after 12 iterations at t[s]:   5717.26
	Linear fluid (dielectric constant: 78.4, screening length: 8.12261 Bohr) occupying 0.538816 of unit cell:	Completed after 10 iterations at t[s]:   5735.89
	FillingsUpdate:  mu: -0.192485640  nElectrons: 288.000000  magneticMoment: [ Abs: 0.00014  Tot: +0.00012 ]
	SubspaceRotationAdjust: set factor to 0.0506
ElecMinimize: Iter:   8  F: -1601.423756898411966  |grad|_K:  2.874e-07  alpha:  4.352e-01  linmin:  5.096e-08  t[s]:   5763.79
	Linear fluid (dielectric constant: 78.4, screening length: 8.12261 Bohr) occupying 0.538898 of unit cell:	Completed after 11 iterations at t[s]:   5788.73
	Linear fluid (dielectric constant: 78.4, screening length: 8.12261 Bohr) occupying 0.538897 of unit cell:	Completed after 0 iterations at t[s]:   5806.34
	FillingsUpdate:  mu: -0.192538932  nElectrons: 288.000000  magneticMoment: [ Abs: 0.00014  Tot: +0.00012 ]
	SubspaceRotationAdjust: set factor to 0.0441
ElecMinimize: Iter:   9  F: -1601.423770745677984  |grad|_K:  2.190e-07  alpha:  4.310e-01  linmin:  8.519e-08  t[s]:   5834.28
	Linear fluid (dielectric constant: 78.4, screening length: 8.12261 Bohr) occupying 0.538946 of unit cell:	Completed after 11 iterations at t[s]:   5858.01
	Linear fluid (dielectric constant: 78.4, screening length: 8.12261 Bohr) occupying 0.538965 of unit cell:	Completed after 10 iterations at t[s]:   5876.72
	FillingsUpdate:  mu: -0.191629946  nElectrons: 288.000000  magneticMoment: [ Abs: 0.00013  Tot: +0.00012 ]
	SubspaceRotationAdjust: set factor to 0.0438
ElecMinimize: Iter:  10  F: -1601.423782000546680  |grad|_K:  1.777e-07  alpha:  6.018e-01  linmin: -5.634e-07  t[s]:   5904.71
	Linear fluid (dielectric constant: 78.4, screening length: 8.12261 Bohr) occupying 0.539008 of unit cell:	Completed after 11 iterations at t[s]:   5928.34
	Linear fluid (dielectric constant: 78.4, screening length: 8.12261 Bohr) occupying 0.539005 of unit cell:	Completed after 2 iterations at t[s]:   5946.18
	FillingsUpdate:  mu: -0.192121238  nElectrons: 288.000000  magneticMoment: [ Abs: 0.00013  Tot: +0.00011 ]
	SubspaceRotationAdjust: set factor to 0.0436
ElecMinimize: Iter:  11  F: -1601.423788978475386  |grad|_K:  1.389e-07  alpha:  5.635e-01  linmin:  4.299e-08  t[s]:   5974.05
	Linear fluid (dielectric constant: 78.4, screening length: 8.12261 Bohr) occupying 0.539029 of unit cell:	Completed after 10 iterations at t[s]:   5997.67
	Linear fluid (dielectric constant: 78.4, screening length: 8.12261 Bohr) occupying 0.539029 of unit cell:	Completed after 0 iterations at t[s]:   6015.20
	FillingsUpdate:  mu: -0.191628553  nElectrons: 288.000000  magneticMoment: [ Abs: 0.00013  Tot: +0.00011 ]
	SubspaceRotationAdjust: set factor to 0.0467
ElecMinimize: Iter:  12  F: -1601.423793106877838  |grad|_K:  1.063e-07  alpha:  5.497e-01  linmin:  2.486e-07  t[s]:   6043.04
	Linear fluid (dielectric constant: 78.4, screening length: 8.12261 Bohr) occupying 0.539041 of unit cell:	Completed after 9 iterations at t[s]:   6066.53
	Linear fluid (dielectric constant: 78.4, screening length: 8.12261 Bohr) occupying 0.539041 of unit cell:	Completed after 0 iterations at t[s]:   6084.97
	FillingsUpdate:  mu: -0.191754490  nElectrons: 288.000000  magneticMoment: [ Abs: 0.00012  Tot: +0.00011 ]
	SubspaceRotationAdjust: set factor to 0.0502
ElecMinimize: Iter:  13  F: -1601.423795516832570  |grad|_K:  8.353e-08  alpha:  5.493e-01  linmin: -4.747e-07  t[s]:   6112.90
	Linear fluid (dielectric constant: 78.4, screening length: 8.12261 Bohr) occupying 0.539049 of unit cell:	Completed after 8 iterations at t[s]:   6136.31
	Linear fluid (dielectric constant: 78.4, screening length: 8.12261 Bohr) occupying 0.539048 of unit cell:	Completed after 1 iterations at t[s]:   6153.95
	FillingsUpdate:  mu: -0.191779805  nElectrons: 288.000000  magneticMoment: [ Abs: 0.00012  Tot: +0.00011 ]
	SubspaceRotationAdjust: set factor to 0.0477
ElecMinimize: Iter:  14  F: -1601.423796926721479  |grad|_K:  7.362e-08  alpha:  5.172e-01  linmin:  1.389e-06  t[s]:   6181.83
	Linear fluid (dielectric constant: 78.4, screening length: 8.12261 Bohr) occupying 0.539053 of unit cell:	Completed after 9 iterations at t[s]:   6205.33
	Linear fluid (dielectric constant: 78.4, screening length: 8.12261 Bohr) occupying 0.539052 of unit cell:	Completed after 4 iterations at t[s]:   6223.38
	FillingsUpdate:  mu: -0.191725773  nElectrons: 288.000000  magneticMoment: [ Abs: 0.00012  Tot: +0.00011 ]
	SubspaceRotationAdjust: set factor to 0.0411
ElecMinimize: Iter:  15  F: -1601.423797766360394  |grad|_K:  5.954e-08  alpha:  4.031e-01  linmin:  2.518e-07  t[s]:   6251.28
	Linear fluid (dielectric constant: 78.4, screening length: 8.12261 Bohr) occupying 0.539055 of unit cell:	Completed after 7 iterations at t[s]:   6274.66
	Linear fluid (dielectric constant: 78.4, screening length: 8.12261 Bohr) occupying 0.539056 of unit cell:	Completed after 2 iterations at t[s]:   6292.54
	FillingsUpdate:  mu: -0.191767214  nElectrons: 288.000000  magneticMoment: [ Abs: 0.00012  Tot: +0.00011 ]
	SubspaceRotationAdjust: set factor to 0.0445
ElecMinimize: Iter:  16  F: -1601.423798467666074  |grad|_K:  4.504e-08  alpha:  5.061e-01  linmin: -3.223e-06  t[s]:   6320.61
	Linear fluid (dielectric constant: 78.4, screening length: 8.12261 Bohr) occupying 0.539058 of unit cell:	Completed after 2 iterations at t[s]:   6343.33
	Linear fluid (dielectric constant: 78.4, screening length: 8.12261 Bohr) occupying 0.539058 of unit cell:	Completed after 2 iterations at t[s]:   6361.33
	FillingsUpdate:  mu: -0.191815756  nElectrons: 288.000000  magneticMoment: [ Abs: 0.00012  Tot: +0.00011 ]
	SubspaceRotationAdjust: set factor to 0.053
ElecMinimize: Iter:  17  F: -1601.423798991047306  |grad|_K:  3.915e-08  alpha:  6.499e-01  linmin:  4.323e-08  t[s]:   6389.40
	Linear fluid (dielectric constant: 78.4, screening length: 8.12261 Bohr) occupying 0.539060 of unit cell:	Completed after 6 iterations at t[s]:   6412.57
	Linear fluid (dielectric constant: 78.4, screening length: 8.12261 Bohr) occupying 0.539060 of unit cell:	Completed after 0 iterations at t[s]:   6430.04
	FillingsUpdate:  mu: -0.191833468  nElectrons: 288.000000  magneticMoment: [ Abs: 0.00011  Tot: +0.00010 ]
	SubspaceRotationAdjust: set factor to 0.0577
ElecMinimize: Iter:  18  F: -1601.423799363210037  |grad|_K:  3.852e-08  alpha:  6.240e-01  linmin:  4.179e-07  t[s]:   6457.89
	Linear fluid (dielectric constant: 78.4, screening length: 8.12261 Bohr) occupying 0.539061 of unit cell:	Completed after 8 iterations at t[s]:   6481.38
	Linear fluid (dielectric constant: 78.4, screening length: 8.12261 Bohr) occupying 0.539061 of unit cell:	Completed after 4 iterations at t[s]:   6499.42
	FillingsUpdate:  mu: -0.191873234  nElectrons: 288.000000  magneticMoment: [ Abs: 0.00011  Tot: +0.00010 ]
	SubspaceRotationAdjust: set factor to 0.0513
ElecMinimize: Iter:  19  F: -1601.423799613232632  |grad|_K:  3.914e-08  alpha:  4.338e-01  linmin:  1.529e-06  t[s]:   6527.39
	Linear fluid (dielectric constant: 78.4, screening length: 8.12261 Bohr) occupying 0.539062 of unit cell:	Completed after 6 iterations at t[s]:   6550.57
	Linear fluid (dielectric constant: 78.4, screening length: 8.12261 Bohr) occupying 0.539062 of unit cell:	Completed after 0 iterations at t[s]:   6568.06
	FillingsUpdate:  mu: -0.191895358  nElectrons: 288.000000  magneticMoment: [ Abs: 0.00011  Tot: +0.00010 ]
	SubspaceRotationAdjust: set factor to 0.0458
ElecMinimize: Iter:  20  F: -1601.423799857483800  |grad|_K:  3.128e-08  alpha:  4.144e-01  linmin: -6.132e-07  t[s]:   6595.95
	Linear fluid (dielectric constant: 78.4, screening length: 8.12261 Bohr) occupying 0.539062 of unit cell:	Completed after 2 iterations at t[s]:   6618.69
	Linear fluid (dielectric constant: 78.4, screening length: 8.12261 Bohr) occupying 0.539062 of unit cell:	Completed after 2 iterations at t[s]:   6636.38
	FillingsUpdate:  mu: -0.191920802  nElectrons: 288.000000  magneticMoment: [ Abs: 0.00011  Tot: +0.00010 ]
	SubspaceRotationAdjust: set factor to 0.0523
ElecMinimize: Iter:  21  F: -1601.423800095666593  |grad|_K:  2.617e-08  alpha:  6.208e-01  linmin: -1.992e-06  t[s]:   6664.23
	Linear fluid (dielectric constant: 78.4, screening length: 8.12261 Bohr) occupying 0.539061 of unit cell:	Completed after 4 iterations at t[s]:   6688.09
	Linear fluid (dielectric constant: 78.4, screening length: 8.12261 Bohr) occupying 0.539061 of unit cell:	Completed after 0 iterations at t[s]:   6705.63
	FillingsUpdate:  mu: -0.191965279  nElectrons: 288.000000  magneticMoment: [ Abs: 0.00010  Tot: +0.00010 ]
	SubspaceRotationAdjust: set factor to 0.0583
ElecMinimize: Iter:  22  F: -1601.423800266449234  |grad|_K:  2.302e-08  alpha:  6.314e-01  linmin: -2.092e-06  t[s]:   6733.54
	Linear fluid (dielectric constant: 78.4, screening length: 8.12261 Bohr) occupying 0.539060 of unit cell:	Completed after 6 iterations at t[s]:   6756.95
	Linear fluid (dielectric constant: 78.4, screening length: 8.12261 Bohr) occupying 0.539060 of unit cell:	Completed after 0 iterations at t[s]:   6774.52
	FillingsUpdate:  mu: -0.191972272  nElectrons: 288.000000  magneticMoment: [ Abs: 0.00010  Tot: +0.00010 ]
	SubspaceRotationAdjust: set factor to 0.0544
ElecMinimize: Iter:  23  F: -1601.423800377038560  |grad|_K:  2.386e-08  alpha:  5.220e-01  linmin:  1.116e-05  t[s]:   6802.42
	Linear fluid (dielectric constant: 78.4, screening length: 8.12261 Bohr) occupying 0.539059 of unit cell:	Completed after 6 iterations at t[s]:   6825.76
	Linear fluid (dielectric constant: 78.4, screening length: 8.12261 Bohr) occupying 0.539059 of unit cell:	Completed after 2 iterations at t[s]:   6843.46
	FillingsUpdate:  mu: -0.192008853  nElectrons: 288.000000  magneticMoment: [ Abs: 0.00010  Tot: +0.00010 ]
	SubspaceRotationAdjust: set factor to 0.0413
ElecMinimize: Iter:  24  F: -1601.423800432477037  |grad|_K:  1.953e-08  alpha:  2.876e-01  linmin:  5.500e-06  t[s]:   6871.34
	Linear fluid (dielectric constant: 78.4, screening length: 8.12261 Bohr) occupying 0.539058 of unit cell:	Completed after 3 iterations at t[s]:   6894.21
	Linear fluid (dielectric constant: 78.4, screening length: 8.12261 Bohr) occupying 0.539058 of unit cell:	Completed after 0 iterations at t[s]:   6911.74
	FillingsUpdate:  mu: -0.192010942  nElectrons: 288.000000  magneticMoment: [ Abs: 0.00010  Tot: +0.00009 ]
	SubspaceRotationAdjust: set factor to 0.0536
ElecMinimize: Iter:  25  F: -1601.423800491115571  |grad|_K:  1.248e-08  alpha:  3.946e-01  linmin: -2.921e-05  t[s]:   6939.62
ElecMinimize: Converged (|Delta F|<1.000000e-07 for 2 iters).
Setting wave functions to eigenvectors of Hamiltonian
Converging empty states (this may take a while): |deigs|: 1.331e-04
Single-point solvation energy estimate, DeltaF = -0.004531523243259

Computing DFT-D3 correction:
# coordination-number Pt 7.126 8.720 5.563 9.550 9.559 9.560 9.554 9.544 7.157 9.544 9.554 7.157 9.560 9.559 9.550 8.720 7.126 5.562
# diagonal-C6 Pt 336.87 336.87 336.87 336.87 336.87 336.87 336.87 336.87 336.87 336.87 336.87 336.87 336.87 336.87 336.87 336.87 336.87 336.87
EvdW_6 =   -0.152132
EvdW_8 =   -0.247826

# Ionic positions in cartesian coordinates:
ion Pt   0.000000000000000   6.975987000000000  64.742620999999986 1
ion Pt   0.000000000000000  13.951988999999998  62.276236999999995 1
ion Pt   5.231995999999999   0.000000000000000  45.011551999999995 1
ion Pt   0.000000000000000   5.231990000000000  59.809853999999987 1
ion Pt   0.000000000000000  12.207992000000001  57.343469999999989 1
ion Pt   0.000000000000000   3.487993000000000  54.877085999999991 1
ion Pt   0.000000000000000  10.463996000000000  52.410702999999991 1
ion Pt   5.231995999999999   1.743997000000000  49.944318999999986 1
ion Pt   5.231995999999999   8.719999000000000  47.477935999999993 1
ion Pt   2.615997999999999   9.591989999999999  61.043078999999992 1
ion Pt   2.615997999999999   0.872006000000000  58.576694999999994 1
ion Pt   2.615997999999999   2.616003000000000  63.509462999999982 1
ion Pt   2.615997999999999   7.847993000000000  56.110311999999986 1
ion Pt   2.615997999999999  14.823980000000001  53.643927999999995 1
ion Pt   2.615997999999999   6.103996000000000  51.177543999999990 1
ion Pt   2.615997999999999  13.079982999999999  48.711093999999996 1
ion Pt   2.615997999999999   4.360000000000000  46.244709999999991 1
ion Pt   2.615997999999999  11.335986000000000  65.975845999999990 1

# Forces in Cartesian coordinates:
force Pt   0.000002524003777  -0.006575038264415   0.007862560793780 1
force Pt   0.000001098081548   0.010467298665566   0.016867758134354 1
force Pt   0.000000808014033   0.006511055350657   0.013321316497427 1
force Pt   0.000000150512467  -0.000111654801822  -0.009189797552224 1
force Pt   0.000000361881657   0.001007567478680  -0.003556471127010 1
force Pt  -0.000000267247047  -0.001277084627446  -0.002131023704328 1
force Pt  -0.000001877412359   0.000718537187083   0.001740488190432 1
force Pt  -0.000000051569725  -0.002433719893380   0.008460226949087 1
force Pt  -0.000000305411386  -0.002397705471118  -0.009360921142829 1
force Pt  -0.000000952506713   0.002375165971672  -0.008449911933284 1
force Pt   0.000004363143677  -0.000651969417976  -0.001760070400131 1
force Pt   0.000003444358059   0.002434254899648   0.009455992829819 1
force Pt  -0.000000523590924   0.001218691030762   0.002006897532178 1
force Pt   0.000000684521761  -0.000960152017265   0.003504420374531 1
force Pt  -0.000000530002998   0.000096085622636   0.009183033214631 1
force Pt  -0.000002074570342  -0.010463482032698  -0.016815549428099 1
force Pt  -0.000002332260706   0.006627206348109  -0.007569115872298 1
force Pt   0.000000196644812  -0.006595932817602  -0.013133509801865 1

# Energy components:
   A_diel =       -0.0048930153353098
   Eewald =    14291.9126816990192310
       EH =    15744.2100743349747063
     Eloc =   -31915.3064869941335928
      Enl =      -19.0306818519000203
     EvdW =       -0.3999586530968838
      Exc =     -512.0169703628246225
 Exc_core =      295.0448653549419191
       KE =      514.1708470430938860
-------------------------------------
     Etot =    -1601.4205224452607581
       TS =        0.0032780458547518
-------------------------------------
        F =    -1601.4238004911155713


Dumping 'jdft.fillings' ... done
Dumping 'jdft.wfns' ... done
Dumping 'jdft.fluidState' ... done
Dumping 'jdft.ionpos' ... done
Dumping 'jdft.lattice' ... done
Dumping 'jdft.eigenvals' ... done
Dumping 'jdft.eigStats' ... 
	eMin: -2.142544 at state 24 ( [ +0.500000 +0.000000 +0.000000 ] spin 1 )
	HOMO: -0.192136 at state 90 ( [ -0.166667 +0.500000 +0.000000 ] spin -1 )
	mu  : -0.192011
	LUMO: -0.191838 at state 8 ( [ +0.166667 +0.000000 +0.000000 ] spin 1 )
	eMax: +0.111481 at state 70 ( [ +0.416667 +0.500000 +0.000000 ] spin -1 )
	HOMO-LUMO gap: +0.000297
	Optical gap  : +0.000434 at state 78 ( [ -0.416667 +0.500000 +0.000000 ] spin -1 )
Dumping 'jdft.Ecomponents' ... done
IonicMinimize: Iter:   0  F: -1601.423800491115571  |grad|_K:  6.065e-03  t[s]:   7163.00

#--- Lowdin population analysis ---
# oxidation-state Pt -0.007 -0.044 +0.065 +0.010 +0.014 +0.014 +0.011 +0.010 +0.022 +0.009 +0.010 +0.021 +0.014 +0.014 +0.011 -0.044 -0.006 +0.065
# magnetic-moments Pt +0.000 +0.000 +0.000 +0.000 +0.000 +0.000 +0.000 +0.000 +0.000 +0.000 +0.000 +0.000 +0.000 +0.000 +0.000 +0.000 +0.000 +0.000


Computing DFT-D3 correction:
# coordination-number Pt 7.113 8.706 5.587 9.539 9.563 9.576 9.544 9.524 7.154 9.523 9.544 7.154 9.576 9.563 9.539 8.706 7.113 5.587
# diagonal-C6 Pt 336.87 336.87 336.87 336.87 336.87 336.87 336.87 336.87 336.87 336.87 336.87 336.87 336.87 336.87 336.87 336.87 336.87 336.87
EvdW_6 =   -0.152140
EvdW_8 =   -0.247773

-------- Electronic minimization -----------
	Linear fluid (dielectric constant: 78.4, screening length: 8.12261 Bohr) occupying 0.539114 of unit cell:	Completed after 16 iterations at t[s]:   7190.09
	FillingsUpdate:  mu: -0.190936607  nElectrons: 288.000000  magneticMoment: [ Abs: 0.00013  Tot: +0.00008 ]
ElecMinimize: Iter:   0  F: -1601.425328502453340  |grad|_K:  8.369e-07  alpha:  1.000e+00
	Linear fluid (dielectric constant: 78.4, screening length: 8.12261 Bohr) occupying 0.539124 of unit cell:	Completed after 20 iterations at t[s]:   7246.45
	Linear fluid (dielectric constant: 78.4, screening length: 8.12261 Bohr) occupying 0.539116 of unit cell:	Completed after 18 iterations at t[s]:   7265.68
	FillingsUpdate:  mu: -0.192685940  nElectrons: 288.000000  magneticMoment: [ Abs: 0.00014  Tot: +0.00008 ]
	SubspaceRotationAdjust: set factor to 0.0501
ElecMinimize: Iter:   1  F: -1601.425424433994976  |grad|_K:  4.580e-07  alpha:  3.519e-01  linmin:  6.049e-05  t[s]:   7293.93
	Linear fluid (dielectric constant: 78.4, screening length: 8.12261 Bohr) occupying 0.539122 of unit cell:	Completed after 15 iterations at t[s]:   7318.04
	Linear fluid (dielectric constant: 78.4, screening length: 8.12261 Bohr) occupying 0.539122 of unit cell:	Completed after 6 iterations at t[s]:   7336.30
	FillingsUpdate:  mu: -0.192004760  nElectrons: 288.000000  magneticMoment: [ Abs: 0.00014  Tot: +0.00008 ]
	SubspaceRotationAdjust: set factor to 0.0454
ElecMinimize: Iter:   2  F: -1601.425452080348805  |grad|_K:  3.542e-07  alpha:  3.386e-01  linmin:  9.965e-05  t[s]:   7364.27
	Linear fluid (dielectric constant: 78.4, screening length: 8.12261 Bohr) occupying 0.539127 of unit cell:	Completed after 11 iterations at t[s]:   7387.98
	Linear fluid (dielectric constant: 78.4, screening length: 8.12261 Bohr) occupying 0.539131 of unit cell:	Completed after 10 iterations at t[s]:   7406.63
	FillingsUpdate:  mu: -0.191450577  nElectrons: 288.000000  magneticMoment: [ Abs: 0.00015  Tot: +0.00008 ]
	SubspaceRotationAdjust: set factor to 0.0509
ElecMinimize: Iter:   3  F: -1601.425479142683798  |grad|_K:  3.312e-07  alpha:  5.541e-01  linmin: -6.939e-05  t[s]:   7434.49
	Linear fluid (dielectric constant: 78.4, screening length: 8.12261 Bohr) occupying 0.539143 of unit cell:	Completed after 12 iterations at t[s]:   7458.25
	Linear fluid (dielectric constant: 78.4, screening length: 8.12261 Bohr) occupying 0.539147 of unit cell:	Completed after 10 iterations at t[s]:   7476.93
	FillingsUpdate:  mu: -0.192664036  nElectrons: 288.000000  magneticMoment: [ Abs: 0.00016  Tot: +0.00008 ]
	SubspaceRotationAdjust: set factor to 0.0568
ElecMinimize: Iter:   4  F: -1601.425511171371909  |grad|_K:  3.704e-07  alpha:  7.492e-01  linmin: -9.480e-06  t[s]:   7504.73
	Linear fluid (dielectric constant: 78.4, screening length: 8.12261 Bohr) occupying 0.539173 of unit cell:	Completed after 13 iterations at t[s]:   7528.80
	Linear fluid (dielectric constant: 78.4, screening length: 8.12261 Bohr) occupying 0.539173 of unit cell:	Completed after 2 iterations at t[s]:   7546.70
	FillingsUpdate:  mu: -0.191196104  nElectrons: 288.000000  magneticMoment: [ Abs: 0.00017  Tot: +0.00008 ]
	SubspaceRotationAdjust: set factor to 0.0587
ElecMinimize: Iter:   5  F: -1601.425550485562553  |grad|_K:  4.043e-07  alpha:  7.357e-01  linmin:  1.497e-05  t[s]:   7575.53
	Linear fluid (dielectric constant: 78.4, screening length: 8.12261 Bohr) occupying 0.539198 of unit cell:	Completed after 14 iterations at t[s]:   7599.49
	Linear fluid (dielectric constant: 78.4, screening length: 8.12261 Bohr) occupying 0.539194 of unit cell:	Completed after 9 iterations at t[s]:   7617.94
	FillingsUpdate:  mu: -0.192324725  nElectrons: 288.000000  magneticMoment: [ Abs: 0.00016  Tot: +0.00007 ]
	SubspaceRotationAdjust: set factor to 0.0537
ElecMinimize: Iter:   6  F: -1601.425590867622532  |grad|_K:  4.625e-07  alpha:  6.353e-01  linmin: -2.246e-05  t[s]:   7645.83
	Linear fluid (dielectric constant: 78.4, screening length: 8.12261 Bohr) occupying 0.539216 of unit cell:	Completed after 12 iterations at t[s]:   7669.62
	Linear fluid (dielectric constant: 78.4, screening length: 8.12261 Bohr) occupying 0.539208 of unit cell:	Completed after 10 iterations at t[s]:   7688.44
	FillingsUpdate:  mu: -0.192332956  nElectrons: 288.000000  magneticMoment: [ Abs: 0.00016  Tot: +0.00007 ]
	SubspaceRotationAdjust: set factor to 0.0418
ElecMinimize: Iter:   7  F: -1601.425624191723955  |grad|_K:  3.947e-07  alpha:  4.001e-01  linmin:  5.168e-07  t[s]:   7716.31
	Linear fluid (dielectric constant: 78.4, screening length: 8.12261 Bohr) occupying 0.539211 of unit cell:	Completed after 13 iterations at t[s]:   7740.21
	Linear fluid (dielectric constant: 78.4, screening length: 8.12261 Bohr) occupying 0.539212 of unit cell:	Completed after 8 iterations at t[s]:   7758.66
	FillingsUpdate:  mu: -0.191367331  nElectrons: 288.000000  magneticMoment: [ Abs: 0.00014  Tot: +0.00007 ]
	SubspaceRotationAdjust: set factor to 0.0366
ElecMinimize: Iter:   8  F: -1601.425651877848850  |grad|_K:  3.118e-07  alpha:  4.564e-01  linmin: -3.975e-06  t[s]:   7786.57
	Linear fluid (dielectric constant: 78.4, screening length: 8.12261 Bohr) occupying 0.539204 of unit cell:	Completed after 11 iterations at t[s]:   7810.20
	Linear fluid (dielectric constant: 78.4, screening length: 8.12261 Bohr) occupying 0.539203 of unit cell:	Completed after 6 iterations at t[s]:   7828.51
	FillingsUpdate:  mu: -0.192319195  nElectrons: 288.000000  magneticMoment: [ Abs: 0.00012  Tot: +0.00007 ]
	SubspaceRotationAdjust: set factor to 0.0378
ElecMinimize: Iter:   9  F: -1601.425671853838594  |grad|_K:  2.261e-07  alpha:  5.277e-01  linmin: -2.474e-05  t[s]:   7856.51
	Linear fluid (dielectric constant: 78.4, screening length: 8.12261 Bohr) occupying 0.539192 of unit cell:	Completed after 10 iterations at t[s]:   7880.78
	Linear fluid (dielectric constant: 78.4, screening length: 8.12261 Bohr) occupying 0.539193 of unit cell:	Completed after 6 iterations at t[s]:   7899.04
	FillingsUpdate:  mu: -0.192205267  nElectrons: 288.000000  magneticMoment: [ Abs: 0.00010  Tot: +0.00007 ]
	SubspaceRotationAdjust: set factor to 0.0335
ElecMinimize: Iter:  10  F: -1601.425680839824963  |grad|_K:  1.636e-07  alpha:  4.511e-01  linmin:  3.186e-05  t[s]:   7926.94
	Linear fluid (dielectric constant: 78.4, screening length: 8.12261 Bohr) occupying 0.539185 of unit cell:	Completed after 10 iterations at t[s]:   7950.53
	Linear fluid (dielectric constant: 78.4, screening length: 8.12261 Bohr) occupying 0.539186 of unit cell:	Completed after 2 iterations at t[s]:   7968.52
	FillingsUpdate:  mu: -0.191950571  nElectrons: 288.000000  magneticMoment: [ Abs: 0.00009  Tot: +0.00007 ]
	SubspaceRotationAdjust: set factor to 0.0288
ElecMinimize: Iter:  11  F: -1601.425685250285142  |grad|_K:  1.150e-07  alpha:  4.237e-01  linmin:  1.108e-04  t[s]:   7996.39
	Linear fluid (dielectric constant: 78.4, screening length: 8.12261 Bohr) occupying 0.539181 of unit cell:	Completed after 9 iterations at t[s]:   8019.89
	Linear fluid (dielectric constant: 78.4, screening length: 8.12261 Bohr) occupying 0.539181 of unit cell:	Completed after 1 iterations at t[s]:   8037.73
	FillingsUpdate:  mu: -0.192166931  nElectrons: 288.000000  magneticMoment: [ Abs: 0.00008  Tot: +0.00006 ]
	SubspaceRotationAdjust: set factor to 0.0314
ElecMinimize: Iter:  12  F: -1601.425687674307255  |grad|_K:  7.561e-08  alpha:  4.712e-01  linmin: -4.523e-04  t[s]:   8065.84
	Linear fluid (dielectric constant: 78.4, screening length: 8.12261 Bohr) occupying 0.539179 of unit cell:	Completed after 6 iterations at t[s]:   8089.07
	Linear fluid (dielectric constant: 78.4, screening length: 8.12261 Bohr) occupying 0.539179 of unit cell:	Completed after 0 iterations at t[s]:   8106.59
	FillingsUpdate:  mu: -0.192185044  nElectrons: 288.000000  magneticMoment: [ Abs: 0.00008  Tot: +0.00006 ]
	SubspaceRotationAdjust: set factor to 0.0327
ElecMinimize: Iter:  13  F: -1601.425688713816726  |grad|_K:  5.569e-08  alpha:  4.639e-01  linmin: -1.182e-04  t[s]:   8134.52
	Linear fluid (dielectric constant: 78.4, screening length: 8.12261 Bohr) occupying 0.539179 of unit cell:	Completed after 7 iterations at t[s]:   8157.96
	Linear fluid (dielectric constant: 78.4, screening length: 8.12261 Bohr) occupying 0.539179 of unit cell:	Completed after 0 iterations at t[s]:   8176.33
	FillingsUpdate:  mu: -0.192100117  nElectrons: 288.000000  magneticMoment: [ Abs: 0.00007  Tot: +0.00006 ]
	SubspaceRotationAdjust: set factor to 0.0332
ElecMinimize: Iter:  14  F: -1601.425689281576751  |grad|_K:  4.011e-08  alpha:  4.693e-01  linmin: -5.942e-04  t[s]:   8204.28
	Linear fluid (dielectric constant: 78.4, screening length: 8.12261 Bohr) occupying 0.539179 of unit cell:	Completed after 2 iterations at t[s]:   8227.11
	Linear fluid (dielectric constant: 78.4, screening length: 8.12261 Bohr) occupying 0.539179 of unit cell:	Completed after 0 iterations at t[s]:   8244.68
	FillingsUpdate:  mu: -0.192126817  nElectrons: 288.000000  magneticMoment: [ Abs: 0.00007  Tot: +0.00006 ]
	SubspaceRotationAdjust: set factor to 0.0396
ElecMinimize: Iter:  15  F: -1601.425689597644123  |grad|_K:  3.277e-08  alpha:  5.001e-01  linmin: -5.823e-04  t[s]:   8272.51
	Linear fluid (dielectric constant: 78.4, screening length: 8.12261 Bohr) occupying 0.539180 of unit cell:	Completed after 2 iterations at t[s]:   8295.35
	Linear fluid (dielectric constant: 78.4, screening length: 8.12261 Bohr) occupying 0.539180 of unit cell:	Completed after 0 iterations at t[s]:   8312.90
	FillingsUpdate:  mu: -0.192154903  nElectrons: 288.000000  magneticMoment: [ Abs: 0.00007  Tot: +0.00006 ]
	SubspaceRotationAdjust: set factor to 0.0455
ElecMinimize: Iter:  16  F: -1601.425689809245796  |grad|_K:  2.867e-08  alpha:  5.013e-01  linmin: -8.019e-04  t[s]:   8340.81
	Linear fluid (dielectric constant: 78.4, screening length: 8.12261 Bohr) occupying 0.539181 of unit cell:	Completed after 2 iterations at t[s]:   8363.59
	Linear fluid (dielectric constant: 78.4, screening length: 8.12261 Bohr) occupying 0.539181 of unit cell:	Completed after 0 iterations at t[s]:   8381.09
	FillingsUpdate:  mu: -0.192133926  nElectrons: 288.000000  magneticMoment: [ Abs: 0.00007  Tot: +0.00006 ]
	SubspaceRotationAdjust: set factor to 0.0509
ElecMinimize: Iter:  17  F: -1601.425689981716914  |grad|_K:  2.683e-08  alpha:  5.299e-01  linmin: -5.877e-04  t[s]:   8408.91
	Linear fluid (dielectric constant: 78.4, screening length: 8.12261 Bohr) occupying 0.539183 of unit cell:	Completed after 2 iterations at t[s]:   8431.79
	Linear fluid (dielectric constant: 78.4, screening length: 8.12261 Bohr) occupying 0.539183 of unit cell:	Completed after 0 iterations at t[s]:   8449.32
	FillingsUpdate:  mu: -0.192103418  nElectrons: 288.000000  magneticMoment: [ Abs: 0.00007  Tot: +0.00006 ]
	SubspaceRotationAdjust: set factor to 0.0607
ElecMinimize: Iter:  18  F: -1601.425690133801709  |grad|_K:  2.646e-08  alpha:  5.324e-01  linmin: -2.150e-04  t[s]:   8478.09
	Linear fluid (dielectric constant: 78.4, screening length: 8.12261 Bohr) occupying 0.539184 of unit cell:	Completed after 4 iterations at t[s]:   8501.07
	Linear fluid (dielectric constant: 78.4, screening length: 8.12261 Bohr) occupying 0.539184 of unit cell:	Completed after 0 iterations at t[s]:   8518.70
	FillingsUpdate:  mu: -0.192105216  nElectrons: 288.000000  magneticMoment: [ Abs: 0.00007  Tot: +0.00006 ]
	SubspaceRotationAdjust: set factor to 0.0625
ElecMinimize: Iter:  19  F: -1601.425690275181523  |grad|_K:  2.812e-08  alpha:  5.129e-01  linmin:  3.182e-04  t[s]:   8546.50
	Linear fluid (dielectric constant: 78.4, screening length: 8.12261 Bohr) occupying 0.539186 of unit cell:	Completed after 5 iterations at t[s]:   8569.66
	Linear fluid (dielectric constant: 78.4, screening length: 8.12261 Bohr) occupying 0.539186 of unit cell:	Completed after 2 iterations at t[s]:   8587.42
	FillingsUpdate:  mu: -0.192101232  nElectrons: 288.000000  magneticMoment: [ Abs: 0.00007  Tot: +0.00006 ]
	SubspaceRotationAdjust: set factor to 0.0592
ElecMinimize: Iter:  20  F: -1601.425690389484998  |grad|_K:  2.537e-08  alpha:  3.779e-01  linmin:  2.796e-04  t[s]:   8615.22
	Linear fluid (dielectric constant: 78.4, screening length: 8.12261 Bohr) occupying 0.539187 of unit cell:	Completed after 3 iterations at t[s]:   8638.07
	Linear fluid (dielectric constant: 78.4, screening length: 8.12261 Bohr) occupying 0.539188 of unit cell:	Completed after 0 iterations at t[s]:   8655.57
	FillingsUpdate:  mu: -0.192077702  nElectrons: 288.000000  magneticMoment: [ Abs: 0.00006  Tot: +0.00006 ]
	SubspaceRotationAdjust: set factor to 0.0693
ElecMinimize: Iter:  21  F: -1601.425690512113533  |grad|_K:  2.107e-08  alpha:  4.937e-01  linmin: -6.080e-04  t[s]:   8683.37
	Linear fluid (dielectric constant: 78.4, screening length: 8.12261 Bohr) occupying 0.539189 of unit cell:	Completed after 5 iterations at t[s]:   8706.53
	Linear fluid (dielectric constant: 78.4, screening length: 8.12261 Bohr) occupying 0.539189 of unit cell:	Completed after 0 iterations at t[s]:   8724.01
	FillingsUpdate:  mu: -0.192035863  nElectrons: 288.000000  magneticMoment: [ Abs: 0.00006  Tot: +0.00006 ]
	SubspaceRotationAdjust: set factor to 0.0631
ElecMinimize: Iter:  22  F: -1601.425690584516360  |grad|_K:  2.563e-08  alpha:  4.118e-01  linmin: -2.708e-04  t[s]:   8751.96
	Linear fluid (dielectric constant: 78.4, screening length: 8.12261 Bohr) occupying 0.539191 of unit cell:	Completed after 6 iterations at t[s]:   8776.19
	Linear fluid (dielectric constant: 78.4, screening length: 8.12261 Bohr) occupying 0.539190 of unit cell:	Completed after 3 iterations at t[s]:   8794.09
	FillingsUpdate:  mu: -0.192050078  nElectrons: 288.000000  magneticMoment: [ Abs: 0.00006  Tot: +0.00006 ]
	SubspaceRotationAdjust: set factor to 0.0496
ElecMinimize: Iter:  23  F: -1601.425690635557885  |grad|_K:  1.859e-08  alpha:  2.028e-01  linmin:  7.712e-04  t[s]:   8822.04
ElecMinimize: Converged (|Delta F|<1.000000e-07 for 2 iters).
Setting wave functions to eigenvectors of Hamiltonian
Converging empty states (this may take a while): |deigs|: 2.337e-08

Computing DFT-D3 correction:
# coordination-number Pt 7.113 8.706 5.587 9.539 9.563 9.576 9.544 9.524 7.154 9.523 9.544 7.154 9.576 9.563 9.539 8.706 7.113 5.587
# diagonal-C6 Pt 336.87 336.87 336.87 336.87 336.87 336.87 336.87 336.87 336.87 336.87 336.87 336.87 336.87 336.87 336.87 336.87 336.87 336.87
EvdW_6 =   -0.152140
EvdW_8 =   -0.247773
IonicMinimize: 	Wolfe criterion not satisfied: alpha: 1  (E-E0)/|gdotd0|: -0.951681  gdotd/gdotd0: 0.905921 (taking cubic step)

Computing DFT-D3 correction:
# coordination-number Pt 7.084 8.673 5.634 9.515 9.568 9.608 9.523 9.481 7.147 9.479 9.523 7.147 9.608 9.569 9.515 8.674 7.085 5.634
# diagonal-C6 Pt 336.87 336.87 336.87 336.87 336.87 336.87 336.87 336.87 336.87 336.87 336.87 336.87 336.87 336.87 336.87 336.87 336.87 336.87
EvdW_6 =   -0.152152
EvdW_8 =   -0.247678

-------- Electronic minimization -----------
	Linear fluid (dielectric constant: 78.4, screening length: 8.12261 Bohr) occupying 0.539205 of unit cell:	Completed after 23 iterations at t[s]:   8917.03
	FillingsUpdate:  mu: -0.163677986  nElectrons: 288.000000  magneticMoment: [ Abs: 0.00006  Tot: +0.00005 ]
ElecMinimize: Iter:   0  F: -1601.130617276321573  |grad|_K:  4.630e-05  alpha:  1.000e+00
	Linear fluid (dielectric constant: 78.4, screening length: 8.12261 Bohr) occupying 0.539965 of unit cell:	Completed after 25 iterations at t[s]:   8973.84
	Linear fluid (dielectric constant: 78.4, screening length: 8.12261 Bohr) occupying 0.539159 of unit cell:	Completed after 23 iterations at t[s]:   8993.95
	FillingsUpdate:  mu: -0.207915764  nElectrons: 288.000000  magneticMoment: [ Abs: 0.00030  Tot: +0.00005 ]
	SubspaceRotationAdjust: set factor to 0.0499
ElecMinimize: Iter:   1  F: -1601.393851619718362  |grad|_K:  1.200e-05  alpha:  3.167e-01  linmin:  3.662e-03  t[s]:   9021.86
	Linear fluid (dielectric constant: 78.4, screening length: 8.12261 Bohr) occupying 0.539189 of unit cell:	Completed after 20 iterations at t[s]:   9046.60
	Linear fluid (dielectric constant: 78.4, screening length: 8.12261 Bohr) occupying 0.539193 of unit cell:	Completed after 15 iterations at t[s]:   9065.68
	FillingsUpdate:  mu: -0.189933581  nElectrons: 288.000000  magneticMoment: [ Abs: 0.00032  Tot: +0.00005 ]
	SubspaceRotationAdjust: set factor to 0.0514
ElecMinimize: Iter:   2  F: -1601.413443697247203  |grad|_K:  4.430e-06  alpha:  3.509e-01  linmin: -1.283e-04  t[s]:   9093.77
	Linear fluid (dielectric constant: 78.4, screening length: 8.12261 Bohr) occupying 0.539215 of unit cell:	Completed after 20 iterations at t[s]:   9118.35
	Linear fluid (dielectric constant: 78.4, screening length: 8.12261 Bohr) occupying 0.539219 of unit cell:	Completed after 12 iterations at t[s]:   9137.25
	FillingsUpdate:  mu: -0.194838812  nElectrons: 288.000000  magneticMoment: [ Abs: 0.00032  Tot: +0.00005 ]
	SubspaceRotationAdjust: set factor to 0.0559
ElecMinimize: Iter:   3  F: -1601.416426400255659  |grad|_K:  2.551e-06  alpha:  3.901e-01  linmin: -4.500e-05  t[s]:   9165.46
[...]
	Linear fluid (dielectric constant: 78.4, screening length: 8.12261 Bohr) occupying 0.542587 of unit cell:	Completed after 0 iterations at t[s]:  29003.03
	FillingsUpdate:  mu: -0.192256057  nElectrons: 288.000000  magneticMoment: [ Abs: 0.00000  Tot: +0.00000 ]
	SubspaceRotationAdjust: set factor to 0.0719
ElecMinimize: Iter:  17  F: -1601.441638754650967  |grad|_K:  1.669e-08  alpha:  5.636e-01  linmin:  2.558e-04  t[s]:  29031.21
ElecMinimize: Converged (|Delta F|<1.000000e-07 for 2 iters).
Setting wave functions to eigenvectors of Hamiltonian
Converging empty states (this may take a while): |deigs|: 1.262e-08

Computing DFT-D3 correction:
# coordination-number Pt 7.149 8.426 5.941 9.313 9.456 9.431 9.432 9.148 7.136 9.146 9.431 7.141 9.424 9.462 9.317 8.422 7.149 5.942
# diagonal-C6 Pt 336.87 336.87 336.87 336.87 336.87 336.87 336.87 336.87 336.87 336.87 336.87 336.87 336.87 336.87 336.87 336.87 336.87 336.87
EvdW_6 =   -0.151842
EvdW_8 =   -0.247269

# Ionic positions in cartesian coordinates:
ion Pt   0.000206044824117   6.859256290546747  64.758941442155106 1
ion Pt   0.000187531406995  14.170726855164190  62.563027495989814 1
ion Pt   5.231861333003373   0.219602672229911  45.280435830517256 1
ion Pt   0.000046649209135   5.229702571527892  59.750316509041760 1
ion Pt  -0.000025900479107  12.334910985717061  57.336549983468345 1
ion Pt  -0.000005454180780   3.415661728235865  54.915714119280658 1
ion Pt  -0.000128526423158  10.450103629629060  52.270501243409470 1
ion Pt   5.231965579902877   1.671011459224242  50.121563365471758 1
ion Pt   5.231876351497642   8.641213270778097  47.216153549725981 1
ion Pt   2.615979962727076   9.665552147084552  60.869924736021943 1
ion Pt   2.616095088288807   0.885725310808477  58.715580201044425 1
ion Pt   2.616181520223941   2.693740977331279  63.769180200915443 1
ion Pt   2.615947612032334   7.918884686613666  56.068993103246846 1
ion Pt   2.615960189051406  14.698219876502341  53.649496841281270 1
ion Pt   2.615944636497263   6.107031882094226  51.239512546755407 1
ion Pt   2.615828370548221  12.860692169637984  48.423949465801648 1
ion Pt   2.615852328563209   4.475105689560927  46.229714765182038 1
ion Pt   2.616196683306644  11.118737797313475  65.706893600690663 1

# Forces in Cartesian coordinates:
force Pt   0.000000915207531  -0.000670675219315   0.000023127127267 1
force Pt   0.000000986558819  -0.000272355969125   0.000498091689127 1
force Pt  -0.000001155900985  -0.000668310888718   0.000117686090133 1
force Pt   0.000000199534593  -0.000021753742072   0.000339397456674 1
force Pt  -0.000000981990687  -0.000939242146516   0.001034004348494 1
force Pt  -0.000001160277302  -0.000323036809843   0.000261116237069 1
force Pt  -0.000000708511362  -0.000324083388562   0.000257355749337 1
force Pt  -0.000001347221426  -0.000078703278456  -0.000056256239745 1
force Pt  -0.000001580001363  -0.000545831538681  -0.000056948704620 1
force Pt   0.000001638038826  -0.000001479234282  -0.000783379120368 1
force Pt   0.000000634664268   0.000517284014611  -0.000045581449709 1
force Pt   0.000001968610262   0.000573678437390   0.000125865592243 1
force Pt   0.000000267711470   0.000597295279612   0.000882117559221 1
force Pt   0.000000851469260   0.000470408361907  -0.000531692194392 1
force Pt   0.000000008099866   0.000044203271692  -0.000717675215765 1
force Pt  -0.000001206214478   0.000375592827496  -0.000764003328240 1
force Pt  -0.000000433879488   0.000876975160178   0.000007898098726 1
force Pt   0.000000450090524   0.000407227047324   0.000104270742802 1

# Energy components:
   A_diel =       -0.0054359486101318
   Eewald =    14252.9658754230640625
       EH =    15705.1326746331906179
     Eloc =   -31837.2333100248288247
      Enl =      -18.9402599140191015
     EvdW =       -0.3991113703669972
      Exc =     -512.0327616951028631
 Exc_core =      295.0448760168110311
       KE =      514.0282785434288826
-------------------------------------
     Etot =    -1601.4391743364344620
       TS =        0.0024644182164041
-------------------------------------
        F =    -1601.4416387546509668


Dumping 'jdft.fillings' ... done
Dumping 'jdft.wfns' ... done
Dumping 'jdft.fluidState' ... done
Dumping 'jdft.ionpos' ... done
Dumping 'jdft.lattice' ... done
Dumping 'jdft.eigenvals' ... done
Dumping 'jdft.eigStats' ... 
	eMin: -2.143821 at state 72 ( [ +0.500000 +0.000000 +0.000000 ] spin -1 )
	HOMO: -0.192476 at state 24 ( [ +0.500000 +0.000000 +0.000000 ] spin 1 )
	mu  : -0.192256
	LUMO: -0.192091 at state 28 ( [ -0.416667 +0.000000 +0.000000 ] spin 1 )
	eMax: +0.110695 at state 78 ( [ -0.416667 +0.500000 +0.000000 ] spin -1 )
	HOMO-LUMO gap: +0.000385
	Optical gap  : +0.001585 at state 70 ( [ +0.416667 +0.500000 +0.000000 ] spin -1 )
Dumping 'jdft.Ecomponents' ... done
IonicMinimize: Iter:   9  F: -1601.441638754650967  |grad|_K:  4.078e-04  alpha:  1.000e+00  linmin:  4.271e-01  t[s]:  29101.58

#--- Lowdin population analysis ---
# oxidation-state Pt -0.007 -0.043 +0.061 +0.014 +0.017 +0.015 +0.010 +0.009 +0.024 +0.011 +0.011 +0.026 +0.016 +0.016 +0.012 -0.045 -0.009 +0.062
# magnetic-moments Pt +0.000 -0.000 +0.000 -0.000 +0.000 +0.000 +0.000 -0.000 +0.000 +0.000 +0.000 -0.000 -0.000 -0.000 +0.000 +0.000 -0.000 -0.000


Computing DFT-D3 correction:
# coordination-number Pt 7.144 8.421 5.942 9.322 9.459 9.429 9.427 9.150 7.145 9.148 9.428 7.146 9.428 9.459 9.321 8.420 7.149 5.940
# diagonal-C6 Pt 336.87 336.87 336.87 336.87 336.87 336.87 336.87 336.87 336.87 336.87 336.87 336.87 336.87 336.87 336.87 336.87 336.87 336.87
EvdW_6 =   -0.151850
EvdW_8 =   -0.247304

-------- Electronic minimization -----------
	Linear fluid (dielectric constant: 78.4, screening length: 8.12261 Bohr) occupying 0.542625 of unit cell:	Completed after 11 iterations at t[s]:  29128.51
	FillingsUpdate:  mu: -0.191944874  nElectrons: 288.000000  magneticMoment: [ Abs: 0.00002  Tot: +0.00000 ]
ElecMinimize: Iter:   0  F: -1601.441605367284183  |grad|_K:  5.323e-07  alpha:  1.000e+00
	Linear fluid (dielectric constant: 78.4, screening length: 8.12261 Bohr) occupying 0.542645 of unit cell:	Completed after 19 iterations at t[s]:  29185.39
	Linear fluid (dielectric constant: 78.4, screening length: 8.12261 Bohr) occupying 0.542624 of unit cell:	Completed after 17 iterations at t[s]:  29204.77
	FillingsUpdate:  mu: -0.192307052  nElectrons: 288.000000  magneticMoment: [ Abs: 0.00002  Tot: +0.00000 ]
	SubspaceRotationAdjust: set factor to 0.0425
ElecMinimize: Iter:   1  F: -1601.441623211758497  |grad|_K:  2.056e-07  alpha:  1.626e-01  linmin:  6.521e-04  t[s]:  29232.65
	Linear fluid (dielectric constant: 78.4, screening length: 8.12261 Bohr) occupying 0.542623 of unit cell:	Completed after 6 iterations at t[s]:  29255.93
	Linear fluid (dielectric constant: 78.4, screening length: 8.12261 Bohr) occupying 0.542623 of unit cell:	Completed after 9 iterations at t[s]:  29274.53
	FillingsUpdate:  mu: -0.192392822  nElectrons: 288.000000  magneticMoment: [ Abs: 0.00003  Tot: +0.00000 ]
	SubspaceRotationAdjust: set factor to 0.0559
ElecMinimize: Iter:   2  F: -1601.441629849733999  |grad|_K:  1.094e-07  alpha:  4.046e-01  linmin: -1.338e-05  t[s]:  29302.50
	Linear fluid (dielectric constant: 78.4, screening length: 8.12261 Bohr) occupying 0.542623 of unit cell:	Completed after 5 iterations at t[s]:  29325.71
	Linear fluid (dielectric constant: 78.4, screening length: 8.12261 Bohr) occupying 0.542623 of unit cell:	Completed after 6 iterations at t[s]:  29343.92
	FillingsUpdate:  mu: -0.192113955  nElectrons: 288.000000  magneticMoment: [ Abs: 0.00003  Tot: +0.00000 ]
	SubspaceRotationAdjust: set factor to 0.0685
ElecMinimize: Iter:   3  F: -1601.441632865042720  |grad|_K:  1.047e-07  alpha:  6.466e-01  linmin: -1.710e-05  t[s]:  29371.89
	Linear fluid (dielectric constant: 78.4, screening length: 8.12261 Bohr) occupying 0.542623 of unit cell:	Completed after 10 iterations at t[s]:  29395.42
	Linear fluid (dielectric constant: 78.4, screening length: 8.12261 Bohr) occupying 0.542623 of unit cell:	Completed after 3 iterations at t[s]:  29413.41
	FillingsUpdate:  mu: -0.192462309  nElectrons: 288.000000  magneticMoment: [ Abs: 0.00003  Tot: +0.00000 ]
	SubspaceRotationAdjust: set factor to 0.0779
ElecMinimize: Iter:   4  F: -1601.441636332056532  |grad|_K:  1.259e-07  alpha:  8.108e-01  linmin: -1.493e-04  t[s]:  29441.36
	Linear fluid (dielectric constant: 78.4, screening length: 8.12261 Bohr) occupying 0.542623 of unit cell:	Completed after 11 iterations at t[s]:  29465.28
	Linear fluid (dielectric constant: 78.4, screening length: 8.12261 Bohr) occupying 0.542623 of unit cell:	Completed after 2 iterations at t[s]:  29483.43
	FillingsUpdate:  mu: -0.192032132  nElectrons: 288.000000  magneticMoment: [ Abs: 0.00003  Tot: +0.00000 ]
	SubspaceRotationAdjust: set factor to 0.0771
ElecMinimize: Iter:   5  F: -1601.441640845284837  |grad|_K:  1.529e-07  alpha:  7.270e-01  linmin:  1.309e-04  t[s]:  29511.41
	Linear fluid (dielectric constant: 78.4, screening length: 8.12261 Bohr) occupying 0.542624 of unit cell:	Completed after 11 iterations at t[s]:  29535.16
	Linear fluid (dielectric constant: 78.4, screening length: 8.12261 Bohr) occupying 0.542624 of unit cell:	Completed after 9 iterations at t[s]:  29553.73
	FillingsUpdate:  mu: -0.192197679  nElectrons: 288.000000  magneticMoment: [ Abs: 0.00003  Tot: +0.00000 ]
	SubspaceRotationAdjust: set factor to 0.0628
ElecMinimize: Iter:   6  F: -1601.441644492358137  |grad|_K:  1.589e-07  alpha:  4.054e-01  linmin: -6.876e-06  t[s]:  29581.77
	Linear fluid (dielectric constant: 78.4, screening length: 8.12261 Bohr) occupying 0.542624 of unit cell:	Completed after 10 iterations at t[s]:  29605.37
	Linear fluid (dielectric constant: 78.4, screening length: 8.12261 Bohr) occupying 0.542624 of unit cell:	Completed after 2 iterations at t[s]:  29623.19
	FillingsUpdate:  mu: -0.192516308  nElectrons: 288.000000  magneticMoment: [ Abs: 0.00003  Tot: +0.00000 ]
	SubspaceRotationAdjust: set factor to 0.0526
ElecMinimize: Iter:   7  F: -1601.441648797583639  |grad|_K:  1.287e-07  alpha:  4.376e-01  linmin: -1.070e-04  t[s]:  29651.07
	Linear fluid (dielectric constant: 78.4, screening length: 8.12261 Bohr) occupying 0.542624 of unit cell:	Completed after 10 iterations at t[s]:  29674.90
	Linear fluid (dielectric constant: 78.4, screening length: 8.12261 Bohr) occupying 0.542624 of unit cell:	Completed after 2 iterations at t[s]:  29692.82
	FillingsUpdate:  mu: -0.192098687  nElectrons: 288.000000  magneticMoment: [ Abs: 0.00003  Tot: +0.00000 ]
	SubspaceRotationAdjust: set factor to 0.05
ElecMinimize: Iter:   8  F: -1601.441652063986112  |grad|_K:  1.012e-07  alpha:  5.042e-01  linmin:  1.906e-05  t[s]:  29720.97
	Linear fluid (dielectric constant: 78.4, screening length: 8.12261 Bohr) occupying 0.542624 of unit cell:	Completed after 6 iterations at t[s]:  29744.12
	Linear fluid (dielectric constant: 78.4, screening length: 8.12261 Bohr) occupying 0.542624 of unit cell:	Completed after 2 iterations at t[s]:  29762.12
	FillingsUpdate:  mu: -0.192269748  nElectrons: 288.000000  magneticMoment: [ Abs: 0.00002  Tot: +0.00000 ]
	SubspaceRotationAdjust: set factor to 0.0487
ElecMinimize: Iter:   9  F: -1601.441654232250812  |grad|_K:  7.772e-08  alpha:  5.452e-01  linmin:  5.574e-06  t[s]:  29790.71
	Linear fluid (dielectric constant: 78.4, screening length: 8.12261 Bohr) occupying 0.542622 of unit cell:	Completed after 9 iterations at t[s]:  29814.16
	Linear fluid (dielectric constant: 78.4, screening length: 8.12261 Bohr) occupying 0.542622 of unit cell:	Completed after 4 iterations at t[s]:  29832.21
	FillingsUpdate:  mu: -0.192332265  nElectrons: 288.000000  magneticMoment: [ Abs: 0.00001  Tot: +0.00000 ]
	SubspaceRotationAdjust: set factor to 0.0391
ElecMinimize: Iter:  10  F: -1601.441655202466109  |grad|_K:  5.618e-08  alpha:  4.110e-01  linmin:  3.197e-04  t[s]:  29860.30
	Linear fluid (dielectric constant: 78.4, screening length: 8.12261 Bohr) occupying 0.542621 of unit cell:	Completed after 8 iterations at t[s]:  29883.81
	Linear fluid (dielectric constant: 78.4, screening length: 8.12261 Bohr) occupying 0.542621 of unit cell:	Completed after 0 iterations at t[s]:  29901.50
	FillingsUpdate:  mu: -0.192229478  nElectrons: 288.000000  magneticMoment: [ Abs: 0.00001  Tot: +0.00000 ]
	SubspaceRotationAdjust: set factor to 0.0325
ElecMinimize: Iter:  11  F: -1601.441655669399097  |grad|_K:  3.637e-08  alpha:  3.836e-01  linmin:  3.732e-04  t[s]:  29929.74
	Linear fluid (dielectric constant: 78.4, screening length: 8.12261 Bohr) occupying 0.542620 of unit cell:	Completed after 2 iterations at t[s]:  29952.47
	Linear fluid (dielectric constant: 78.4, screening length: 8.12261 Bohr) occupying 0.542620 of unit cell:	Completed after 0 iterations at t[s]:  29970.00
	FillingsUpdate:  mu: -0.192267509  nElectrons: 288.000000  magneticMoment: [ Abs: 0.00001  Tot: +0.00000 ]
	SubspaceRotationAdjust: set factor to 0.0365
ElecMinimize: Iter:  12  F: -1601.441655912727583  |grad|_K:  2.300e-08  alpha:  4.711e-01  linmin: -2.520e-03  t[s]:  29998.04
	Linear fluid (dielectric constant: 78.4, screening length: 8.12261 Bohr) occupying 0.542620 of unit cell:	Completed after 2 iterations at t[s]:  30020.92
	Linear fluid (dielectric constant: 78.4, screening length: 8.12261 Bohr) occupying 0.542620 of unit cell:	Completed after 0 iterations at t[s]:  30038.40
	FillingsUpdate:  mu: -0.192295958  nElectrons: 288.000000  magneticMoment: [ Abs: 0.00001  Tot: +0.00000 ]
	SubspaceRotationAdjust: set factor to 0.0364
ElecMinimize: Iter:  13  F: -1601.441656009744747  |grad|_K:  1.667e-08  alpha:  4.557e-01  linmin: -2.333e-03  t[s]:  30066.34
	Linear fluid (dielectric constant: 78.4, screening length: 8.12261 Bohr) occupying 0.542619 of unit cell:	Completed after 2 iterations at t[s]:  30090.16
	Linear fluid (dielectric constant: 78.4, screening length: 8.12261 Bohr) occupying 0.542619 of unit cell:	Completed after 0 iterations at t[s]:  30107.77
	FillingsUpdate:  mu: -0.192273175  nElectrons: 288.000000  magneticMoment: [ Abs: 0.00000  Tot: +0.00000 ]
	SubspaceRotationAdjust: set factor to 0.0388
ElecMinimize: Iter:  14  F: -1601.441656058521630  |grad|_K:  1.165e-08  alpha:  4.424e-01  linmin: -4.333e-03  t[s]:  30135.82
ElecMinimize: Converged (|Delta F|<1.000000e-07 for 2 iters).
Setting wave functions to eigenvectors of Hamiltonian
Converging empty states (this may take a while): |deigs|: 1.290e-08

Computing DFT-D3 correction:
# coordination-number Pt 7.144 8.421 5.942 9.322 9.459 9.429 9.427 9.150 7.145 9.148 9.428 7.146 9.428 9.459 9.321 8.420 7.149 5.940
# diagonal-C6 Pt 336.87 336.87 336.87 336.87 336.87 336.87 336.87 336.87 336.87 336.87 336.87 336.87 336.87 336.87 336.87 336.87 336.87 336.87
EvdW_6 =   -0.151850
EvdW_8 =   -0.247304

# Ionic positions in cartesian coordinates:
ion Pt   0.000200070154807   6.856044632722027  64.759309967451372 1
ion Pt   0.000181478276279  14.170145513523513  62.564260211752718 1
ion Pt   5.231868489715867   0.217274510593339  45.282943272511126 1
ion Pt   0.000042122673863   5.229143521246053  59.750368561700547 1
ion Pt  -0.000032634656582  12.331693618931054  57.340691354772645 1
ion Pt  -0.000010928246852   3.414349076909347  54.914874374960128 1
ion Pt  -0.000126422551863  10.448806156379016  52.273275769346199 1
ion Pt   5.231961516353004   1.671862297600295  50.121246986895549 1
ion Pt   5.231877362489186   8.639545597042847  47.219064814503241 1
ion Pt   2.615986925982424   9.664191961758029  60.866640763422573 1
ion Pt   2.616089986504397   0.887767353913274  58.712694018185147 1
ion Pt   2.616179852649871   2.695762427526542  63.767006289490112 1
ion Pt   2.615947148659037   7.921329916279165  56.072800208724942 1
ion Pt   2.615971078170807  14.699537907499987  53.646178134397672 1
ion Pt   2.615948916497659   6.107561537673439  51.237443805727509 1
ion Pt   2.615832924061704  12.861608419857244  48.421668344661818 1
ion Pt   2.615861025743078   4.479335461561186  46.230342491088983 1
ion Pt   2.616191087523307  11.119920088983640  65.705639630407561 1

# Forces in Cartesian coordinates:
force Pt   0.000001254859134  -0.000057330444154   0.000015364461682 1
force Pt   0.000000824271494  -0.000014864012509   0.000102340574319 1
force Pt  -0.000001017630556  -0.000355337165179  -0.000027579177490 1
force Pt   0.000000333893063  -0.000056080871335  -0.000002328852355 1
force Pt  -0.000000009029178   0.000125586667607   0.000105673755631 1
force Pt  -0.000000630261463   0.000071107776248   0.000163866575584 1
force Pt  -0.000000768902459  -0.000043337367032   0.000187758917337 1
force Pt  -0.000000848687426   0.000028255434294   0.000044402374677 1
force Pt  -0.000001100327068   0.000011592841974  -0.000002633556633 1
force Pt   0.000000980112385  -0.000010538806626   0.000018282855547 1
force Pt   0.000000368033667   0.000007228054448  -0.000053105374667 1
force Pt   0.000001651584117   0.000087424173837   0.000020045540481 1
force Pt   0.000000012117074  -0.000046659820761  -0.000010316432897 1
force Pt   0.000000084401247  -0.000107781843292   0.000124215257571 1
force Pt  -0.000000139504820   0.000041475678588   0.000147696846211 1
force Pt  -0.000001179069224  -0.000039753389692  -0.000211963157816 1
force Pt  -0.000001058548635   0.000154068419424  -0.000080075630715 1
force Pt   0.000000859577954   0.000157078125875  -0.000007116404522 1

# Energy components:
   A_diel =       -0.0054354579215816
   Eewald =    14254.2892148385526525
       EH =    15706.4529062868768960
     Eloc =   -31839.8773263863404281
      Enl =      -18.9393956185434185
     EvdW =       -0.3991544974123732
      Exc =     -512.0335628086922952
 Exc_core =      295.0448763898755260
       KE =      514.0286786958940866
-------------------------------------
     Etot =    -1601.4391985577112791
       TS =        0.0024575008104080
-------------------------------------
        F =    -1601.4416560585216303


Dumping 'jdft.fillings' ... done
Dumping 'jdft.wfns' ... done
Dumping 'jdft.fluidState' ... done
Dumping 'jdft.ionpos' ... done
Dumping 'jdft.lattice' ... done
Dumping 'jdft.eigenvals' ... done
Dumping 'jdft.eigStats' ... 
	eMin: -2.143738 at state 24 ( [ +0.500000 +0.000000 +0.000000 ] spin 1 )
	HOMO: -0.192454 at state 72 ( [ +0.500000 +0.000000 +0.000000 ] spin -1 )
	mu  : -0.192273
	LUMO: -0.192085 at state 20 ( [ +0.416667 +0.000000 +0.000000 ] spin 1 )
	eMax: +0.110682 at state 30 ( [ -0.416667 +0.500000 +0.000000 ] spin 1 )
	HOMO-LUMO gap: +0.000369
	Optical gap  : +0.001578 at state 30 ( [ -0.416667 +0.500000 +0.000000 ] spin 1 )
Dumping 'jdft.Ecomponents' ... done
IonicMinimize: Iter:  10  F: -1601.441656058521630  |grad|_K:  8.530e-05  alpha:  1.000e+00  linmin: -2.347e-01  t[s]:  30206.48
IonicMinimize: Converged (|grad|_K<1.000000e-04).

#--- Lowdin population analysis ---
# oxidation-state Pt -0.008 -0.044 +0.061 +0.013 +0.017 +0.016 +0.010 +0.010 +0.024 +0.010 +0.011 +0.024 +0.016 +0.017 +0.013 -0.044 -0.008 +0.061
# magnetic-moments Pt +0.000 -0.000 -0.000 -0.000 -0.000 +0.000 +0.000 +0.000 +0.000 +0.000 -0.000 -0.000 -0.000 +0.000 -0.000 +0.000 -0.000 +0.000


Dumping 'jdft.n_up' ... done
Dumping 'jdft.n_dn' ... done
Dumping 'jdft.tau_up' ... done
Dumping 'jdft.tau_dn' ... done
Dumping 'jdft.eigenvals' ... done
Dumping 'jdft.eigStats' ... 
	eMin: -2.143738 at state 24 ( [ +0.500000 +0.000000 +0.000000 ] spin 1 )
	HOMO: -0.192454 at state 72 ( [ +0.500000 +0.000000 +0.000000 ] spin -1 )
	mu  : -0.192273
	LUMO: -0.192085 at state 20 ( [ +0.416667 +0.000000 +0.000000 ] spin 1 )
	eMax: +0.110682 at state 30 ( [ -0.416667 +0.500000 +0.000000 ] spin 1 )
	HOMO-LUMO gap: +0.000369
	Optical gap  : +0.001578 at state 30 ( [ -0.416667 +0.500000 +0.000000 ] spin 1 )
Dumping 'jdft.kPts' ... done
Dumping 'jdft.dosUp' ... done.
Dumping 'jdft.dosDn' ... done.
End date and time: Tue Dec  7 00:44:55 2021  (Duration: 0-8:24:10.13)
Done!
