
*************** JDFTx 1.6.0  ***************

Start date and time: Mon Dec  6 17:24:43 2021
Executable /projects/musgravc/apps/jdftx-1.6.1/build/jdftx with command-line: -i in
Running on hosts (process indices):  shas0203.rc.int.colorado.edu (0-23)
Divided in process groups (process indices):  0 (0)  1 (1)  2 (2)  3 (3)  4 (4)  5 (5)  6 (6)  7 (7)  8 (8)  9 (9)  10 (10)  11 (11)  12 (12)  13 (13)  14 (14)  15 (15)  16 (16)  17 (17)  18 (18)  19 (19)  20 (20)  21 (21)  22 (22)  23 (23)
Resource initialization completed at t[s]:      0.00
Run totals: 24 processes, 24 threads, 0 GPUs


Input parsed successfully to the following command list (including defaults):

basis kpoint-dependent
converge-empty-states yes
coords-type Cartesian
core-overlap-check none
coulomb-interaction Periodic
davidson-band-ratio 1.1
density-of-states Etol 1.000000e-06 Esigma 1.000000e-03 \
		Complete \
	Total \
	OrthoOrbital Ag 1   s \
	OrthoOrbital Ag 1   p \
	OrthoOrbital Ag 1   px \
	OrthoOrbital Ag 1   py \
	OrthoOrbital Ag 1   pz \
	OrthoOrbital Ag 1   d \
	OrthoOrbital Ag 1   dxy \
	OrthoOrbital Ag 1   dyz \
	OrthoOrbital Ag 1   dz2 \
	OrthoOrbital Ag 1   dxz \
	OrthoOrbital Ag 1   dx2-y2 \
	OrthoOrbital Ag 2   s \
	OrthoOrbital Ag 2   p \
	OrthoOrbital Ag 2   px \
	OrthoOrbital Ag 2   py \
	OrthoOrbital Ag 2   pz \
	OrthoOrbital Ag 2   d \
	OrthoOrbital Ag 2   dxy \
	OrthoOrbital Ag 2   dyz \
	OrthoOrbital Ag 2   dz2 \
	OrthoOrbital Ag 2   dxz \
	OrthoOrbital Ag 2   dx2-y2 \
	OrthoOrbital Ag 3   s \
	OrthoOrbital Ag 3   p \
	OrthoOrbital Ag 3   px \
	OrthoOrbital Ag 3   py \
	OrthoOrbital Ag 3   pz \
	OrthoOrbital Ag 3   d \
	OrthoOrbital Ag 3   dxy \
	OrthoOrbital Ag 3   dyz \
	OrthoOrbital Ag 3   dz2 \
	OrthoOrbital Ag 3   dxz \
	OrthoOrbital Ag 3   dx2-y2 \
	OrthoOrbital Ag 4   s \
	OrthoOrbital Ag 4   p \
	OrthoOrbital Ag 4   px \
	OrthoOrbital Ag 4   py \
	OrthoOrbital Ag 4   pz \
	OrthoOrbital Ag 4   d \
	OrthoOrbital Ag 4   dxy \
	OrthoOrbital Ag 4   dyz \
	OrthoOrbital Ag 4   dz2 \
	OrthoOrbital Ag 4   dxz \
	OrthoOrbital Ag 4   dx2-y2 \
	OrthoOrbital Ag 5   s \
	OrthoOrbital Ag 5   p \
	OrthoOrbital Ag 5   px \
	OrthoOrbital Ag 5   py \
	OrthoOrbital Ag 5   pz \
	OrthoOrbital Ag 5   d \
	OrthoOrbital Ag 5   dxy \
	OrthoOrbital Ag 5   dyz \
	OrthoOrbital Ag 5   dz2 \
	OrthoOrbital Ag 5   dxz \
	OrthoOrbital Ag 5   dx2-y2 \
	OrthoOrbital Ag 6   s \
	OrthoOrbital Ag 6   p \
	OrthoOrbital Ag 6   px \
	OrthoOrbital Ag 6   py \
	OrthoOrbital Ag 6   pz \
	OrthoOrbital Ag 6   d \
	OrthoOrbital Ag 6   dxy \
	OrthoOrbital Ag 6   dyz \
	OrthoOrbital Ag 6   dz2 \
	OrthoOrbital Ag 6   dxz \
	OrthoOrbital Ag 6   dx2-y2 \
	OrthoOrbital Ag 7   s \
	OrthoOrbital Ag 7   p \
	OrthoOrbital Ag 7   px \
	OrthoOrbital Ag 7   py \
	OrthoOrbital Ag 7   pz \
	OrthoOrbital Ag 7   d \
	OrthoOrbital Ag 7   dxy \
	OrthoOrbital Ag 7   dyz \
	OrthoOrbital Ag 7   dz2 \
	OrthoOrbital Ag 7   dxz \
	OrthoOrbital Ag 7   dx2-y2 \
	OrthoOrbital Ag 8   s \
	OrthoOrbital Ag 8   p \
	OrthoOrbital Ag 8   px \
	OrthoOrbital Ag 8   py \
	OrthoOrbital Ag 8   pz \
	OrthoOrbital Ag 8   d \
	OrthoOrbital Ag 8   dxy \
	OrthoOrbital Ag 8   dyz \
	OrthoOrbital Ag 8   dz2 \
	OrthoOrbital Ag 8   dxz \
	OrthoOrbital Ag 8   dx2-y2 \
	OrthoOrbital Ag 9   s \
	OrthoOrbital Ag 9   p \
	OrthoOrbital Ag 9   px \
	OrthoOrbital Ag 9   py \
	OrthoOrbital Ag 9   pz \
	OrthoOrbital Ag 9   d \
	OrthoOrbital Ag 9   dxy \
	OrthoOrbital Ag 9   dyz \
	OrthoOrbital Ag 9   dz2 \
	OrthoOrbital Ag 9   dxz \
	OrthoOrbital Ag 9   dx2-y2 \
	OrthoOrbital Ag 10   s \
	OrthoOrbital Ag 10   p \
	OrthoOrbital Ag 10   px \
	OrthoOrbital Ag 10   py \
	OrthoOrbital Ag 10   pz \
	OrthoOrbital Ag 10   d \
	OrthoOrbital Ag 10   dxy \
	OrthoOrbital Ag 10   dyz \
	OrthoOrbital Ag 10   dz2 \
	OrthoOrbital Ag 10   dxz \
	OrthoOrbital Ag 10   dx2-y2 \
	OrthoOrbital Ag 11   s \
	OrthoOrbital Ag 11   p \
	OrthoOrbital Ag 11   px \
	OrthoOrbital Ag 11   py \
	OrthoOrbital Ag 11   pz \
	OrthoOrbital Ag 11   d \
	OrthoOrbital Ag 11   dxy \
	OrthoOrbital Ag 11   dyz \
	OrthoOrbital Ag 11   dz2 \
	OrthoOrbital Ag 11   dxz \
	OrthoOrbital Ag 11   dx2-y2
dump End ElecDensity KEdensity BandEigs EigStats RhoAtom DOS Kpoints
dump Ionic State IonicPositions Lattice EigStats Ecomponents
dump 
dump 
dump 
dump 
dump 
dump 
dump 
dump 
dump-name jdft.$VAR
elec-cutoff 20
elec-eigen-algo Davidson
elec-ex-corr gga-PBE
elec-initial-magnetization 0.000000 no
elec-n-bands 126
elec-smearing Fermi 0.001
electronic-minimize  \
	dirUpdateScheme      FletcherReeves \
	linminMethod         DirUpdateRecommended \
	nIterations          100 \
	history              15 \
	knormThreshold       0 \
	energyDiffThreshold  1e-07 \
	nEnergyDiff          2 \
	alphaTstart          1 \
	alphaTmin            1e-10 \
	updateTestStepSize   yes \
	alphaTreduceFactor   0.1 \
	alphaTincreaseFactor 3 \
	nAlphaAdjustMax      3 \
	wolfeEnergy          0.0001 \
	wolfeGradient        0.9 \
	fdTest               no
exchange-regularization WignerSeitzTruncated
fluid LinearPCM 298.000000 1.013250
fluid-anion F- 0.5 MeanFieldLJ \
	epsBulk 1 \
	pMol 0 \
	epsInf 1 \
	Pvap 0 \
	sigmaBulk 0 \
	Rvdw 2.24877 \
	Res 0 \
	tauNuc 343133
fluid-cation Na+ 0.5 MeanFieldLJ \
	epsBulk 1 \
	pMol 0 \
	epsInf 1 \
	Pvap 0 \
	sigmaBulk 0 \
	Rvdw 2.19208 \
	Res 0 \
	tauNuc 343133
fluid-ex-corr lda-TF lda-PZ
fluid-gummel-loop 10 1.000000e-05
fluid-minimize  \
	dirUpdateScheme      PolakRibiere \
	linminMethod         DirUpdateRecommended \
	nIterations          400 \
	history              15 \
	knormThreshold       1e-11 \
	energyDiffThreshold  0 \
	nEnergyDiff          2 \
	alphaTstart          1 \
	alphaTmin            1e-10 \
	updateTestStepSize   yes \
	alphaTreduceFactor   0.1 \
	alphaTincreaseFactor 3 \
	nAlphaAdjustMax      6 \
	wolfeEnergy          0.0001 \
	wolfeGradient        0.9 \
	fdTest               no
fluid-solvent H2O 55.338 ScalarEOS \
	epsBulk 78.4 \
	pMol 0.92466 \
	epsInf 1.77 \
	Pvap 1.06736e-10 \
	sigmaBulk 4.62e-05 \
	Rvdw 2.61727 \
	Res 1.42 \
	tauNuc 343133 \
	poleEl 15 7 1
forces-output-coords Positions
ion Ag   0.000000000000000   0.000000000000000  24.268516999999999 1
ion Ag  -0.000002000000000   4.902982000000000   1.155680000000000 1
ion Ag   2.710226000000000   0.817162000000000   3.466964000000000 1
ion Ag   2.710224000000000   5.720144000000000   5.778247000000000 1
ion Ag   0.000000000000000   1.634324000000000   8.089530999999999 1
ion Ag  -0.000002000000000   6.537306000000000  10.400814999999998 1
ion Ag   2.710226000000000   2.451486000000000  12.712097999999997 1
ion Ag   2.710224000000001   7.354468000000001  15.023381999999998 1
ion Ag   0.000000000000000   3.268648000000000  17.334665999999999 1
ion Ag  -0.000002000000000   8.171630000000000  19.645949000000002 1
ion Ag   2.710227000000000   4.085811000000000  21.957232999999999 1
ion-species /projects/musgravc/apps/jdftx-1.6.0/build/pseudopotentials/GBRV_v1.5/$ID_pbe_v1.uspp
ion-species /projects/musgravc/apps/jdftx-1.6.0/build/pseudopotentials/GBRV_v1.5/$ID_pbe_v1.2.uspp
ion-species /projects/musgravc/apps/jdftx-1.6.0/build/pseudopotentials/GBRV_v1.5/$ID_pbe_v1.4.uspp
ion-species /projects/musgravc/apps/jdftx-1.6.0/build/pseudopotentials/GBRV_v1.5/$ID_pbe_v1.5.uspp
ion-width Ecut
ionic-minimize  \
	dirUpdateScheme      L-BFGS \
	linminMethod         DirUpdateRecommended \
	nIterations          100 \
	history              15 \
	knormThreshold       0.0001 \
	energyDiffThreshold  1e-06 \
	nEnergyDiff          2 \
	alphaTstart          1 \
	alphaTmin            1e-10 \
	updateTestStepSize   yes \
	alphaTreduceFactor   0.1 \
	alphaTincreaseFactor 3 \
	nAlphaAdjustMax      3 \
	wolfeEnergy          0.0001 \
	wolfeGradient        0.9 \
	fdTest               no
kpoint   0.000000000000   0.000000000000   0.000000000000  1.00000000000000
kpoint-folding 13 7 1 
latt-move-scale 0 0 0
latt-scale 1 1 1 
lattice  \
	   5.420447000000000   -2.710223000000000    0.000000000000000  \
	   0.000000000000000    8.988792000000000    0.000000000000000  \
	   0.000000000000000    0.000000000000000   76.272437999999994 
lattice-minimize  \
	dirUpdateScheme      L-BFGS \
	linminMethod         DirUpdateRecommended \
	nIterations          0 \
	history              15 \
	knormThreshold       0 \
	energyDiffThreshold  1e-06 \
	nEnergyDiff          2 \
	alphaTstart          1 \
	alphaTmin            1e-10 \
	updateTestStepSize   yes \
	alphaTreduceFactor   0.1 \
	alphaTincreaseFactor 3 \
	nAlphaAdjustMax      3 \
	wolfeEnergy          0.0001 \
	wolfeGradient        0.9 \
	fdTest               no
lcao-params 30 1e-06 0.001
pcm-variant CANDLE
spintype z-spin
subspace-rotation-factor 1 yes
symmetries none
symmetry-threshold 0.0001
target-mu -0.1713 no

van-der-waals D3


Applied RMS atom displacement 0 bohrs to make symmetries exact.

---------- Initializing the Grid ----------
R = 
[      5.42045     -2.71022            0  ]
[            0      8.98879            0  ]
[            0            0      76.2724  ]
unit cell volume = 3716.24
G =
[    1.15916   0.349501         -0  ]
[          0   0.699002          0  ]
[          0         -0  0.0823782  ]
Minimum fftbox size, Smin = [  24  40  308  ]
Chosen fftbox size, S = [  24  40  320  ]

---------- Exchange Correlation functional ----------
Initalized PBE GGA exchange.
Initalized PBE GGA correlation.

---------- Setting up pseudopotentials ----------
Width of ionic core gaussian charges (only for fluid interactions / plotting) set to 0.397384

Reading pseudopotential file '/projects/musgravc/apps/jdftx-1.6.0/build/pseudopotentials/GBRV_v1.5/ag_pbe_v1.4.uspp':
  Title: Ag.  Created by USPP 7.3.6 on 1-4-15
  Reference state energy: -147.606242.  19 valence electrons in orbitals:
    |400>  occupation: 2  eigenvalue: -3.637437
    |410>  occupation: 6  eigenvalue: -2.297267
    |420>  occupation: 10  eigenvalue: -0.417763
    |500>  occupation: 0.5  eigenvalue: -0.283525
    |510>  occupation: 0  eigenvalue: -0.122889
  lMax: 2  lLocal: 0  QijEcut: 5.5
  6 projectors sampled on a log grid with 717 points:
    l: 0  eig: -0.283528  rCut: 1.5
    l: 0  eig: -3.637440  rCut: 1.5
    l: 1  eig: -0.122892  rCut: 1.5
    l: 1  eig: -2.297267  rCut: 1.5
    l: 2  eig: -0.417762  rCut: 1.7
    l: 2  eig: -1.000000  rCut: 1.7
  Partial core density with radius 1.2
  Transforming core density to a uniform radial grid of dG=0.02 with 1326 points.
  Transforming local potential to a uniform radial grid of dG=0.02 with 1326 points.
  Transforming nonlocal projectors to a uniform radial grid of dG=0.02 with 432 points.
  Transforming density augmentations to a uniform radial grid of dG=0.02 with 1326 points.
  Transforming atomic orbitals to a uniform radial grid of dG=0.02 with 432 points.
  Core radius for overlap checks: 1.70 bohrs.

Initialized 1 species with 11 total atoms.

Folded 1 k-points by 13x7x1 to 91 k-points.

---------- Setting up k-points, bands, fillings ----------
No reducable k-points. 
Computing the number of bands and number of electrons
Calculating initial fillings.
nElectrons: 209.000000   nBands: 126   nStates: 182

----- Setting up reduced wavefunction bases (one per k-point) -----
average nbasis = 15874.978 , ideal nbasis = 15876.072

----- Initializing Supercell corresponding to k-point mesh -----
Lattice vector linear combinations in supercell:
[  13   0   0  ]
[   0   7   0  ]
[   0   0   1  ]
Supercell lattice vectors:
[  70.4658  -18.9716  0  ]
[  0  62.9215  0  ]
[  0  0  76.2724  ]

Initializing DFT-D3 calculator:
	Parameters set for gga-PBE functional
	s6:  1.000  s_r6:  1.217
	s8:  0.722  s_r8:  1.000
	Per-atom parameters loaded for:
	Ag:  sqrtQ[a0]:  5.443  Rcov[a0]:  2.173  CN: [ 0.00 0.97 ]

Initializing DFT-D2 calculator for fluid / solvation:
	Ag:  C6:  427.91 Eh-a0^6  R0: 3.097 a0

---------- Setting up ewald sum ----------
Optimum gaussian width for ewald sums = 4.143614 bohr.
Real space sum over 1235 unit cells with max indices [  9  6  2  ]
Reciprocal space sum over 4543 terms with max indices [  3  5  29  ]

Computing DFT-D3 correction:
# coordination-number Ag 5.364 5.364 7.664 9.176 9.205 9.210 9.210 9.210 9.205 9.176 7.664
# diagonal-C6 Ag 268.61 268.61 268.61 268.61 268.61 268.61 268.61 268.61 268.61 268.61 268.61
EvdW_6 =   -0.070449
EvdW_8 =   -0.095628

---------- Allocating electronic variables ----------
Initializing wave functions:  linear combination of atomic orbitals
Ag pseudo-atom occupations:   s ( 2 1 )  p ( 6 0 )  d ( 10 )
	FillingsUpdate:  mu: -0.171300000  nElectrons: 209.000000  magneticMoment: [ Abs: 0.00065  Tot: +0.00005 ]
LCAOMinimize: Iter:   0  G: -1587.7072968744350874  |grad|_K:  7.046e-04  alpha:  1.000e+00
	FillingsUpdate:  mu: -0.171300000  nElectrons: 209.000000  magneticMoment: [ Abs: 0.00054  Tot: +0.00001 ]
LCAOMinimize: Iter:   1  G: -1587.7260347289704896  |grad|_K:  8.577e-04  alpha:  1.343e-01  linmin:  8.350e-02  cgtest: -6.795e-01  t[s]:    100.17
LCAOMinimize: 	Bad step direction: g.d > 0.
LCAOMinimize: 	Undoing step.
LCAOMinimize: 	Step failed: resetting search direction.
	FillingsUpdate:  mu: -0.171300000  nElectrons: 209.000000  magneticMoment: [ Abs: 0.00054  Tot: +0.00001 ]
LCAOMinimize: Iter:   2  G: -1587.7260347289704896  |grad|_K:  8.577e-04  alpha:  0.000e+00
	FillingsUpdate:  mu: -0.171300000  nElectrons: 209.000000  magneticMoment: [ Abs: 0.00054  Tot: -0.00003 ]
LCAOMinimize: Iter:   3  G: -1587.8119420792484107  |grad|_K:  2.278e-04  alpha:  5.965e-02  linmin: -8.212e-03  cgtest:  8.049e-02  t[s]:    171.64
LCAOMinimize: 	Predicted alpha/alphaT>3.000000, increasing alphaT to 1.789620e-01.
	FillingsUpdate:  mu: -0.171300000  nElectrons: 209.000000  magneticMoment: [ Abs: 0.00040  Tot: -0.00000 ]
LCAOMinimize: Iter:   4  G: -1587.8588748269867210  |grad|_K:  1.261e-04  alpha:  4.475e-01  linmin: -2.202e-02  cgtest:  1.593e-01  t[s]:    223.16
	FillingsUpdate:  mu: -0.171300000  nElectrons: 209.000000  magneticMoment: [ Abs: 0.00040  Tot: -0.00000 ]
LCAOMinimize: Iter:   5  G: -1587.8598740876686861  |grad|_K:  4.716e-05  alpha:  3.072e-02  linmin: -9.304e-04  cgtest: -2.135e-01  t[s]:    264.23
LCAOMinimize: 	Predicted alpha/alphaT>3.000000, increasing alphaT to 9.216032e-02.
	FillingsUpdate:  mu: -0.171300000  nElectrons: 209.000000  magneticMoment: [ Abs: 0.00039  Tot: -0.00002 ]
LCAOMinimize: Iter:   6  G: -1587.8605251655230859  |grad|_K:  4.715e-05  alpha:  1.542e-01  linmin: -6.827e-05  cgtest:  1.324e-01  t[s]:    315.81
	FillingsUpdate:  mu: -0.171300000  nElectrons: 209.000000  magneticMoment: [ Abs: 0.00039  Tot: -0.00002 ]
LCAOMinimize: Iter:   7  G: -1587.8608887998091177  |grad|_K:  4.296e-05  alpha:  8.712e-02  linmin:  6.308e-05  cgtest: -1.956e-04  t[s]:    356.60
	FillingsUpdate:  mu: -0.171300000  nElectrons: 209.000000  magneticMoment: [ Abs: 0.00039  Tot: -0.00002 ]
LCAOMinimize: Iter:   8  G: -1587.8610157745260949  |grad|_K:  1.258e-05  alpha:  3.671e-02  linmin:  2.900e-04  cgtest: -1.058e-02  t[s]:    397.47
LCAOMinimize: 	Predicted alpha/alphaT>3.000000, increasing alphaT to 1.101229e-01.
	FillingsUpdate:  mu: -0.171300000  nElectrons: 209.000000  magneticMoment: [ Abs: 0.00038  Tot: -0.00002 ]
LCAOMinimize: Iter:   9  G: -1587.8610612073048287  |grad|_K:  1.196e-05  alpha:  1.517e-01  linmin: -1.220e-03  cgtest:  1.396e-02  t[s]:    448.98
	FillingsUpdate:  mu: -0.171300000  nElectrons: 209.000000  magneticMoment: [ Abs: 0.00038  Tot: -0.00002 ]
LCAOMinimize: Iter:  10  G: -1587.8610717314609246  |grad|_K:  6.639e-06  alpha:  3.921e-02  linmin: -5.078e-04  cgtest: -2.273e-02  t[s]:    490.09
	FillingsUpdate:  mu: -0.171300000  nElectrons: 209.000000  magneticMoment: [ Abs: 0.00038  Tot: -0.00002 ]
LCAOMinimize: Iter:  11  G: -1587.8610773014331699  |grad|_K:  2.113e-06  alpha:  6.459e-02  linmin: -2.931e-02  cgtest:  2.601e-01  t[s]:    530.98
	FillingsUpdate:  mu: -0.171300000  nElectrons: 209.000000  magneticMoment: [ Abs: 0.00038  Tot: -0.00002 ]
LCAOMinimize: Iter:  12  G: -1587.8610778965976351  |grad|_K:  2.513e-06  alpha:  6.949e-02  linmin: -9.360e-04  cgtest: -5.017e-03  t[s]:    571.97
	FillingsUpdate:  mu: -0.171300000  nElectrons: 209.000000  magneticMoment: [ Abs: 0.00038  Tot: -0.00002 ]
LCAOMinimize: Iter:  13  G: -1587.8610793684338205  |grad|_K:  1.886e-06  alpha:  1.201e-01  linmin: -4.035e-03  cgtest:  6.712e-02  t[s]:    612.98
	FillingsUpdate:  mu: -0.171300000  nElectrons: 209.000000  magneticMoment: [ Abs: 0.00038  Tot: -0.00002 ]
LCAOMinimize: Iter:  14  G: -1587.8610799720265732  |grad|_K:  7.684e-07  alpha:  8.931e-02  linmin: -2.637e-02  cgtest:  1.155e-01  t[s]:    653.86
	FillingsUpdate:  mu: -0.171300000  nElectrons: 209.000000  magneticMoment: [ Abs: 0.00038  Tot: -0.00002 ]
LCAOMinimize: Iter:  15  G: -1587.8610800527969786  |grad|_K:  8.739e-07  alpha:  7.084e-02  linmin: -1.577e-02  cgtest:  9.794e-02  t[s]:    694.90
LCAOMinimize: Converged (|Delta G|<1.000000e-06 for 2 iters).
----- createFluidSolver() ----- (Fluid-side solver setup)
   Initializing fluid molecule 'H2O'
     Initializing site 'O'
       Electron density: proportional to exp(-r/0.36935)*erfc((r-0.51523)/0.36823) with norm 6.826
       Charge density: gaussian nuclear width 0.478731 with net site charge 0.826
       Polarizability: cuspless exponential with width 0.32 and norm 3.73
       Hard sphere radius: 2.57003 bohrs
       Positions in reference frame:
         [ +0.000000 +0.000000 +0.000000 ]
     Initializing site 'H'
       Electron density: proportional to exp(-r/0.34641)*erfc((r-0)/0.390882) with norm 0.587
       Charge density: gaussian nuclear width 0.377945 with net site charge -0.413
       Polarizability: cuspless exponential with width 0.39 and norm 3.3
       Positions in reference frame:
         [ +0.000000 -1.441945 +1.122523 ]
         [ +0.000000 +1.441945 +1.122523 ]
     Net charge: 0   dipole magnitude: 0.927204
     Initializing spherical shell mfKernel with radius 2.61727 Bohr
     deltaS corrections:
       site 'O': -7.54299
       site 'H': -6.83917
   Initializing fluid molecule 'Na+'
     Initializing site 'Na'
       Electron density: proportional to exp(-r/0.19682)*erfc((r-0.71491)/0.41314) with norm 8.1383
       Charge density: gaussian nuclear width 0.365347 with net site charge -1
       Hard sphere radius: 1.86327 bohrs
       Positions in reference frame:
         [ +0.000000 +0.000000 +0.000000 ]
     Net charge: -1   dipole magnitude: 0
     Initializing gaussian mfKernel with width: 1.55004 Bohr
     deltaS corrections:
       site 'Na': -22.3555
   Initializing fluid molecule 'F-'
     Initializing site 'F'
       Electron density: proportional to exp(-r/0.38886)*erfc((r-0)/0.438782) with norm 8
       Charge density: gaussian nuclear width 0.374796 with net site charge 1
       Hard sphere radius: 2.39995 bohrs
       Positions in reference frame:
         [ +0.000000 +0.000000 +0.000000 ]
     Net charge: 1   dipole magnitude: 0
     Initializing gaussian mfKernel with width: 1.59012 Bohr
     deltaS corrections:
       site 'F': -9.04335

Correction to mu due to finite nuclear width = -0.055801
   Cavity determined by nc: 0.00142 and sigma: 0.707107
   Nonlocal vdW cavity from gaussian model electron density with norm = 8 and sigma = 0.993594 bohr
   Charge asymmetry in cavity with sensitivity pCavity = 36.5 e-bohr/Eh
   Electrostatic cavity expanded by eta = 1.46 bohrs
   Weighted density cavitation model constrained by Nbulk: 0.0049383 bohr^-3, Pvap: 3.14029 kPa, Rvdw: 2.61727 bohr and sigmaBulk: 4.62e-05 Eh/bohr^2 at T: 298 K.
   Weighted density dispersion model using vdW pair potentials with single solvent site with sqrtC6eff: 0.77 SI.


---- Citations for features of the code used in this run ----

   Software package:
      R. Sundararaman, K. Letchworth-Weaver, K.A. Schwarz, D. Gunceler, Y. Ozhabes and T.A. Arias, 'JDFTx: software for joint density-functional theory', SoftwareX 6, 278 (2017)

   gga-PBE exchange-correlation functional:
      J.P. Perdew, K. Burke and M. Ernzerhof, Phys. Rev. Lett. 77, 3865 (1996)

   Pseudopotentials:
      KF Garrity, JW Bennett, KM Rabe and D Vanderbilt, Comput. Mater. Sci. 81, 446 (2014)

   DFT-D3 dispersion correction:
      S. Grimme, J. Antony, S. Ehrlich and H. Krieg, J. Chem. Phys. 132, 154104 (2010)

   DFT-D2 dispersion correction:
      S. Grimme, J. Comput. Chem. 27, 1787 (2006)

   Charge-asymmetric nonlocally-determined local-electric (CANDLE) solvation model:
      R. Sundararaman and W.A. Goddard III, J. Chem. Phys. 142, 064107 (2015)

   Total energy minimization with Auxiliary Hamiltonian:
      C. Freysoldt, S. Boeck, and J. Neugebauer, Phys. Rev. B 79, 241103(R) (2009)

   Grand-canonical (fixed-potential) DFT:
      R. Sundararaman, W. A. Goddard III and T. A. Arias, J. Chem. Phys. 146, 114104 (2017)

   Linear-tetrahedron sampling for density of states:
      G. Lehmann and M. Taut, Phys. status solidi (b) 54, 469 (1972)

This list may not be complete. Please suggest additional citations or
report any other bugs at https://github.com/shankar1729/jdftx/issues

Initialization completed successfully at t[s]:    703.27


Computing DFT-D3 correction:
# coordination-number Ag 5.364 5.364 7.664 9.176 9.205 9.210 9.210 9.210 9.205 9.176 7.664
# diagonal-C6 Ag 268.61 268.61 268.61 268.61 268.61 268.61 268.61 268.61 268.61 268.61 268.61
EvdW_6 =   -0.070449
EvdW_8 =   -0.095628
Fluid solver invoked on fresh (random / LCAO) wavefunctions
Running a vacuum solve first:

-------- Initial electronic minimization -----------
	FillingsUpdate:  mu: +0.110896821  nElectrons: 209.000000  magneticMoment: [ Abs: 0.00038  Tot: -0.00002 ]
ElecMinimize: Iter:   0  G: -1587.861319189597907  |grad|_K:  1.710e-05  alpha:  1.000e+00
	FillingsUpdate:  mu: +0.118622057  nElectrons: 209.000000  magneticMoment: [ Abs: 0.00029  Tot: -0.00002 ]
	SubspaceRotationAdjust: set factor to 0.999
ElecMinimize: Iter:   1  G: -1587.907341341681786  |grad|_K:  1.178e-05  alpha:  4.319e-01  linmin:  2.714e-05  t[s]:    793.21
	FillingsUpdate:  mu: +0.101855323  nElectrons: 209.000000  magneticMoment: [ Abs: 0.00022  Tot: -0.00003 ]
	SubspaceRotationAdjust: set factor to 0.678
ElecMinimize: Iter:   2  G: -1587.920598166679383  |grad|_K:  1.008e-05  alpha:  2.608e-01  linmin: -2.642e-05  t[s]:    847.61
	FillingsUpdate:  mu: +0.108262489  nElectrons: 209.000000  magneticMoment: [ Abs: 0.00021  Tot: -0.00003 ]
	SubspaceRotationAdjust: set factor to 0.389
ElecMinimize: Iter:   3  G: -1587.922003925689523  |grad|_K:  5.862e-06  alpha:  3.758e-02  linmin: -5.623e-05  t[s]:    901.79
ElecMinimize: 	Predicted alpha/alphaT>3.000000, increasing alphaT to 1.127397e-01.
	FillingsUpdate:  mu: +0.127110267  nElectrons: 209.000000  magneticMoment: [ Abs: 0.00017  Tot: -0.00002 ]
	SubspaceRotationAdjust: set factor to 0.276
ElecMinimize: Iter:   4  G: -1587.924579877156248  |grad|_K:  5.252e-06  alpha:  2.038e-01  linmin: -1.859e-06  t[s]:    969.89
	FillingsUpdate:  mu: +0.123878145  nElectrons: 209.000000  magneticMoment: [ Abs: 0.00014  Tot: -0.00003 ]
	SubspaceRotationAdjust: set factor to 0.229
ElecMinimize: Iter:   5  G: -1587.925797707704533  |grad|_K:  3.772e-06  alpha:  1.207e-01  linmin: -4.314e-06  t[s]:   1024.04
	FillingsUpdate:  mu: +0.111984948  nElectrons: 209.000000  magneticMoment: [ Abs: 0.00011  Tot: -0.00003 ]
	SubspaceRotationAdjust: set factor to 0.273
ElecMinimize: Iter:   6  G: -1587.926732354946580  |grad|_K:  2.377e-06  alpha:  1.798e-01  linmin:  2.530e-05  t[s]:   1078.47
	FillingsUpdate:  mu: +0.109985971  nElectrons: 209.000000  magneticMoment: [ Abs: 0.00009  Tot: -0.00003 ]
	SubspaceRotationAdjust: set factor to 0.228
ElecMinimize: Iter:   7  G: -1587.927130626782628  |grad|_K:  2.282e-06  alpha:  1.933e-01  linmin:  7.180e-06  t[s]:   1132.71
	FillingsUpdate:  mu: +0.114321653  nElectrons: 209.000000  magneticMoment: [ Abs: 0.00008  Tot: -0.00003 ]
	SubspaceRotationAdjust: set factor to 0.331
ElecMinimize: Iter:   8  G: -1587.927497167744605  |grad|_K:  1.443e-06  alpha:  1.926e-01  linmin:  1.254e-06  t[s]:   1186.94
	FillingsUpdate:  mu: +0.117344586  nElectrons: 209.000000  magneticMoment: [ Abs: 0.00007  Tot: -0.00003 ]
	SubspaceRotationAdjust: set factor to 0.277
ElecMinimize: Iter:   9  G: -1587.927658062382307  |grad|_K:  1.391e-06  alpha:  2.114e-01  linmin: -4.000e-06  t[s]:   1241.62
	FillingsUpdate:  mu: +0.117709549  nElectrons: 209.000000  magneticMoment: [ Abs: 0.00006  Tot: -0.00003 ]
	SubspaceRotationAdjust: set factor to 0.28
ElecMinimize: Iter:  10  G: -1587.927766977821648  |grad|_K:  9.339e-07  alpha:  1.538e-01  linmin:  3.904e-07  t[s]:   1295.97
	FillingsUpdate:  mu: +0.114924825  nElectrons: 209.000000  magneticMoment: [ Abs: 0.00006  Tot: -0.00003 ]
	SubspaceRotationAdjust: set factor to 0.311
ElecMinimize: Iter:  11  G: -1587.927855638390611  |grad|_K:  8.017e-07  alpha:  2.788e-01  linmin:  3.717e-05  t[s]:   1350.04
	FillingsUpdate:  mu: +0.115066887  nElectrons: 209.000000  magneticMoment: [ Abs: 0.00006  Tot: -0.00003 ]
	SubspaceRotationAdjust: set factor to 0.287
ElecMinimize: Iter:  12  G: -1587.927900463552078  |grad|_K:  7.656e-07  alpha:  1.916e-01  linmin:  5.144e-07  t[s]:   1404.37
	FillingsUpdate:  mu: +0.117139012  nElectrons: 209.000000  magneticMoment: [ Abs: 0.00005  Tot: -0.00002 ]
	SubspaceRotationAdjust: set factor to 0.316
ElecMinimize: Iter:  13  G: -1587.927945286938666  |grad|_K:  5.151e-07  alpha:  2.093e-01  linmin:  3.018e-06  t[s]:   1458.79
	FillingsUpdate:  mu: +0.117603742  nElectrons: 209.000000  magneticMoment: [ Abs: 0.00005  Tot: -0.00002 ]
	SubspaceRotationAdjust: set factor to 0.294
ElecMinimize: Iter:  14  G: -1587.927969797999594  |grad|_K:  4.975e-07  alpha:  2.531e-01  linmin:  6.237e-06  t[s]:   1513.17
	FillingsUpdate:  mu: +0.117099459  nElectrons: 209.000000  magneticMoment: [ Abs: 0.00004  Tot: -0.00002 ]
	SubspaceRotationAdjust: set factor to 0.237
ElecMinimize: Iter:  15  G: -1587.927984001977620  |grad|_K:  3.838e-07  alpha:  1.570e-01  linmin: -9.508e-07  t[s]:   1567.52
	FillingsUpdate:  mu: +0.116352131  nElectrons: 209.000000  magneticMoment: [ Abs: 0.00003  Tot: -0.00001 ]
	SubspaceRotationAdjust: set factor to 0.298
ElecMinimize: Iter:  16  G: -1587.927997213435219  |grad|_K:  2.746e-07  alpha:  2.459e-01  linmin:  1.648e-05  t[s]:   1621.64
	FillingsUpdate:  mu: +0.116740940  nElectrons: 209.000000  magneticMoment: [ Abs: 0.00003  Tot: -0.00001 ]
	SubspaceRotationAdjust: set factor to 0.275
ElecMinimize: Iter:  17  G: -1587.928003226033070  |grad|_K:  2.608e-07  alpha:  2.193e-01  linmin:  6.311e-07  t[s]:   1676.25
	FillingsUpdate:  mu: +0.117388988  nElectrons: 209.000000  magneticMoment: [ Abs: 0.00002  Tot: -0.00001 ]
	SubspaceRotationAdjust: set factor to 0.231
ElecMinimize: Iter:  18  G: -1587.928007935203141  |grad|_K:  1.747e-07  alpha:  1.894e-01  linmin: -3.140e-07  t[s]:   1730.66
	FillingsUpdate:  mu: +0.117317688  nElectrons: 209.000000  magneticMoment: [ Abs: 0.00002  Tot: -0.00001 ]
	SubspaceRotationAdjust: set factor to 0.282
ElecMinimize: Iter:  19  G: -1587.928010701730500  |grad|_K:  1.360e-07  alpha:  2.480e-01  linmin:  3.882e-07  t[s]:   1784.87
	FillingsUpdate:  mu: +0.117052567  nElectrons: 209.000000  magneticMoment: [ Abs: 0.00001  Tot: -0.00000 ]
	SubspaceRotationAdjust: set factor to 0.233
ElecMinimize: Iter:  20  G: -1587.928012242028672  |grad|_K:  1.171e-07  alpha:  2.280e-01  linmin:  4.773e-07  t[s]:   1838.97
	FillingsUpdate:  mu: +0.116993378  nElectrons: 209.000000  magneticMoment: [ Abs: 0.00001  Tot: -0.00000 ]
	SubspaceRotationAdjust: set factor to 0.255
ElecMinimize: Iter:  21  G: -1587.928013281034055  |grad|_K:  7.420e-08  alpha:  2.075e-01  linmin: -2.711e-07  t[s]:   1893.25
	FillingsUpdate:  mu: +0.117199466  nElectrons: 209.000000  magneticMoment: [ Abs: 0.00001  Tot: -0.00000 ]
	SubspaceRotationAdjust: set factor to 0.262
ElecMinimize: Iter:  22  G: -1587.928013881763945  |grad|_K:  6.064e-08  alpha:  2.985e-01  linmin: -5.911e-07  t[s]:   1947.24
	FillingsUpdate:  mu: +0.117220465  nElectrons: 209.000000  magneticMoment: [ Abs: 0.00001  Tot: -0.00000 ]
	SubspaceRotationAdjust: set factor to 0.26
ElecMinimize: Iter:  23  G: -1587.928014209961475  |grad|_K:  5.208e-08  alpha:  2.440e-01  linmin:  7.843e-08  t[s]:   2001.58
	FillingsUpdate:  mu: +0.117119955  nElectrons: 209.000000  magneticMoment: [ Abs: 0.00001  Tot: -0.00000 ]
	SubspaceRotationAdjust: set factor to 0.244
ElecMinimize: Iter:  24  G: -1587.928014423695686  |grad|_K:  3.921e-08  alpha:  2.155e-01  linmin: -6.008e-08  t[s]:   2055.74
	FillingsUpdate:  mu: +0.117051578  nElectrons: 209.000000  magneticMoment: [ Abs: 0.00000  Tot: -0.00000 ]
	SubspaceRotationAdjust: set factor to 0.31
ElecMinimize: Iter:  25  G: -1587.928014588481119  |grad|_K:  3.111e-08  alpha:  2.927e-01  linmin: -5.444e-07  t[s]:   2110.07
	FillingsUpdate:  mu: +0.117116693  nElectrons: 209.000000  magneticMoment: [ Abs: 0.00000  Tot: -0.00000 ]
	SubspaceRotationAdjust: set factor to 0.311
ElecMinimize: Iter:  26  G: -1587.928014693501837  |grad|_K:  2.917e-08  alpha:  2.966e-01  linmin: -4.812e-08  t[s]:   2164.34
	FillingsUpdate:  mu: +0.117147051  nElectrons: 209.000000  magneticMoment: [ Abs: 0.00000  Tot: -0.00000 ]
	SubspaceRotationAdjust: set factor to 0.262
ElecMinimize: Iter:  27  G: -1587.928014751262253  |grad|_K:  2.392e-08  alpha:  1.858e-01  linmin: -7.695e-07  t[s]:   2218.47
	FillingsUpdate:  mu: +0.117115302  nElectrons: 209.000000  magneticMoment: [ Abs: 0.00000  Tot: -0.00000 ]
	SubspaceRotationAdjust: set factor to 0.282
ElecMinimize: Iter:  28  G: -1587.928014800995243  |grad|_K:  1.795e-08  alpha:  2.375e-01  linmin: -5.030e-07  t[s]:   2272.96
ElecMinimize: Converged (|Delta G|<1.000000e-07 for 2 iters).
Setting wave functions to eigenvectors of Hamiltonian
Converging empty states (this may take a while): |deigs|: 1.828e-02
Vacuum energy after initial minimize, F = -1587.928014800995243

Shifting auxilliary hamiltonian by -0.288415 to set nElectrons=209.000000

-------- Electronic minimization -----------
	Linear fluid (dielectric constant: 78.4, screening length: 8.12261 Bohr) occupying 0.554651 of unit cell:	Completed after 21 iterations at t[s]:   2469.59
	FillingsUpdate:  mu: -0.171300000  nElectrons: 209.000000  magneticMoment: [ Abs: 0.00000  Tot: -0.00000 ]
ElecMinimize: Iter:   0  G: -1587.928559928043569  |grad|_K:  3.742e-06  alpha:  1.000e+00
	Linear fluid (dielectric constant: 78.4, screening length: 8.12261 Bohr) occupying 0.557903 of unit cell:	Completed after 20 iterations at t[s]:   2515.63
	Linear fluid (dielectric constant: 78.4, screening length: 8.12261 Bohr) occupying 0.554918 of unit cell:	Completed after 18 iterations at t[s]:   2531.53
	FillingsUpdate:  mu: -0.171300000  nElectrons: 208.965814  magneticMoment: [ Abs: 0.00000  Tot: -0.00000 ]
	SubspaceRotationAdjust: set factor to 0.173
ElecMinimize: Iter:   1  G: -1587.928956335314297  |grad|_K:  2.203e-06  alpha:  7.727e-02  linmin:  6.432e-05  t[s]:   2554.80
	Linear fluid (dielectric constant: 78.4, screening length: 8.12261 Bohr) occupying 0.555233 of unit cell:	Completed after 13 iterations at t[s]:   2573.60
ElecMinimize: 	Predicted alpha/alphaT>3.000000, increasing alphaT to 2.318130e-01.
	Linear fluid (dielectric constant: 78.4, screening length: 8.12261 Bohr) occupying 0.555864 of unit cell:	Completed after 14 iterations at t[s]:   2589.11
	Linear fluid (dielectric constant: 78.4, screening length: 8.12261 Bohr) occupying 0.557129 of unit cell:	Completed after 15 iterations at t[s]:   2604.78
	FillingsUpdate:  mu: -0.171300000  nElectrons: 208.889681  magneticMoment: [ Abs: 0.00000  Tot: -0.00000 ]
	SubspaceRotationAdjust: set factor to 0.197
ElecMinimize: Iter:   2  G: -1587.929921485946807  |grad|_K:  1.547e-06  alpha:  5.477e-01  linmin:  2.817e-04  t[s]:   2628.24
	Linear fluid (dielectric constant: 78.4, screening length: 8.12261 Bohr) occupying 0.558807 of unit cell:	Completed after 15 iterations at t[s]:   2647.00
	Linear fluid (dielectric constant: 78.4, screening length: 8.12261 Bohr) occupying 0.558880 of unit cell:	Completed after 11 iterations at t[s]:   2662.14
	FillingsUpdate:  mu: -0.171300000  nElectrons: 208.874028  magneticMoment: [ Abs: 0.00000  Tot: -0.00000 ]
	SubspaceRotationAdjust: set factor to 0.147
ElecMinimize: Iter:   3  G: -1587.930417785309601  |grad|_K:  2.109e-06  alpha:  5.731e-01  linmin:  1.273e-04  t[s]:   2685.64
	Linear fluid (dielectric constant: 78.4, screening length: 8.12261 Bohr) occupying 0.562219 of unit cell:	Completed after 17 iterations at t[s]:   2704.87
	Linear fluid (dielectric constant: 78.4, screening length: 8.12261 Bohr) occupying 0.560048 of unit cell:	Completed after 15 iterations at t[s]:   2720.44
	FillingsUpdate:  mu: -0.171300000  nElectrons: 208.842146  magneticMoment: [ Abs: 0.00000  Tot: -0.00000 ]
	SubspaceRotationAdjust: set factor to 0.0974
ElecMinimize: Iter:   4  G: -1587.930681147931637  |grad|_K:  1.562e-06  alpha:  1.833e-01  linmin:  1.212e-03  t[s]:   2743.89
	Linear fluid (dielectric constant: 78.4, screening length: 8.12261 Bohr) occupying 0.560769 of unit cell:	Completed after 13 iterations at t[s]:   2762.86
	Linear fluid (dielectric constant: 78.4, screening length: 8.12261 Bohr) occupying 0.561523 of unit cell:	Completed after 13 iterations at t[s]:   2778.53
	FillingsUpdate:  mu: -0.171300000  nElectrons: 208.832195  magneticMoment: [ Abs: 0.00000  Tot: -0.00000 ]
	SubspaceRotationAdjust: set factor to 0.108
ElecMinimize: Iter:   5  G: -1587.930995365553144  |grad|_K:  1.153e-06  alpha:  3.845e-01  linmin:  6.128e-05  t[s]:   2802.06
	Linear fluid (dielectric constant: 78.4, screening length: 8.12261 Bohr) occupying 0.562407 of unit cell:	Completed after 15 iterations at t[s]:   2821.26
	Linear fluid (dielectric constant: 78.4, screening length: 8.12261 Bohr) occupying 0.562362 of unit cell:	Completed after 9 iterations at t[s]:   2836.79
	FillingsUpdate:  mu: -0.171300000  nElectrons: 208.828041  magneticMoment: [ Abs: 0.00000  Tot: -0.00000 ]
	SubspaceRotationAdjust: set factor to 0.118
ElecMinimize: Iter:   6  G: -1587.931171643002699  |grad|_K:  8.397e-07  alpha:  3.646e-01  linmin: -3.379e-05  t[s]:   2860.84
	Linear fluid (dielectric constant: 78.4, screening length: 8.12261 Bohr) occupying 0.562874 of unit cell:	Completed after 15 iterations at t[s]:   2879.87
	Linear fluid (dielectric constant: 78.4, screening length: 8.12261 Bohr) occupying 0.562859 of unit cell:	Completed after 9 iterations at t[s]:   2895.03
	FillingsUpdate:  mu: -0.171300000  nElectrons: 208.816239  magneticMoment: [ Abs: 0.00000  Tot: -0.00000 ]
	SubspaceRotationAdjust: set factor to 0.0913
ElecMinimize: Iter:   7  G: -1587.931262831206368  |grad|_K:  7.286e-07  alpha:  3.533e-01  linmin: -6.616e-05  t[s]:   2918.44
	Linear fluid (dielectric constant: 78.4, screening length: 8.12261 Bohr) occupying 0.563267 of unit cell:	Completed after 13 iterations at t[s]:   2937.48
	Linear fluid (dielectric constant: 78.4, screening length: 8.12261 Bohr) occupying 0.563247 of unit cell:	Completed after 9 iterations at t[s]:   2952.68
	FillingsUpdate:  mu: -0.171300000  nElectrons: 208.818045  magneticMoment: [ Abs: 0.00000  Tot: -0.00000 ]
	SubspaceRotationAdjust: set factor to 0.0959
ElecMinimize: Iter:   8  G: -1587.931328215113581  |grad|_K:  5.020e-07  alpha:  3.359e-01  linmin: -3.016e-05  t[s]:   2976.13
	Linear fluid (dielectric constant: 78.4, screening length: 8.12261 Bohr) occupying 0.563440 of unit cell:	Completed after 10 iterations at t[s]:   2994.93
	Linear fluid (dielectric constant: 78.4, screening length: 8.12261 Bohr) occupying 0.563516 of unit cell:	Completed after 7 iterations at t[s]:   3009.91
	FillingsUpdate:  mu: -0.171300000  nElectrons: 208.818163  magneticMoment: [ Abs: 0.00000  Tot: -0.00000 ]
	SubspaceRotationAdjust: set factor to 0.113
ElecMinimize: Iter:   9  G: -1587.931371652792677  |grad|_K:  4.171e-07  alpha:  4.706e-01  linmin: -2.046e-05  t[s]:   3033.33
	Linear fluid (dielectric constant: 78.4, screening length: 8.12261 Bohr) occupying 0.563708 of unit cell:	Completed after 12 iterations at t[s]:   3051.99
	Linear fluid (dielectric constant: 78.4, screening length: 8.12261 Bohr) occupying 0.563685 of unit cell:	Completed after 10 iterations at t[s]:   3067.31
	FillingsUpdate:  mu: -0.171300000  nElectrons: 208.814659  magneticMoment: [ Abs: 0.00000  Tot: -0.00000 ]
	SubspaceRotationAdjust: set factor to 0.103
ElecMinimize: Iter:  10  G: -1587.931397878413009  |grad|_K:  3.527e-07  alpha:  4.122e-01  linmin: -2.357e-05  t[s]:   3090.61
	Linear fluid (dielectric constant: 78.4, screening length: 8.12261 Bohr) occupying 0.563823 of unit cell:	Completed after 13 iterations at t[s]:   3109.39
	Linear fluid (dielectric constant: 78.4, screening length: 8.12261 Bohr) occupying 0.563814 of unit cell:	Completed after 9 iterations at t[s]:   3124.63
	FillingsUpdate:  mu: -0.171300000  nElectrons: 208.816806  magneticMoment: [ Abs: 0.00000  Tot: -0.00000 ]
	SubspaceRotationAdjust: set factor to 0.085
ElecMinimize: Iter:  11  G: -1587.931415471366108  |grad|_K:  3.034e-07  alpha:  3.865e-01  linmin: -3.382e-06  t[s]:   3147.81
	Linear fluid (dielectric constant: 78.4, screening length: 8.12261 Bohr) occupying 0.563928 of unit cell:	Completed after 11 iterations at t[s]:   3166.42
	Linear fluid (dielectric constant: 78.4, screening length: 8.12261 Bohr) occupying 0.563938 of unit cell:	Completed after 6 iterations at t[s]:   3181.34
	FillingsUpdate:  mu: -0.171300000  nElectrons: 208.814596  magneticMoment: [ Abs: 0.00000  Tot: -0.00000 ]
	SubspaceRotationAdjust: set factor to 0.1
ElecMinimize: Iter:  12  G: -1587.931429730514083  |grad|_K:  2.303e-07  alpha:  4.237e-01  linmin: -3.604e-05  t[s]:   3204.72
	Linear fluid (dielectric constant: 78.4, screening length: 8.12261 Bohr) occupying 0.564030 of unit cell:	Completed after 11 iterations at t[s]:   3223.26
	Linear fluid (dielectric constant: 78.4, screening length: 8.12261 Bohr) occupying 0.564046 of unit cell:	Completed after 7 iterations at t[s]:   3238.28
	FillingsUpdate:  mu: -0.171300000  nElectrons: 208.812475  magneticMoment: [ Abs: 0.00000  Tot: -0.00000 ]
	SubspaceRotationAdjust: set factor to 0.108
ElecMinimize: Iter:  13  G: -1587.931439467473865  |grad|_K:  2.009e-07  alpha:  5.008e-01  linmin: -6.827e-05  t[s]:   3261.65
	Linear fluid (dielectric constant: 78.4, screening length: 8.12261 Bohr) occupying 0.564153 of unit cell:	Completed after 11 iterations at t[s]:   3280.33
	Linear fluid (dielectric constant: 78.4, screening length: 8.12261 Bohr) occupying 0.564132 of unit cell:	Completed after 9 iterations at t[s]:   3295.32
	FillingsUpdate:  mu: -0.171300000  nElectrons: 208.813355  magneticMoment: [ Abs: 0.00000  Tot: -0.00000 ]
	SubspaceRotationAdjust: set factor to 0.0866
ElecMinimize: Iter:  14  G: -1587.931445405093200  |grad|_K:  1.734e-07  alpha:  4.008e-01  linmin:  1.856e-05  t[s]:   3318.68
	Linear fluid (dielectric constant: 78.4, screening length: 8.12261 Bohr) occupying 0.564214 of unit cell:	Completed after 12 iterations at t[s]:   3337.35
	Linear fluid (dielectric constant: 78.4, screening length: 8.12261 Bohr) occupying 0.564217 of unit cell:	Completed after 2 iterations at t[s]:   3351.91
	FillingsUpdate:  mu: -0.171300000  nElectrons: 208.811215  magneticMoment: [ Abs: 0.00000  Tot: -0.00000 ]
	SubspaceRotationAdjust: set factor to 0.0809
ElecMinimize: Iter:  15  G: -1587.931449974288853  |grad|_K:  1.363e-07  alpha:  4.159e-01  linmin: -7.282e-05  t[s]:   3375.38
	Linear fluid (dielectric constant: 78.4, screening length: 8.12261 Bohr) occupying 0.564283 of unit cell:	Completed after 3 iterations at t[s]:   3393.27
	Linear fluid (dielectric constant: 78.4, screening length: 8.12261 Bohr) occupying 0.564288 of unit cell:	Completed after 2 iterations at t[s]:   3407.88
	FillingsUpdate:  mu: -0.171300000  nElectrons: 208.810302  magneticMoment: [ Abs: 0.00000  Tot: -0.00000 ]
	SubspaceRotationAdjust: set factor to 0.0961
ElecMinimize: Iter:  16  G: -1587.931453022197047  |grad|_K:  1.112e-07  alpha:  4.469e-01  linmin: -1.575e-05  t[s]:   3431.24
	Linear fluid (dielectric constant: 78.4, screening length: 8.12261 Bohr) occupying 0.564346 of unit cell:	Completed after 10 iterations at t[s]:   3450.46
	Linear fluid (dielectric constant: 78.4, screening length: 8.12261 Bohr) occupying 0.564345 of unit cell:	Completed after 0 iterations at t[s]:   3464.74
	FillingsUpdate:  mu: -0.171300000  nElectrons: 208.810229  magneticMoment: [ Abs: 0.00000  Tot: -0.00000 ]
	SubspaceRotationAdjust: set factor to 0.0907
ElecMinimize: Iter:  17  G: -1587.931455027879110  |grad|_K:  8.729e-08  alpha:  4.430e-01  linmin:  1.338e-04  t[s]:   3487.93
	Linear fluid (dielectric constant: 78.4, screening length: 8.12261 Bohr) occupying 0.564390 of unit cell:	Completed after 10 iterations at t[s]:   3506.50
	Linear fluid (dielectric constant: 78.4, screening length: 8.12261 Bohr) occupying 0.564392 of unit cell:	Completed after 0 iterations at t[s]:   3520.82
	FillingsUpdate:  mu: -0.171300000  nElectrons: 208.808961  magneticMoment: [ Abs: 0.00000  Tot: -0.00000 ]
	SubspaceRotationAdjust: set factor to 0.0782
ElecMinimize: Iter:  18  G: -1587.931456308536553  |grad|_K:  6.933e-08  alpha:  4.625e-01  linmin: -3.368e-04  t[s]:   3544.25
	Linear fluid (dielectric constant: 78.4, screening length: 8.12261 Bohr) occupying 0.564430 of unit cell:	Completed after 10 iterations at t[s]:   3562.68
	Linear fluid (dielectric constant: 78.4, screening length: 8.12261 Bohr) occupying 0.564428 of unit cell:	Completed after 0 iterations at t[s]:   3577.02
	FillingsUpdate:  mu: -0.171300000  nElectrons: 208.808810  magneticMoment: [ Abs: 0.00000  Tot: -0.00000 ]
	SubspaceRotationAdjust: set factor to 0.0807
ElecMinimize: Iter:  19  G: -1587.931457100873786  |grad|_K:  5.925e-08  alpha:  4.427e-01  linmin:  3.593e-04  t[s]:   3600.47
	Linear fluid (dielectric constant: 78.4, screening length: 8.12261 Bohr) occupying 0.564460 of unit cell:	Completed after 3 iterations at t[s]:   3618.55
	Linear fluid (dielectric constant: 78.4, screening length: 8.12261 Bohr) occupying 0.564459 of unit cell:	Completed after 0 iterations at t[s]:   3632.96
	FillingsUpdate:  mu: -0.171300000  nElectrons: 208.808448  magneticMoment: [ Abs: 0.00000  Tot: +0.00000 ]
	SubspaceRotationAdjust: set factor to 0.0934
ElecMinimize: Iter:  20  G: -1587.931457644561533  |grad|_K:  4.380e-08  alpha:  4.344e-01  linmin: -4.555e-05  t[s]:   3656.44
	Linear fluid (dielectric constant: 78.4, screening length: 8.12261 Bohr) occupying 0.564480 of unit cell:	Completed after 7 iterations at t[s]:   3674.82
	Linear fluid (dielectric constant: 78.4, screening length: 8.12261 Bohr) occupying 0.564486 of unit cell:	Completed after 2 iterations at t[s]:   3689.31
	FillingsUpdate:  mu: -0.171300000  nElectrons: 208.807827  magneticMoment: [ Abs: 0.00000  Tot: +0.00000 ]
	SubspaceRotationAdjust: set factor to 0.101
ElecMinimize: Iter:  21  G: -1587.931458030810290  |grad|_K:  3.524e-08  alpha:  5.504e-01  linmin:  7.408e-06  t[s]:   3712.65
	Linear fluid (dielectric constant: 78.4, screening length: 8.12261 Bohr) occupying 0.564508 of unit cell:	Completed after 5 iterations at t[s]:   3730.81
	Linear fluid (dielectric constant: 78.4, screening length: 8.12261 Bohr) occupying 0.564510 of unit cell:	Completed after 0 iterations at t[s]:   3745.52
	FillingsUpdate:  mu: -0.171300000  nElectrons: 208.807583  magneticMoment: [ Abs: 0.00000  Tot: +0.00000 ]
	SubspaceRotationAdjust: set factor to 0.115
ElecMinimize: Iter:  22  G: -1587.931458298269945  |grad|_K:  3.072e-08  alpha:  5.898e-01  linmin: -5.165e-05  t[s]:   3769.03
	Linear fluid (dielectric constant: 78.4, screening length: 8.12261 Bohr) occupying 0.564533 of unit cell:	Completed after 2 iterations at t[s]:   3786.94
	Linear fluid (dielectric constant: 78.4, screening length: 8.12261 Bohr) occupying 0.564532 of unit cell:	Completed after 0 iterations at t[s]:   3801.23
	FillingsUpdate:  mu: -0.171300000  nElectrons: 208.807265  magneticMoment: [ Abs: 0.00000  Tot: +0.00000 ]
	SubspaceRotationAdjust: set factor to 0.133
ElecMinimize: Iter:  23  G: -1587.931458495979768  |grad|_K:  2.865e-08  alpha:  5.705e-01  linmin: -1.375e-05  t[s]:   3824.67
	Linear fluid (dielectric constant: 78.4, screening length: 8.12261 Bohr) occupying 0.564556 of unit cell:	Completed after 2 iterations at t[s]:   3842.60
	Linear fluid (dielectric constant: 78.4, screening length: 8.12261 Bohr) occupying 0.564553 of unit cell:	Completed after 0 iterations at t[s]:   3857.07
	FillingsUpdate:  mu: -0.171300000  nElectrons: 208.806876  magneticMoment: [ Abs: 0.00000  Tot: +0.00000 ]
	SubspaceRotationAdjust: set factor to 0.144
ElecMinimize: Iter:  24  G: -1587.931458645736711  |grad|_K:  2.483e-08  alpha:  4.972e-01  linmin:  1.585e-04  t[s]:   3880.39
	Linear fluid (dielectric constant: 78.4, screening length: 8.12261 Bohr) occupying 0.564572 of unit cell:	Completed after 2 iterations at t[s]:   3898.58
	Linear fluid (dielectric constant: 78.4, screening length: 8.12261 Bohr) occupying 0.564571 of unit cell:	Completed after 0 iterations at t[s]:   3912.89
	FillingsUpdate:  mu: -0.171300000  nElectrons: 208.806636  magneticMoment: [ Abs: 0.00000  Tot: +0.00000 ]
	SubspaceRotationAdjust: set factor to 0.159
ElecMinimize: Iter:  25  G: -1587.931458752452727  |grad|_K:  1.983e-08  alpha:  4.836e-01  linmin: -1.286e-04  t[s]:   3936.14
	Linear fluid (dielectric constant: 78.4, screening length: 8.12261 Bohr) occupying 0.564585 of unit cell:	Completed after 6 iterations at t[s]:   3954.42
	Linear fluid (dielectric constant: 78.4, screening length: 8.12261 Bohr) occupying 0.564583 of unit cell:	Completed after 0 iterations at t[s]:   3968.80
	FillingsUpdate:  mu: -0.171300000  nElectrons: 208.806576  magneticMoment: [ Abs: 0.00000  Tot: +0.00000 ]
	SubspaceRotationAdjust: set factor to 0.151
ElecMinimize: Iter:  26  G: -1587.931458810297272  |grad|_K:  1.929e-08  alpha:  3.930e-01  linmin:  3.767e-04  t[s]:   3992.31
	Linear fluid (dielectric constant: 78.4, screening length: 8.12261 Bohr) occupying 0.564595 of unit cell:	Completed after 9 iterations at t[s]:   4011.14
	Linear fluid (dielectric constant: 78.4, screening length: 8.12261 Bohr) occupying 0.564589 of unit cell:	Completed after 7 iterations at t[s]:   4026.28
	FillingsUpdate:  mu: -0.171300000  nElectrons: 208.806366  magneticMoment: [ Abs: 0.00000  Tot: +0.00000 ]
	SubspaceRotationAdjust: set factor to 0.102
ElecMinimize: Iter:  27  G: -1587.931458834281784  |grad|_K:  1.433e-08  alpha:  2.023e-01  linmin:  3.341e-05  t[s]:   4049.77
ElecMinimize: Converged (|Delta G|<1.000000e-07 for 2 iters).
Setting wave functions to eigenvectors of Hamiltonian
Converging empty states (this may take a while): |deigs|: 6.993e-04
Single-point solvation energy estimate, DeltaG = -0.003444033286542

Computing DFT-D3 correction:
# coordination-number Ag 5.364 5.364 7.664 9.176 9.205 9.210 9.210 9.210 9.205 9.176 7.664
# diagonal-C6 Ag 268.61 268.61 268.61 268.61 268.61 268.61 268.61 268.61 268.61 268.61 268.61
EvdW_6 =   -0.070449
EvdW_8 =   -0.095628

# Ionic positions in cartesian coordinates:
ion Ag   0.000000000000000   0.000000000000000  24.268516999999999 1
ion Ag  -0.000002000000000   4.902982000000000   1.155680000000000 1
ion Ag   2.710226000000000   0.817162000000000   3.466964000000000 1
ion Ag   2.710224000000000   5.720144000000000   5.778247000000000 1
ion Ag   0.000000000000000   1.634324000000000   8.089530999999999 1
ion Ag  -0.000002000000000   6.537306000000000  10.400814999999998 1
ion Ag   2.710226000000000   2.451486000000000  12.712097999999997 1
ion Ag   2.710224000000001   7.354468000000001  15.023381999999998 1
ion Ag   0.000000000000000   3.268648000000000  17.334665999999999 1
ion Ag  -0.000002000000000   8.171630000000000  19.645949000000002 1
ion Ag   2.710227000000000   4.085811000000000  21.957232999999999 1

# Forces in Cartesian coordinates:
force Ag  -0.000017172021191  -0.001372110134600  -0.001849944162255 1
force Ag   0.000035701806490   0.001434891888327   0.001483466683699 1
force Ag  -0.000045950386118  -0.001320686708978  -0.005293234035068 1
force Ag  -0.000022534572489   0.000765309344471  -0.001662220045604 1
force Ag   0.000022062046077  -0.000546364865592   0.001855582970653 1
force Ag   0.000051144242057  -0.000599894199479  -0.000230382986634 1
force Ag  -0.000027077017246   0.000016725138241  -0.000009221180424 1
force Ag  -0.000003911112042   0.000637598323858   0.000271384456217 1
force Ag  -0.000053830921128   0.000487661955396  -0.001897703391734 1
force Ag   0.000043568600717  -0.000793163293965   0.001681034244538 1
force Ag   0.000013517792820   0.001310644129662   0.005384701570503 1

# Energy components:
   A_diel =        0.0319349378303662
   Eewald =    14808.5158420382340410
       EH =    16263.4341206304779917
     Eloc =   -32950.8091345270295278
      Enl =       43.4056676031728301
     EvdW =       -0.1660768711704258
      Exc =     -159.3906044690850479
 Exc_core =        2.2898749859692806
       KE =      368.9777760866269887
  MuShift =        0.0108049560617026
-------------------------------------
     Etot =    -1623.6997946289104675
       TS =        0.0001947342000835
-------------------------------------
        F =    -1623.6999893631104896
      muN =      -35.7685305288287907
-------------------------------------
        G =    -1587.9314588342817842


Dumping 'jdft.fillings' ... done
Dumping 'jdft.wfns' ... done
Dumping 'jdft.fluidState' ... done
Dumping 'jdft.ionpos' ... done
Dumping 'jdft.lattice' ... done
Dumping 'jdft.eigenvals' ... done
Dumping 'jdft.eigStats' ... 
	eMin: -3.557015 at state 91 ( [ +0.000000 +0.000000 +0.000000 ] spin -1 )
	HOMO: -0.171682 at state 150 ( [ -0.384615 +0.428571 +0.000000 ] spin -1 )
	mu  : -0.171300
	LUMO: -0.170344 at state 0 ( [ +0.000000 +0.000000 +0.000000 ] spin 1 )
	eMax: +0.170696 at state 134 ( [ +0.461538 +0.142857 +0.000000 ] spin -1 )
	HOMO-LUMO gap: +0.001338
	Optical gap  : +0.003775 at state 1 ( [ +0.000000 +0.142857 +0.000000 ] spin 1 )
Dumping 'jdft.Ecomponents' ... done
IonicMinimize: Iter:   0  G: -1587.931458834281784  |grad|_K:  1.608e-03  t[s]:   4200.88

#--- Lowdin population analysis ---
# oxidation-state Ag +0.180 +0.180 -0.020 -0.040 +0.004 -0.000 +0.006 -0.000 +0.004 -0.040 -0.020
# magnetic-moments Ag +0.000 -0.000 -0.000 +0.000 +0.000 +0.000 -0.000 +0.000 +0.000 -0.000 -0.000


Computing DFT-D3 correction:
# coordination-number Ag 5.373 5.372 7.658 9.173 9.198 9.209 9.214 9.209 9.198 9.173 7.659
# diagonal-C6 Ag 268.61 268.61 268.61 268.61 268.61 268.61 268.61 268.61 268.61 268.61 268.61
EvdW_6 =   -0.070440
EvdW_8 =   -0.095615
Shifting auxilliary hamiltonian by 0.000063 to set nElectrons=208.806366

-------- Electronic minimization -----------
	Linear fluid (dielectric constant: 78.4, screening length: 8.12261 Bohr) occupying 0.564652 of unit cell:	Completed after 13 iterations at t[s]:   4221.97
	FillingsUpdate:  mu: -0.171300000  nElectrons: 208.806366  magneticMoment: [ Abs: 0.00000  Tot: +0.00000 ]
ElecMinimize: Iter:   0  G: -1587.931524257566480  |grad|_K:  1.412e-07  alpha:  1.000e+00
	Linear fluid (dielectric constant: 78.4, screening length: 8.12261 Bohr) occupying 0.564651 of unit cell:	Completed after 12 iterations at t[s]:   4267.30
	Linear fluid (dielectric constant: 78.4, screening length: 8.12261 Bohr) occupying 0.564652 of unit cell:	Completed after 13 iterations at t[s]:   4282.76
	FillingsUpdate:  mu: -0.171300000  nElectrons: 208.805193  magneticMoment: [ Abs: 0.00000  Tot: +0.00000 ]
	SubspaceRotationAdjust: set factor to 0.0711
ElecMinimize: Iter:   1  G: -1587.931526319750219  |grad|_K:  1.083e-07  alpha:  2.838e-01  linmin:  5.608e-05  t[s]:   4306.00
	Linear fluid (dielectric constant: 78.4, screening length: 8.12261 Bohr) occupying 0.564652 of unit cell:	Completed after 10 iterations at t[s]:   4324.52
	Linear fluid (dielectric constant: 78.4, screening length: 8.12261 Bohr) occupying 0.564653 of unit cell:	Completed after 11 iterations at t[s]:   4339.95
	FillingsUpdate:  mu: -0.171300000  nElectrons: 208.806210  magneticMoment: [ Abs: 0.00000  Tot: +0.00000 ]
	SubspaceRotationAdjust: set factor to 0.0851
ElecMinimize: Iter:   2  G: -1587.931528999170951  |grad|_K:  9.852e-08  alpha:  6.259e-01  linmin:  2.610e-05  t[s]:   4363.34
	Linear fluid (dielectric constant: 78.4, screening length: 8.12261 Bohr) occupying 0.564654 of unit cell:	Completed after 2 iterations at t[s]:   4381.39
	Linear fluid (dielectric constant: 78.4, screening length: 8.12261 Bohr) occupying 0.564654 of unit cell:	Completed after 2 iterations at t[s]:   4395.85
	FillingsUpdate:  mu: -0.171300000  nElectrons: 208.806544  magneticMoment: [ Abs: 0.00000  Tot: +0.00000 ]
	SubspaceRotationAdjust: set factor to 0.0968
ElecMinimize: Iter:   3  G: -1587.931532459488608  |grad|_K:  1.242e-07  alpha:  9.772e-01  linmin:  2.351e-05  t[s]:   4419.26
	Linear fluid (dielectric constant: 78.4, screening length: 8.12261 Bohr) occupying 0.564654 of unit cell:	Completed after 10 iterations at t[s]:   4437.69
	Linear fluid (dielectric constant: 78.4, screening length: 8.12261 Bohr) occupying 0.564654 of unit cell:	Completed after 9 iterations at t[s]:   4452.71
	FillingsUpdate:  mu: -0.171300000  nElectrons: 208.806292  magneticMoment: [ Abs: 0.00000  Tot: +0.00000 ]
	SubspaceRotationAdjust: set factor to 0.101
ElecMinimize: Iter:   4  G: -1587.931535545948691  |grad|_K:  1.251e-07  alpha:  5.490e-01  linmin: -6.141e-07  t[s]:   4476.04
	Linear fluid (dielectric constant: 78.4, screening length: 8.12261 Bohr) occupying 0.564652 of unit cell:	Completed after 10 iterations at t[s]:   4494.52
	Linear fluid (dielectric constant: 78.4, screening length: 8.12261 Bohr) occupying 0.564652 of unit cell:	Completed after 2 iterations at t[s]:   4509.07
	FillingsUpdate:  mu: -0.171300000  nElectrons: 208.806776  magneticMoment: [ Abs: 0.00000  Tot: +0.00000 ]
	SubspaceRotationAdjust: set factor to 0.0997
ElecMinimize: Iter:   5  G: -1587.931538442264582  |grad|_K:  9.339e-08  alpha:  5.066e-01  linmin:  3.502e-05  t[s]:   4532.52
	Linear fluid (dielectric constant: 78.4, screening length: 8.12261 Bohr) occupying 0.564648 of unit cell:	Completed after 11 iterations at t[s]:   4551.01
	Linear fluid (dielectric constant: 78.4, screening length: 8.12261 Bohr) occupying 0.564648 of unit cell:	Completed after 0 iterations at t[s]:   4565.39
	FillingsUpdate:  mu: -0.171300000  nElectrons: 208.806249  magneticMoment: [ Abs: 0.00000  Tot: +0.00000 ]
	SubspaceRotationAdjust: set factor to 0.091
ElecMinimize: Iter:   6  G: -1587.931540005321040  |grad|_K:  6.924e-08  alpha:  4.915e-01  linmin: -1.356e-05  t[s]:   4588.73
	Linear fluid (dielectric constant: 78.4, screening length: 8.12261 Bohr) occupying 0.564644 of unit cell:	Completed after 10 iterations at t[s]:   4607.50
	Linear fluid (dielectric constant: 78.4, screening length: 8.12261 Bohr) occupying 0.564645 of unit cell:	Completed after 5 iterations at t[s]:   4622.32
	FillingsUpdate:  mu: -0.171300000  nElectrons: 208.806529  magneticMoment: [ Abs: 0.00000  Tot: +0.00000 ]
	SubspaceRotationAdjust: set factor to 0.0746
ElecMinimize: Iter:   7  G: -1587.931540634260728  |grad|_K:  4.624e-08  alpha:  3.597e-01  linmin:  2.966e-05  t[s]:   4645.56
	Linear fluid (dielectric constant: 78.4, screening length: 8.12261 Bohr) occupying 0.564642 of unit cell:	Completed after 8 iterations at t[s]:   4664.28
	Linear fluid (dielectric constant: 78.4, screening length: 8.12261 Bohr) occupying 0.564642 of unit cell:	Completed after 0 iterations at t[s]:   4678.93
	FillingsUpdate:  mu: -0.171300000  nElectrons: 208.806253  magneticMoment: [ Abs: 0.00000  Tot: +0.00000 ]
	SubspaceRotationAdjust: set factor to 0.0658
ElecMinimize: Iter:   8  G: -1587.931540924828596  |grad|_K:  2.870e-08  alpha:  3.721e-01  linmin: -7.032e-04  t[s]:   4702.31
	Linear fluid (dielectric constant: 78.4, screening length: 8.12261 Bohr) occupying 0.564640 of unit cell:	Completed after 2 iterations at t[s]:   4720.13
	Linear fluid (dielectric constant: 78.4, screening length: 8.12261 Bohr) occupying 0.564640 of unit cell:	Completed after 0 iterations at t[s]:   4734.40
	FillingsUpdate:  mu: -0.171300000  nElectrons: 208.806255  magneticMoment: [ Abs: 0.00000  Tot: +0.00000 ]
	SubspaceRotationAdjust: set factor to 0.0751
ElecMinimize: Iter:   9  G: -1587.931541043316884  |grad|_K:  1.809e-08  alpha:  3.847e-01  linmin: -2.800e-04  t[s]:   4757.76
	Linear fluid (dielectric constant: 78.4, screening length: 8.12261 Bohr) occupying 0.564639 of unit cell:	Completed after 2 iterations at t[s]:   4775.78
	Linear fluid (dielectric constant: 78.4, screening length: 8.12261 Bohr) occupying 0.564639 of unit cell:	Completed after 0 iterations at t[s]:   4790.08
	FillingsUpdate:  mu: -0.171300000  nElectrons: 208.806325  magneticMoment: [ Abs: 0.00000  Tot: +0.00000 ]
	SubspaceRotationAdjust: set factor to 0.0756
ElecMinimize: Iter:  10  G: -1587.931541091706322  |grad|_K:  1.119e-08  alpha:  4.021e-01  linmin: -1.731e-03  t[s]:   4813.51
	Linear fluid (dielectric constant: 78.4, screening length: 8.12261 Bohr) occupying 0.564639 of unit cell:	Completed after 2 iterations at t[s]:   4831.31
	Linear fluid (dielectric constant: 78.4, screening length: 8.12261 Bohr) occupying 0.564639 of unit cell:	Completed after 0 iterations at t[s]:   4845.81
	FillingsUpdate:  mu: -0.171300000  nElectrons: 208.806320  magneticMoment: [ Abs: 0.00000  Tot: +0.00000 ]
	SubspaceRotationAdjust: set factor to 0.0867
ElecMinimize: Iter:  11  G: -1587.931541110660419  |grad|_K:  7.796e-09  alpha:  4.034e-01  linmin: -2.845e-03  t[s]:   4869.16
ElecMinimize: Converged (|Delta G|<1.000000e-07 for 2 iters).
Setting wave functions to eigenvectors of Hamiltonian
Converging empty states (this may take a while): |deigs|: 2.911e-08

Computing DFT-D3 correction:
# coordination-number Ag 5.373 5.372 7.658 9.173 9.198 9.209 9.214 9.209 9.198 9.173 7.659
# diagonal-C6 Ag 268.61 268.61 268.61 268.61 268.61 268.61 268.61 268.61 268.61 268.61 268.61
EvdW_6 =   -0.070440
EvdW_8 =   -0.095615
IonicMinimize: 	Wolfe criterion not satisfied: alpha: 1  (E-E0)/|gdotd0|: -0.964278  gdotd/gdotd0: 0.937001 (taking cubic step)

Computing DFT-D3 correction:
# coordination-number Ag 5.389 5.387 7.647 9.166 9.184 9.208 9.221 9.209 9.184 9.167 7.648
# diagonal-C6 Ag 268.61 268.61 268.61 268.61 268.61 268.61 268.61 268.61 268.61 268.61 268.61
EvdW_6 =   -0.070422
EvdW_8 =   -0.095589
Shifting auxilliary hamiltonian by -0.000018 to set nElectrons=208.806320

-------- Electronic minimization -----------
	Linear fluid (dielectric constant: 78.4, screening length: 8.12261 Bohr) occupying 0.564700 of unit cell:	Completed after 12 iterations at t[s]:   4944.66
	FillingsUpdate:  mu: -0.171300000  nElectrons: 208.806320  magneticMoment: [ Abs: 0.00000  Tot: +0.00000 ]
ElecMinimize: Iter:   0  G: -1587.931624336489222  |grad|_K:  2.156e-07  alpha:  1.000e+00
	Linear fluid (dielectric constant: 78.4, screening length: 8.12261 Bohr) occupying 0.564699 of unit cell:	Completed after 10 iterations at t[s]:   4989.68
	Linear fluid (dielectric constant: 78.4, screening length: 8.12261 Bohr) occupying 0.564699 of unit cell:	Completed after 9 iterations at t[s]:   5004.76
	FillingsUpdate:  mu: -0.171300000  nElectrons: 208.806753  magneticMoment: [ Abs: 0.00000  Tot: +0.00000 ]
	SubspaceRotationAdjust: set factor to 0.12
ElecMinimize: Iter:   1  G: -1587.931634316554891  |grad|_K:  1.881e-07  alpha:  5.868e-01  linmin:  1.612e-05  t[s]:   5028.05
	Linear fluid (dielectric constant: 78.4, screening length: 8.12261 Bohr) occupying 0.564698 of unit cell:	Completed after 7 iterations at t[s]:   5046.41
	Linear fluid (dielectric constant: 78.4, screening length: 8.12261 Bohr) occupying 0.564698 of unit cell:	Completed after 2 iterations at t[s]:   5060.99
	FillingsUpdate:  mu: -0.171300000  nElectrons: 208.806586  magneticMoment: [ Abs: 0.00000  Tot: +0.00000 ]
	SubspaceRotationAdjust: set factor to 0.144
ElecMinimize: Iter:   2  G: -1587.931642893254320  |grad|_K:  2.425e-07  alpha:  6.634e-01  linmin: -5.969e-06  t[s]:   5084.30
	Linear fluid (dielectric constant: 78.4, screening length: 8.12261 Bohr) occupying 0.564696 of unit cell:	Completed after 3 iterations at t[s]:   5102.37
	Linear fluid (dielectric constant: 78.4, screening length: 8.12261 Bohr) occupying 0.564696 of unit cell:	Completed after 2 iterations at t[s]:   5116.90
	FillingsUpdate:  mu: -0.171300000  nElectrons: 208.806652  magneticMoment: [ Abs: 0.00000  Tot: +0.00000 ]
	SubspaceRotationAdjust: set factor to 0.167
ElecMinimize: Iter:   3  G: -1587.931658016767642  |grad|_K:  2.591e-07  alpha:  7.036e-01  linmin: -1.180e-06  t[s]:   5140.34
	Linear fluid (dielectric constant: 78.4, screening length: 8.12261 Bohr) occupying 0.564694 of unit cell:	Completed after 10 iterations at t[s]:   5158.81
	Linear fluid (dielectric constant: 78.4, screening length: 8.12261 Bohr) occupying 0.564694 of unit cell:	Completed after 2 iterations at t[s]:   5173.33
	FillingsUpdate:  mu: -0.171300000  nElectrons: 208.806985  magneticMoment: [ Abs: 0.00000  Tot: +0.00000 ]
	SubspaceRotationAdjust: set factor to 0.179
ElecMinimize: Iter:   4  G: -1587.931674108836432  |grad|_K:  2.316e-07  alpha:  6.556e-01  linmin:  1.396e-06  t[s]:   5196.36
	Linear fluid (dielectric constant: 78.4, screening length: 8.12261 Bohr) occupying 0.564692 of unit cell:	Completed after 12 iterations at t[s]:   5214.91
	Linear fluid (dielectric constant: 78.4, screening length: 8.12261 Bohr) occupying 0.564693 of unit cell:	Completed after 11 iterations at t[s]:   5230.12
	FillingsUpdate:  mu: -0.171300000  nElectrons: 208.805788  magneticMoment: [ Abs: 0.00000  Tot: +0.00000 ]
	SubspaceRotationAdjust: set factor to 0.163
ElecMinimize: Iter:   5  G: -1587.931682370690623  |grad|_K:  1.923e-07  alpha:  4.217e-01  linmin: -5.115e-06  t[s]:   5253.32
	Linear fluid (dielectric constant: 78.4, screening length: 8.12261 Bohr) occupying 0.564692 of unit cell:	Completed after 12 iterations at t[s]:   5272.04
	Linear fluid (dielectric constant: 78.4, screening length: 8.12261 Bohr) occupying 0.564692 of unit cell:	Completed after 10 iterations at t[s]:   5287.12
	FillingsUpdate:  mu: -0.171300000  nElectrons: 208.807243  magneticMoment: [ Abs: 0.00000  Tot: +0.00000 ]
	SubspaceRotationAdjust: set factor to 0.108
ElecMinimize: Iter:   6  G: -1587.931685541444494  |grad|_K:  1.554e-07  alpha:  2.344e-01  linmin:  4.500e-06  t[s]:   5310.50
	Linear fluid (dielectric constant: 78.4, screening length: 8.12261 Bohr) occupying 0.564691 of unit cell:	Completed after 10 iterations at t[s]:   5329.12
	Linear fluid (dielectric constant: 78.4, screening length: 8.12261 Bohr) occupying 0.564691 of unit cell:	Completed after 7 iterations at t[s]:   5344.24
	FillingsUpdate:  mu: -0.171300000  nElectrons: 208.806395  magneticMoment: [ Abs: 0.00000  Tot: +0.00000 ]
	SubspaceRotationAdjust: set factor to 0.0994
ElecMinimize: Iter:   7  G: -1587.931687961135594  |grad|_K:  8.457e-08  alpha:  2.741e-01  linmin:  1.027e-05  t[s]:   5367.61
	Linear fluid (dielectric constant: 78.4, screening length: 8.12261 Bohr) occupying 0.564689 of unit cell:	Completed after 7 iterations at t[s]:   5386.07
	Linear fluid (dielectric constant: 78.4, screening length: 8.12261 Bohr) occupying 0.564688 of unit cell:	Completed after 2 iterations at t[s]:   5400.64
	FillingsUpdate:  mu: -0.171300000  nElectrons: 208.806169  magneticMoment: [ Abs: 0.00000  Tot: +0.00000 ]
	SubspaceRotationAdjust: set factor to 0.105
ElecMinimize: Iter:   8  G: -1587.931689014804533  |grad|_K:  5.951e-08  alpha:  4.027e-01  linmin: -1.757e-04  t[s]:   5424.06
	Linear fluid (dielectric constant: 78.4, screening length: 8.12261 Bohr) occupying 0.564685 of unit cell:	Completed after 10 iterations at t[s]:   5442.76
	Linear fluid (dielectric constant: 78.4, screening length: 8.12261 Bohr) occupying 0.564686 of unit cell:	Completed after 3 iterations at t[s]:   5457.54
	FillingsUpdate:  mu: -0.171300000  nElectrons: 208.806485  magneticMoment: [ Abs: 0.00000  Tot: +0.00000 ]
	SubspaceRotationAdjust: set factor to 0.0913
ElecMinimize: Iter:   9  G: -1587.931689441243861  |grad|_K:  3.836e-08  alpha:  3.252e-01  linmin:  1.379e-03  t[s]:   5481.15
	Linear fluid (dielectric constant: 78.4, screening length: 8.12261 Bohr) occupying 0.564684 of unit cell:	Completed after 7 iterations at t[s]:   5499.46
	Linear fluid (dielectric constant: 78.4, screening length: 8.12261 Bohr) occupying 0.564684 of unit cell:	Completed after 0 iterations at t[s]:   5513.74
	FillingsUpdate:  mu: -0.171300000  nElectrons: 208.806363  magneticMoment: [ Abs: 0.00000  Tot: +0.00000 ]
	SubspaceRotationAdjust: set factor to 0.0908
ElecMinimize: Iter:  10  G: -1587.931689632574262  |grad|_K:  2.528e-08  alpha:  3.606e-01  linmin: -3.978e-03  t[s]:   5537.28
	Linear fluid (dielectric constant: 78.4, screening length: 8.12261 Bohr) occupying 0.564683 of unit cell:	Completed after 2 iterations at t[s]:   5555.40
	Linear fluid (dielectric constant: 78.4, screening length: 8.12261 Bohr) occupying 0.564683 of unit cell:	Completed after 0 iterations at t[s]:   5569.80
	FillingsUpdate:  mu: -0.171300000  nElectrons: 208.806469  magneticMoment: [ Abs: 0.00000  Tot: +0.00000 ]
	SubspaceRotationAdjust: set factor to 0.117
ElecMinimize: Iter:  11  G: -1587.931689726792911  |grad|_K:  1.997e-08  alpha:  3.849e-01  linmin: -9.684e-04  t[s]:   5593.15
	Linear fluid (dielectric constant: 78.4, screening length: 8.12261 Bohr) occupying 0.564682 of unit cell:	Completed after 7 iterations at t[s]:   5611.33
	Linear fluid (dielectric constant: 78.4, screening length: 8.12261 Bohr) occupying 0.564682 of unit cell:	Completed after 0 iterations at t[s]:   5625.77
	FillingsUpdate:  mu: -0.171300000  nElectrons: 208.806629  magneticMoment: [ Abs: 0.00000  Tot: +0.00000 ]
	SubspaceRotationAdjust: set factor to 0.0944
ElecMinimize: Iter:  12  G: -1587.931689775319455  |grad|_K:  2.038e-08  alpha:  3.297e-01  linmin:  6.689e-04  t[s]:   5649.09
ElecMinimize: Converged (|Delta G|<1.000000e-07 for 2 iters).
Setting wave functions to eigenvectors of Hamiltonian
Converging empty states (this may take a while): |deigs|: 3.723e-08

Computing DFT-D3 correction:
# coordination-number Ag 5.389 5.387 7.647 9.166 9.184 9.208 9.221 9.209 9.184 9.167 7.648
# diagonal-C6 Ag 268.61 268.61 268.61 268.61 268.61 268.61 268.61 268.61 268.61 268.61 268.61
EvdW_6 =   -0.070422
EvdW_8 =   -0.095589

# Ionic positions in cartesian coordinates:
ion Ag  -0.000050293824830  -0.004121951743076  24.263039859115814 1
ion Ag   0.000106327658211   4.907281054325706   1.160203091653673 1
ion Ag   2.710089371080386   0.813194318533792   3.451156989497372 1
ion Ag   2.710157618521275   5.722434306694139   5.773333031465763 1
ion Ag   0.000067408376974   1.632679284063948   8.095170440514531 1
ion Ag   0.000152654964912   6.535500696062287  10.400196542642673 1
ion Ag   2.710145991187005   2.451530554075450  12.712143028061300 1
ion Ag   2.710213488902617   7.356375173632299  15.024268844971228 1
ion Ag  -0.000160270524642   3.270105364526912  17.329045581427373 1
ion Ag   0.000129928040894   8.169244888778831  19.651064794336193 1
ion Ag   2.710268775617201   4.089737311049711  21.973459796314085 1

# Forces in Cartesian coordinates:
force Ag  -0.000016251355791  -0.001177158674213  -0.001903626093082 1
force Ag   0.000035976212864   0.001236227559757   0.001575893065257 1
force Ag  -0.000041387136058  -0.000926999137817  -0.004209704841544 1
force Ag  -0.000019274654445   0.000497465671989  -0.001036147377715 1
force Ag   0.000019974459895  -0.000470842150930   0.001267012332701 1
force Ag   0.000044811513026  -0.000569547793204  -0.000234373064429 1
force Ag  -0.000024511603715   0.000016130455105  -0.000011312322849 1
force Ag  -0.000001500527512   0.000599914803530   0.000273144792176 1
force Ag  -0.000049775200877   0.000426183719377  -0.001285161817926 1
force Ag   0.000039886534403  -0.000532638838051   0.001032376468951 1
force Ag   0.000015489994563   0.000918335335427   0.004305785771307 1

# Energy components:
   A_diel =        0.0318792671330914
   Eewald =    14802.8851047227817617
       EH =    16257.8287632336687238
     Eloc =   -32939.5719099458510755
      Enl =       43.4054161908527689
     EvdW =       -0.1660111107037375
      Exc =     -159.3899288360354944
 Exc_core =        2.2898748886035789
       KE =      368.9759505764164942
  MuShift =        0.0107902898823665
-------------------------------------
     Etot =    -1623.7000707232512013
       TS =        0.0001946037004359
-------------------------------------
        F =    -1623.7002653269516941
      muN =      -35.7685755516322033
-------------------------------------
        G =    -1587.9316897753194553


Dumping 'jdft.fillings' ... done
Dumping 'jdft.wfns' ... done
Dumping 'jdft.fluidState' ... done
Dumping 'jdft.ionpos' ... done
Dumping 'jdft.lattice' ... done
Dumping 'jdft.eigenvals' ... done
Dumping 'jdft.eigStats' ... 
	eMin: -3.556754 at state 0 ( [ +0.000000 +0.000000 +0.000000 ] spin 1 )
	HOMO: -0.171655 at state 130 ( [ +0.384615 -0.428571 +0.000000 ] spin -1 )
	mu  : -0.171300
	LUMO: -0.170110 at state 0 ( [ +0.000000 +0.000000 +0.000000 ] spin 1 )
	eMax: +0.170732 at state 55 ( [ -0.461538 -0.142857 +0.000000 ] spin 1 )
	HOMO-LUMO gap: +0.001545
	Optical gap  : +0.003575 at state 1 ( [ +0.000000 +0.142857 +0.000000 ] spin 1 )
Dumping 'jdft.Ecomponents' ... done
IonicMinimize: Iter:   1  G: -1587.931689775319455  |grad|_K:  1.281e-03  alpha:  3.000e+00  linmin: -9.934e-01  t[s]:   5703.89

#--- Lowdin population analysis ---
# oxidation-state Ag +0.178 +0.178 -0.020 -0.040 +0.005 +0.000 +0.006 +0.000 +0.005 -0.040 -0.020
# magnetic-moments Ag +0.000 +0.000 +0.000 -0.000 -0.000 -0.000 +0.000 +0.000 -0.000 +0.000 +0.000


Computing DFT-D3 correction:
# coordination-number Ag 5.528 5.512 7.574 9.151 9.096 9.205 9.242 9.205 9.094 9.157 7.576
# diagonal-C6 Ag 268.61 268.61 268.61 268.61 268.61 268.61 268.61 268.61 268.61 268.61 268.61
EvdW_6 =   -0.070355
EvdW_8 =   -0.095553
Shifting auxilliary hamiltonian by -0.000114 to set nElectrons=208.806629

-------- Electronic minimization -----------
	Linear fluid (dielectric constant: 78.4, screening length: 8.12261 Bohr) occupying 0.564650 of unit cell:	Completed after 25 iterations at t[s]:   5723.52
	FillingsUpdate:  mu: -0.171300000  nElectrons: 208.806629  magneticMoment: [ Abs: 0.00000  Tot: +0.00000 ]
ElecMinimize: Iter:   0  G: -1587.250468314686714  |grad|_K:  7.854e-05  alpha:  1.000e+00
	Linear fluid (dielectric constant: 78.4, screening length: 8.12261 Bohr) occupying 0.562968 of unit cell:	Completed after 25 iterations at t[s]:   5769.51
	Linear fluid (dielectric constant: 78.4, screening length: 8.12261 Bohr) occupying 0.564463 of unit cell:	Completed after 25 iterations at t[s]:   5785.79
	FillingsUpdate:  mu: -0.171300000  nElectrons: 208.723586  magneticMoment: [ Abs: 0.00000  Tot: +0.00000 ]
	SubspaceRotationAdjust: set factor to 0.088
ElecMinimize: Iter:   1  G: -1587.849375405401361  |grad|_K:  2.556e-05  alpha:  2.778e-01  linmin:  1.451e-02  t[s]:   5809.18
	Linear fluid (dielectric constant: 78.4, screening length: 8.12261 Bohr) occupying 0.564595 of unit cell:	Completed after 19 iterations at t[s]:   5828.38
	Linear fluid (dielectric constant: 78.4, screening length: 8.12261 Bohr) occupying 0.564589 of unit cell:	Completed after 15 iterations at t[s]:   5844.67
	FillingsUpdate:  mu: -0.171300000  nElectrons: 208.841861  magneticMoment: [ Abs: 0.00000  Tot: +0.00000 ]
	SubspaceRotationAdjust: set factor to 0.0657
ElecMinimize: Iter:   2  G: -1587.905992354344335  |grad|_K:  7.502e-06  alpha:  2.466e-01  linmin:  1.603e-04  t[s]:   5868.09
	Linear fluid (dielectric constant: 78.4, screening length: 8.12261 Bohr) occupying 0.564638 of unit cell:	Completed after 15 iterations at t[s]:   5886.99
	Linear fluid (dielectric constant: 78.4, screening length: 8.12261 Bohr) occupying 0.564654 of unit cell:	Completed after 15 iterations at t[s]:   5902.60
	FillingsUpdate:  mu: -0.171300000  nElectrons: 208.813575  magneticMoment: [ Abs: 0.00000  Tot: +0.00000 ]
	SubspaceRotationAdjust: set factor to 0.0722
ElecMinimize: Iter:   3  G: -1587.912903360527253  |grad|_K:  3.998e-06  alpha:  3.361e-01  linmin: -8.789e-05  t[s]:   5925.94
	Linear fluid (dielectric constant: 78.4, screening length: 8.12261 Bohr) occupying 0.564738 of unit cell:	Completed after 15 iterations at t[s]:   5945.10
	Linear fluid (dielectric constant: 78.4, screening length: 8.12261 Bohr) occupying 0.564765 of unit cell:	Completed after 13 iterations at t[s]:   5960.48
	FillingsUpdate:  mu: -0.171300000  nElectrons: 208.824793  magneticMoment: [ Abs: 0.00000  Tot: +0.00000 ]
	SubspaceRotationAdjust: set factor to 0.0932
ElecMinimize: Iter:   4  G: -1587.915528289304348  |grad|_K:  3.380e-06  alpha:  4.485e-01  linmin:  1.743e-06  t[s]:   5983.87
	Linear fluid (dielectric constant: 78.4, screening length: 8.12261 Bohr) occupying 0.564915 of unit cell:	Completed after 15 iterations at t[s]:   6002.83
	Linear fluid (dielectric constant: 78.4, screening length: 8.12261 Bohr) occupying 0.564982 of unit cell:	Completed after 13 iterations at t[s]:   6018.32
	FillingsUpdate:  mu: -0.171300000  nElectrons: 208.834428  magneticMoment: [ Abs: 0.00000  Tot: +0.00000 ]
	SubspaceRotationAdjust: set factor to 0.117
ElecMinimize: Iter:   5  G: -1587.918269272938687  |grad|_K:  3.511e-06  alpha:  6.560e-01  linmin: -1.637e-05  t[s]:   6041.59
	Linear fluid (dielectric constant: 78.4, screening length: 8.12261 Bohr) occupying 0.565262 of unit cell:	Completed after 15 iterations at t[s]:   6060.52
	Linear fluid (dielectric constant: 78.4, screening length: 8.12261 Bohr) occupying 0.565248 of unit cell:	Completed after 11 iterations at t[s]:   6075.69
	FillingsUpdate:  mu: -0.171300000  nElectrons: 208.804533  magneticMoment: [ Abs: 0.00000  Tot: +0.00000 ]
	SubspaceRotationAdjust: set factor to 0.121
ElecMinimize: Iter:   6  G: -1587.921074758333816  |grad|_K:  4.391e-06  alpha:  6.217e-01  linmin: -5.495e-06  t[s]:   6098.90
	Linear fluid (dielectric constant: 78.4, screening length: 8.12261 Bohr) occupying 0.565636 of unit cell:	Completed after 15 iterations at t[s]:   6117.76
	Linear fluid (dielectric constant: 78.4, screening length: 8.12261 Bohr) occupying 0.565585 of unit cell:	Completed after 13 iterations at t[s]:   6133.16
	FillingsUpdate:  mu: -0.171300000  nElectrons: 208.832438  magneticMoment: [ Abs: 0.00000  Tot: +0.00000 ]
	SubspaceRotationAdjust: set factor to 0.108
ElecMinimize: Iter:   7  G: -1587.924828245609888  |grad|_K:  4.521e-06  alpha:  5.332e-01  linmin: -1.483e-05  t[s]:   6156.53
	Linear fluid (dielectric constant: 78.4, screening length: 8.12261 Bohr) occupying 0.565780 of unit cell:	Completed after 15 iterations at t[s]:   6175.33
	Linear fluid (dielectric constant: 78.4, screening length: 8.12261 Bohr) occupying 0.565762 of unit cell:	Completed after 13 iterations at t[s]:   6190.65
	FillingsUpdate:  mu: -0.171300000  nElectrons: 208.799101  magneticMoment: [ Abs: 0.00000  Tot: -0.00000 ]
	SubspaceRotationAdjust: set factor to 0.0992
ElecMinimize: Iter:   8  G: -1587.928355212323368  |grad|_K:  3.668e-06  alpha:  4.697e-01  linmin:  9.742e-06  t[s]:   6214.02
	Linear fluid (dielectric constant: 78.4, screening length: 8.12261 Bohr) occupying 0.565731 of unit cell:	Completed after 13 iterations at t[s]:   6233.02
	Linear fluid (dielectric constant: 78.4, screening length: 8.12261 Bohr) occupying 0.565737 of unit cell:	Completed after 10 iterations at t[s]:   6248.42
	FillingsUpdate:  mu: -0.171300000  nElectrons: 208.801350  magneticMoment: [ Abs: 0.00000  Tot: -0.00000 ]
	SubspaceRotationAdjust: set factor to 0.102
ElecMinimize: Iter:   9  G: -1587.930404701904536  |grad|_K:  2.579e-06  alpha:  4.179e-01  linmin:  2.035e-06  t[s]:   6271.85
	Linear fluid (dielectric constant: 78.4, screening length: 8.12261 Bohr) occupying 0.565630 of unit cell:	Completed after 14 iterations at t[s]:   6290.66
	Linear fluid (dielectric constant: 78.4, screening length: 8.12261 Bohr) occupying 0.565619 of unit cell:	Completed after 9 iterations at t[s]:   6305.70
	FillingsUpdate:  mu: -0.171300000  nElectrons: 208.805054  magneticMoment: [ Abs: 0.00000  Tot: -0.00000 ]
	SubspaceRotationAdjust: set factor to 0.104
ElecMinimize: Iter:  10  G: -1587.931514215380275  |grad|_K:  1.638e-06  alpha:  4.567e-01  linmin:  4.133e-06  t[s]:   6329.16
	Linear fluid (dielectric constant: 78.4, screening length: 8.12261 Bohr) occupying 0.565525 of unit cell:	Completed after 13 iterations at t[s]:   6347.95
	Linear fluid (dielectric constant: 78.4, screening length: 8.12261 Bohr) occupying 0.565541 of unit cell:	Completed after 10 iterations at t[s]:   6362.97
	FillingsUpdate:  mu: -0.171300000  nElectrons: 208.803170  magneticMoment: [ Abs: 0.00000  Tot: -0.00000 ]
	SubspaceRotationAdjust: set factor to 0.101
ElecMinimize: Iter:  11  G: -1587.931890597758184  |grad|_K:  1.003e-06  alpha:  3.839e-01  linmin: -1.570e-06  t[s]:   6386.49
	Linear fluid (dielectric constant: 78.4, screening length: 8.12261 Bohr) occupying 0.565505 of unit cell:	Completed after 13 iterations at t[s]:   6405.51
	Linear fluid (dielectric constant: 78.4, screening length: 8.12261 Bohr) occupying 0.565504 of unit cell:	Completed after 2 iterations at t[s]:   6420.11
	FillingsUpdate:  mu: -0.171300000  nElectrons: 208.809358  magneticMoment: [ Abs: 0.00000  Tot: -0.00000 ]
	SubspaceRotationAdjust: set factor to 0.0937
ElecMinimize: Iter:  12  G: -1587.932033283711235  |grad|_K:  6.806e-07  alpha:  3.882e-01  linmin: -2.982e-05  t[s]:   6443.47
	Linear fluid (dielectric constant: 78.4, screening length: 8.12261 Bohr) occupying 0.565484 of unit cell:	Completed after 12 iterations at t[s]:   6462.04
	Linear fluid (dielectric constant: 78.4, screening length: 8.12261 Bohr) occupying 0.565484 of unit cell:	Completed after 0 iterations at t[s]:   6476.45
	FillingsUpdate:  mu: -0.171300000  nElectrons: 208.807479  magneticMoment: [ Abs: 0.00000  Tot: -0.00000 ]
	SubspaceRotationAdjust: set factor to 0.0929
ElecMinimize: Iter:  13  G: -1587.932098600630979  |grad|_K:  4.356e-07  alpha:  3.853e-01  linmin:  1.336e-04  t[s]:   6499.97
	Linear fluid (dielectric constant: 78.4, screening length: 8.12261 Bohr) occupying 0.565482 of unit cell:	Completed after 12 iterations at t[s]:   6518.77
	Linear fluid (dielectric constant: 78.4, screening length: 8.12261 Bohr) occupying 0.565481 of unit cell:	Completed after 7 iterations at t[s]:   6533.67
	FillingsUpdate:  mu: -0.171300000  nElectrons: 208.809457  magneticMoment: [ Abs: 0.00000  Tot: -0.00000 ]
	SubspaceRotationAdjust: set factor to 0.108
ElecMinimize: Iter:  14  G: -1587.932127682852069  |grad|_K:  3.286e-07  alpha:  4.202e-01  linmin: -9.897e-05  t[s]:   6557.24
	Linear fluid (dielectric constant: 78.4, screening length: 8.12261 Bohr) occupying 0.565484 of unit cell:	Completed after 6 iterations at t[s]:   6575.77
	Linear fluid (dielectric constant: 78.4, screening length: 8.12261 Bohr) occupying 0.565484 of unit cell:	Completed after 2 iterations at t[s]:   6590.37
	FillingsUpdate:  mu: -0.171300000  nElectrons: 208.809899  magneticMoment: [ Abs: 0.00000  Tot: -0.00000 ]
	SubspaceRotationAdjust: set factor to 0.141
ElecMinimize: Iter:  15  G: -1587.932145997979660  |grad|_K:  2.611e-07  alpha:  4.632e-01  linmin: -8.531e-06  t[s]:   6613.71
	Linear fluid (dielectric constant: 78.4, screening length: 8.12261 Bohr) occupying 0.565489 of unit cell:	Completed after 10 iterations at t[s]:   6632.29
	Linear fluid (dielectric constant: 78.4, screening length: 8.12261 Bohr) occupying 0.565491 of unit cell:	Completed after 7 iterations at t[s]:   6647.39
	FillingsUpdate:  mu: -0.171300000  nElectrons: 208.809536  magneticMoment: [ Abs: 0.00000  Tot: -0.00000 ]
	SubspaceRotationAdjust: set factor to 0.172
[...]
	Linear fluid (dielectric constant: 78.4, screening length: 8.12261 Bohr) occupying 0.562168 of unit cell:	Completed after 2 iterations at t[s]:  37743.05
	FillingsUpdate:  mu: -0.171300000  nElectrons: 208.813708  magneticMoment: [ Abs: 0.00001  Tot: +0.00000 ]
	SubspaceRotationAdjust: set factor to 0.145
ElecMinimize: Iter:  54  G: -1587.932588042063571  |grad|_K:  4.392e-08  alpha:  5.310e-01  linmin: -1.351e-05  t[s]:  37766.43
	Linear fluid (dielectric constant: 78.4, screening length: 8.12261 Bohr) occupying 0.562176 of unit cell:	Completed after 4 iterations at t[s]:  37784.48
	Linear fluid (dielectric constant: 78.4, screening length: 8.12261 Bohr) occupying 0.562175 of unit cell:	Completed after 2 iterations at t[s]:  37799.11
	FillingsUpdate:  mu: -0.171300000  nElectrons: 208.813352  magneticMoment: [ Abs: 0.00001  Tot: +0.00000 ]
	SubspaceRotationAdjust: set factor to 0.175
ElecMinimize: Iter:  55  G: -1587.932588361190255  |grad|_K:  3.164e-08  alpha:  4.523e-01  linmin:  1.128e-05  t[s]:  37822.48
	Linear fluid (dielectric constant: 78.4, screening length: 8.12261 Bohr) occupying 0.562179 of unit cell:	Completed after 7 iterations at t[s]:  37840.70
	Linear fluid (dielectric constant: 78.4, screening length: 8.12261 Bohr) occupying 0.562179 of unit cell:	Completed after 0 iterations at t[s]:  37854.99
	FillingsUpdate:  mu: -0.171300000  nElectrons: 208.813029  magneticMoment: [ Abs: 0.00001  Tot: +0.00000 ]
	SubspaceRotationAdjust: set factor to 0.195
ElecMinimize: Iter:  56  G: -1587.932588537820266  |grad|_K:  3.176e-08  alpha:  4.825e-01  linmin: -7.089e-05  t[s]:  37878.61
	Linear fluid (dielectric constant: 78.4, screening length: 8.12261 Bohr) occupying 0.562185 of unit cell:	Completed after 9 iterations at t[s]:  37897.30
	Linear fluid (dielectric constant: 78.4, screening length: 8.12261 Bohr) occupying 0.562183 of unit cell:	Completed after 4 iterations at t[s]:  37912.06
	FillingsUpdate:  mu: -0.171300000  nElectrons: 208.813257  magneticMoment: [ Abs: 0.00001  Tot: +0.00000 ]
	SubspaceRotationAdjust: set factor to 0.154
ElecMinimize: Iter:  57  G: -1587.932588677019339  |grad|_K:  3.773e-08  alpha:  3.671e-01  linmin:  7.539e-05  t[s]:  37935.38
	Linear fluid (dielectric constant: 78.4, screening length: 8.12261 Bohr) occupying 0.562190 of unit cell:	Completed after 10 iterations at t[s]:  37954.06
	Linear fluid (dielectric constant: 78.4, screening length: 8.12261 Bohr) occupying 0.562187 of unit cell:	Completed after 7 iterations at t[s]:  37968.99
	FillingsUpdate:  mu: -0.171300000  nElectrons: 208.813009  magneticMoment: [ Abs: 0.00000  Tot: +0.00000 ]
	SubspaceRotationAdjust: set factor to 0.126
ElecMinimize: Iter:  58  G: -1587.932588781342929  |grad|_K:  2.307e-08  alpha:  2.104e-01  linmin:  8.377e-06  t[s]:  37992.50
	Linear fluid (dielectric constant: 78.4, screening length: 8.12261 Bohr) occupying 0.562189 of unit cell:	Completed after 2 iterations at t[s]:  38010.46
	Linear fluid (dielectric constant: 78.4, screening length: 8.12261 Bohr) occupying 0.562191 of unit cell:	Completed after 4 iterations at t[s]:  38025.19
	FillingsUpdate:  mu: -0.171300000  nElectrons: 208.813124  magneticMoment: [ Abs: 0.00000  Tot: +0.00000 ]
	SubspaceRotationAdjust: set factor to 0.152
ElecMinimize: Iter:  59  G: -1587.932588873838085  |grad|_K:  1.924e-08  alpha:  4.738e-01  linmin: -4.252e-05  t[s]:  38048.64
	Linear fluid (dielectric constant: 78.4, screening length: 8.12261 Bohr) occupying 0.562194 of unit cell:	Completed after 6 iterations at t[s]:  38067.25
	Linear fluid (dielectric constant: 78.4, screening length: 8.12261 Bohr) occupying 0.562193 of unit cell:	Completed after 0 iterations at t[s]:  38081.77
	FillingsUpdate:  mu: -0.171300000  nElectrons: 208.813259  magneticMoment: [ Abs: 0.00000  Tot: +0.00000 ]
	SubspaceRotationAdjust: set factor to 0.138
ElecMinimize: Iter:  60  G: -1587.932588933184661  |grad|_K:  1.979e-08  alpha:  4.332e-01  linmin: -4.604e-05  t[s]:  38105.15
ElecMinimize: Converged (|Delta G|<1.000000e-07 for 2 iters).
Setting wave functions to eigenvectors of Hamiltonian
Converging empty states (this may take a while): |deigs|: 1.932e-04

Computing DFT-D3 correction:
# coordination-number Ag 5.475 5.489 7.490 9.020 8.920 9.037 9.049 9.034 8.918 9.010 7.485
# diagonal-C6 Ag 268.61 268.61 268.61 268.61 268.61 268.61 268.61 268.61 268.61 268.61 268.61
EvdW_6 =   -0.069641
EvdW_8 =   -0.094518

# Ionic positions in cartesian coordinates:
ion Ag  -0.000095874731733  -0.079126863635294  24.338274078530983 1
ion Ag   0.002596434225389   4.983582654720649   1.093575696123007 1
ion Ag   2.708417432011112   0.850284476034954   3.256347482139806 1
ion Ag   2.709765715929128   5.763228533133840   5.688682614530820 1
ion Ag  -0.000049369393248   1.638501101735976   8.034890946538408 1
ion Ag   0.000903075912846   6.526898812914220  10.367441372931347 1
ion Ag   2.708799420172293   2.452066724121909  12.710806274832512 1
ion Ag   2.710281041219134   7.361988780868685  15.055027875878920 1
ion Ag  -0.002004711937322   3.263872545943742  17.385542237153615 1
ion Ag   0.002485851764351   8.128919433312339  19.736928125816188 1
ion Ag   2.710021984828054   4.053744800848976  22.165565295524402 1

# Forces in Cartesian coordinates:
force Ag   0.000001769723060  -0.000117565953037  -0.000193222138934 1
force Ag   0.000003700342603   0.000124659775969   0.000120000521812 1
force Ag  -0.000013641585736   0.000125057143164   0.000081563091780 1
force Ag   0.000000757152156   0.000122832353513   0.000232865648552 1
force Ag   0.000002257426536  -0.000110635767375  -0.000061570995228 1
force Ag   0.000003266353425   0.000198841731066   0.000119287374913 1
force Ag   0.000000240708200  -0.000118126121191  -0.000015132848671 1
force Ag   0.000008389657839   0.000079229691449  -0.000025918731455 1
force Ag  -0.000002598695858  -0.000017558469480   0.000138118863159 1
force Ag   0.000006591010740  -0.000066723402921  -0.000319015551711 1
force Ag   0.000008019102994  -0.000158250559203  -0.000087556184380 1

# Energy components:
   A_diel =        0.0310773847818485
   Eewald =    14614.1845529567144695
       EH =    16069.6976188557200658
     Eloc =   -32562.7182699413169757
      Enl =       43.4146309477589440
     EvdW =       -0.1641593402237838
      Exc =     -159.3660219480144065
 Exc_core =        2.2898757717341773
       KE =      368.9181721503715039
  MuShift =        0.0104203430024945
-------------------------------------
     Etot =    -1623.7021028194719747
       TS =        0.0001973425560262
-------------------------------------
        F =    -1623.7023001620279956
      muN =      -35.7697112288433559
-------------------------------------
        G =    -1587.9325889331846611


Dumping 'jdft.fillings' ... done
Dumping 'jdft.wfns' ... done
Dumping 'jdft.fluidState' ... done
Dumping 'jdft.ionpos' ... done
Dumping 'jdft.lattice' ... done
Dumping 'jdft.eigenvals' ... done
Dumping 'jdft.eigStats' ... 
	eMin: -3.555745 at state 91 ( [ +0.000000 +0.000000 +0.000000 ] spin -1 )
	HOMO: -0.171362 at state 97 ( [ +0.000000 -0.142857 +0.000000 ] spin -1 )
	mu  : -0.171300
	LUMO: -0.170676 at state 44 ( [ +0.461538 +0.285714 +0.000000 ] spin 1 )
	eMax: +0.169623 at state 134 ( [ +0.461538 +0.142857 +0.000000 ] spin -1 )
	HOMO-LUMO gap: +0.000686
	Optical gap  : +0.005810 at state 91 ( [ +0.000000 +0.000000 +0.000000 ] spin -1 )
Dumping 'jdft.Ecomponents' ... done
IonicMinimize: Iter:  11  G: -1587.932588933184661  |grad|_K:  1.131e-04  alpha:  1.625e-17  linmin: -1.447e-01  t[s]:  38247.82

#--- Lowdin population analysis ---
# oxidation-state Ag +0.169 +0.168 -0.017 -0.038 +0.008 -0.001 +0.006 -0.001 +0.008 -0.038 -0.017
# magnetic-moments Ag +0.000 +0.000 +0.000 +0.000 +0.000 +0.000 +0.000 +0.000 +0.000 +0.000 +0.000


Computing DFT-D3 correction:
# coordination-number Ag 5.476 5.490 7.485 9.015 8.917 9.043 9.048 9.041 8.917 9.008 7.482
# diagonal-C6 Ag 268.61 268.61 268.61 268.61 268.61 268.61 268.61 268.61 268.61 268.61 268.61
EvdW_6 =   -0.069643
EvdW_8 =   -0.094526
Shifting auxilliary hamiltonian by -0.000106 to set nElectrons=208.813259

-------- Electronic minimization -----------
	Linear fluid (dielectric constant: 78.4, screening length: 8.12261 Bohr) occupying 0.562188 of unit cell:	Completed after 13 iterations at t[s]:  38268.93
	FillingsUpdate:  mu: -0.171300000  nElectrons: 208.813259  magneticMoment: [ Abs: 0.00000  Tot: +0.00000 ]
ElecMinimize: Iter:   0  G: -1587.932571563563442  |grad|_K:  2.177e-07  alpha:  1.000e+00
	Linear fluid (dielectric constant: 78.4, screening length: 8.12261 Bohr) occupying 0.562192 of unit cell:	Completed after 13 iterations at t[s]:  38314.05
	Linear fluid (dielectric constant: 78.4, screening length: 8.12261 Bohr) occupying 0.562189 of unit cell:	Completed after 13 iterations at t[s]:  38329.46
	FillingsUpdate:  mu: -0.171300000  nElectrons: 208.814850  magneticMoment: [ Abs: 0.00000  Tot: +0.00000 ]
	SubspaceRotationAdjust: set factor to 0.097
ElecMinimize: Iter:   1  G: -1587.932574520585149  |grad|_K:  1.240e-07  alpha:  1.687e-01  linmin: -8.026e-04  t[s]:  38352.92
	Linear fluid (dielectric constant: 78.4, screening length: 8.12261 Bohr) occupying 0.562189 of unit cell:	Completed after 9 iterations at t[s]:  38371.67
ElecMinimize: 	Predicted alpha/alphaT>3.000000, increasing alphaT to 5.060907e-01.
	Linear fluid (dielectric constant: 78.4, screening length: 8.12261 Bohr) occupying 0.562190 of unit cell:	Completed after 10 iterations at t[s]:  38386.93
	Linear fluid (dielectric constant: 78.4, screening length: 8.12261 Bohr) occupying 0.562190 of unit cell:	Completed after 8 iterations at t[s]:  38401.95
	FillingsUpdate:  mu: -0.171300000  nElectrons: 208.813453  magneticMoment: [ Abs: 0.00000  Tot: +0.00000 ]
	SubspaceRotationAdjust: set factor to 0.129
ElecMinimize: Iter:   2  G: -1587.932578312518444  |grad|_K:  1.134e-07  alpha:  6.681e-01  linmin:  4.209e-05  t[s]:  38425.46
	Linear fluid (dielectric constant: 78.4, screening length: 8.12261 Bohr) occupying 0.562192 of unit cell:	Completed after 8 iterations at t[s]:  38444.12
	Linear fluid (dielectric constant: 78.4, screening length: 8.12261 Bohr) occupying 0.562192 of unit cell:	Completed after 2 iterations at t[s]:  38458.77
	FillingsUpdate:  mu: -0.171300000  nElectrons: 208.812598  magneticMoment: [ Abs: 0.00000  Tot: +0.00000 ]
	SubspaceRotationAdjust: set factor to 0.15
ElecMinimize: Iter:   3  G: -1587.932582380868553  |grad|_K:  1.388e-07  alpha:  8.657e-01  linmin: -3.788e-05  t[s]:  38482.15
	Linear fluid (dielectric constant: 78.4, screening length: 8.12261 Bohr) occupying 0.562199 of unit cell:	Completed after 11 iterations at t[s]:  38500.77
	Linear fluid (dielectric constant: 78.4, screening length: 8.12261 Bohr) occupying 0.562196 of unit cell:	Completed after 11 iterations at t[s]:  38516.05
	FillingsUpdate:  mu: -0.171300000  nElectrons: 208.813160  magneticMoment: [ Abs: 0.00000  Tot: +0.00000 ]
	SubspaceRotationAdjust: set factor to 0.149
ElecMinimize: Iter:   4  G: -1587.932585892598127  |grad|_K:  1.369e-07  alpha:  4.951e-01  linmin:  1.174e-05  t[s]:  38540.09
	Linear fluid (dielectric constant: 78.4, screening length: 8.12261 Bohr) occupying 0.562203 of unit cell:	Completed after 10 iterations at t[s]:  38558.97
	Linear fluid (dielectric constant: 78.4, screening length: 8.12261 Bohr) occupying 0.562201 of unit cell:	Completed after 10 iterations at t[s]:  38574.11
	FillingsUpdate:  mu: -0.171300000  nElectrons: 208.812114  magneticMoment: [ Abs: 0.00000  Tot: +0.00000 ]
	SubspaceRotationAdjust: set factor to 0.115
ElecMinimize: Iter:   5  G: -1587.932588499360918  |grad|_K:  1.199e-07  alpha:  3.806e-01  linmin:  1.456e-05  t[s]:  38597.51
	Linear fluid (dielectric constant: 78.4, screening length: 8.12261 Bohr) occupying 0.562207 of unit cell:	Completed after 11 iterations at t[s]:  38616.32
	Linear fluid (dielectric constant: 78.4, screening length: 8.12261 Bohr) occupying 0.562205 of unit cell:	Completed after 10 iterations at t[s]:  38631.47
	FillingsUpdate:  mu: -0.171300000  nElectrons: 208.813116  magneticMoment: [ Abs: 0.00000  Tot: +0.00000 ]
	SubspaceRotationAdjust: set factor to 0.0842
ElecMinimize: Iter:   6  G: -1587.932589868741616  |grad|_K:  7.610e-08  alpha:  2.608e-01  linmin:  1.768e-05  t[s]:  38654.91
	Linear fluid (dielectric constant: 78.4, screening length: 8.12261 Bohr) occupying 0.562208 of unit cell:	Completed after 2 iterations at t[s]:  38672.97
	Linear fluid (dielectric constant: 78.4, screening length: 8.12261 Bohr) occupying 0.562209 of unit cell:	Completed after 5 iterations at t[s]:  38687.86
	FillingsUpdate:  mu: -0.171300000  nElectrons: 208.813191  magneticMoment: [ Abs: 0.00000  Tot: +0.00000 ]
	SubspaceRotationAdjust: set factor to 0.0996
ElecMinimize: Iter:   7  G: -1587.932590753472823  |grad|_K:  4.925e-08  alpha:  4.198e-01  linmin:  5.106e-05  t[s]:  38711.33
	Linear fluid (dielectric constant: 78.4, screening length: 8.12261 Bohr) occupying 0.562210 of unit cell:	Completed after 10 iterations at t[s]:  38729.86
	Linear fluid (dielectric constant: 78.4, screening length: 8.12261 Bohr) occupying 0.562210 of unit cell:	Completed after 0 iterations at t[s]:  38744.17
	FillingsUpdate:  mu: -0.171300000  nElectrons: 208.813084  magneticMoment: [ Abs: 0.00000  Tot: +0.00000 ]
	SubspaceRotationAdjust: set factor to 0.0916
ElecMinimize: Iter:   8  G: -1587.932591086200773  |grad|_K:  3.502e-08  alpha:  3.757e-01  linmin:  4.948e-04  t[s]:  38767.47
	Linear fluid (dielectric constant: 78.4, screening length: 8.12261 Bohr) occupying 0.562210 of unit cell:	Completed after 10 iterations at t[s]:  38786.06
	Linear fluid (dielectric constant: 78.4, screening length: 8.12261 Bohr) occupying 0.562210 of unit cell:	Completed after 2 iterations at t[s]:  38800.50
	FillingsUpdate:  mu: -0.171300000  nElectrons: 208.813357  magneticMoment: [ Abs: 0.00000  Tot: +0.00000 ]
	SubspaceRotationAdjust: set factor to 0.0651
ElecMinimize: Iter:   9  G: -1587.932591225973511  |grad|_K:  2.423e-08  alpha:  3.191e-01  linmin:  1.112e-05  t[s]:  38823.92
	Linear fluid (dielectric constant: 78.4, screening length: 8.12261 Bohr) occupying 0.562209 of unit cell:	Completed after 6 iterations at t[s]:  38842.66
	Linear fluid (dielectric constant: 78.4, screening length: 8.12261 Bohr) occupying 0.562209 of unit cell:	Completed after 0 iterations at t[s]:  38856.98
	FillingsUpdate:  mu: -0.171300000  nElectrons: 208.813274  magneticMoment: [ Abs: 0.00000  Tot: +0.00000 ]
	SubspaceRotationAdjust: set factor to 0.0618
ElecMinimize: Iter:  10  G: -1587.932591291539893  |grad|_K:  1.398e-08  alpha:  3.068e-01  linmin: -1.121e-03  t[s]:  38880.24
	Linear fluid (dielectric constant: 78.4, screening length: 8.12261 Bohr) occupying 0.562208 of unit cell:	Completed after 1 iterations at t[s]:  38898.15
	Linear fluid (dielectric constant: 78.4, screening length: 8.12261 Bohr) occupying 0.562208 of unit cell:	Completed after 0 iterations at t[s]:  38912.60
	FillingsUpdate:  mu: -0.171300000  nElectrons: 208.813275  magneticMoment: [ Abs: 0.00000  Tot: +0.00000 ]
	SubspaceRotationAdjust: set factor to 0.0679
ElecMinimize: Iter:  11  G: -1587.932591323472707  |grad|_K:  8.434e-09  alpha:  4.382e-01  linmin: -1.453e-03  t[s]:  38936.12
ElecMinimize: Converged (|Delta G|<1.000000e-07 for 2 iters).
Setting wave functions to eigenvectors of Hamiltonian
Converging empty states (this may take a while): |deigs|: 3.509e-08

Computing DFT-D3 correction:
# coordination-number Ag 5.476 5.490 7.485 9.015 8.917 9.043 9.048 9.041 8.917 9.008 7.482
# diagonal-C6 Ag 268.61 268.61 268.61 268.61 268.61 268.61 268.61 268.61 268.61 268.61 268.61
EvdW_6 =   -0.069643
EvdW_8 =   -0.094526

# Ionic positions in cartesian coordinates:
ion Ag  -0.000084368385807  -0.080542852410662  24.336799547870719 1
ion Ag   0.002563297115546   4.984726836455624   1.094579647051526 1
ion Ag   2.708249020064372   0.852911990699731   3.252813371582369 1
ion Ag   2.709742047442374   5.764466597161192   5.692510826610618 1
ion Ag  -0.000021119666340   1.637830485045384   8.033424037148794 1
ion Ag   0.000939950443194   6.528086708196259  10.370504829302051 1
ion Ag   2.708767054845409   2.451878508948886  12.710606855428793 1
ion Ag   2.710347335158030   7.361392890388483  15.053327020596345 1
ion Ag  -0.002086798252447   3.264631889374890  17.387615332531677 1
ion Ag   0.002589899719810   8.127395803681960  19.732697884828966 1
ion Ag   2.710114681515863   4.051182142458248  22.168202647048144 1

# Forces in Cartesian coordinates:
force Ag   0.000002764206724  -0.000114740137894   0.000023207559579 1
force Ag   0.000003191198892   0.000133050709680  -0.000091869791120 1
force Ag  -0.000009239284303  -0.000019614008566   0.000021194334119 1
force Ag   0.000003827561780   0.000101396003019  -0.000152291631765 1
force Ag   0.000000513433271  -0.000037033012114  -0.000125830366870 1
force Ag   0.000001536252345   0.000116838652837  -0.000135867647540 1
force Ag   0.000001756564046  -0.000096825132898   0.000002302962037 1
force Ag   0.000006044203627   0.000118017439842   0.000148720252433 1
force Ag   0.000001652474958  -0.000093095528666   0.000157320550707 1
force Ag   0.000000624214024  -0.000019222604350   0.000117005659248 1
force Ag   0.000005377318841  -0.000023759294697   0.000051855802372 1

# Energy components:
   A_diel =        0.0310857916607556
   Eewald =    14614.7128038083319552
       EH =    16070.2033920285593922
     Eloc =   -32563.7524583323684055
      Enl =       43.4148235440737125
     EvdW =       -0.1641688816001476
      Exc =     -159.3659965591368177
 Exc_core =        2.2898757804658909
       KE =      368.9181157691703561
  MuShift =        0.0104194315756667
-------------------------------------
     Etot =    -1623.7021076192672808
       TS =        0.0001977309822007
-------------------------------------
        F =    -1623.7023053502493894
      muN =      -35.7697140267766116
-------------------------------------
        G =    -1587.9325913234727068


Dumping 'jdft.fillings' ... done
Dumping 'jdft.wfns' ... done
Dumping 'jdft.fluidState' ... done
Dumping 'jdft.ionpos' ... done
Dumping 'jdft.lattice' ... done
Dumping 'jdft.eigenvals' ... done
Dumping 'jdft.eigStats' ... 
	eMin: -3.555966 at state 0 ( [ +0.000000 +0.000000 +0.000000 ] spin 1 )
	HOMO: -0.171479 at state 92 ( [ +0.000000 +0.142857 +0.000000 ] spin -1 )
	mu  : -0.171300
	LUMO: -0.170835 at state 135 ( [ +0.461538 +0.285714 +0.000000 ] spin -1 )
	eMax: +0.169619 at state 55 ( [ -0.461538 -0.142857 +0.000000 ] spin 1 )
	HOMO-LUMO gap: +0.000645
	Optical gap  : +0.005757 at state 91 ( [ +0.000000 +0.000000 +0.000000 ] spin -1 )
Dumping 'jdft.Ecomponents' ... done
IonicMinimize: Iter:  12  G: -1587.932591323472707  |grad|_K:  8.153e-05  alpha:  1.000e+00  linmin:  1.684e-01  t[s]:  38990.99
IonicMinimize: Converged (|grad|_K<1.000000e-04).

#--- Lowdin population analysis ---
# oxidation-state Ag +0.169 +0.169 -0.017 -0.038 +0.008 -0.001 +0.006 -0.001 +0.008 -0.038 -0.017
# magnetic-moments Ag +0.000 +0.000 +0.000 +0.000 +0.000 +0.000 +0.000 +0.000 +0.000 -0.000 +0.000


Dumping 'jdft.n_up' ... done
Dumping 'jdft.n_dn' ... done
Dumping 'jdft.tau_up' ... done
Dumping 'jdft.tau_dn' ... done
Dumping 'jdft.eigenvals' ... done
Dumping 'jdft.eigStats' ... 
	eMin: -3.555966 at state 0 ( [ +0.000000 +0.000000 +0.000000 ] spin 1 )
	HOMO: -0.171479 at state 92 ( [ +0.000000 +0.142857 +0.000000 ] spin -1 )
	mu  : -0.171300
	LUMO: -0.170835 at state 135 ( [ +0.461538 +0.285714 +0.000000 ] spin -1 )
	eMax: +0.169619 at state 55 ( [ -0.461538 -0.142857 +0.000000 ] spin 1 )
	HOMO-LUMO gap: +0.000645
	Optical gap  : +0.005757 at state 91 ( [ +0.000000 +0.000000 +0.000000 ] spin -1 )
Dumping 'jdft.kPts' ... done
Dumping 'jdft.dosUp' ... done.
Dumping 'jdft.dosDn' ... done.
End date and time: Tue Dec  7 04:15:12 2021  (Duration: 0-10:50:29.47)
Done!
