
*************** JDFTx 1.6.0  ***************

Start date and time: Mon Dec  6 15:24:21 2021
Executable /projects/musgravc/apps/jdftx-1.6.1/build/jdftx with command-line: -i in
Running on hosts (process indices):  shas0917.rc.int.colorado.edu (0-23)
Divided in process groups (process indices):  0 (0)  1 (1)  2 (2)  3 (3)  4 (4)  5 (5)  6 (6)  7 (7)  8 (8)  9 (9)  10 (10)  11 (11)  12 (12)  13 (13)  14 (14)  15 (15)  16 (16)  17 (17)  18 (18)  19 (19)  20 (20)  21 (21)  22 (22)  23 (23)
Resource initialization completed at t[s]:      0.00
Run totals: 24 processes, 24 threads, 0 GPUs


Input parsed successfully to the following command list (including defaults):

basis kpoint-dependent
converge-empty-states yes
coords-type Cartesian
core-overlap-check none
coulomb-interaction Periodic
davidson-band-ratio 1.1
density-of-states Etol 1.000000e-06 Esigma 1.000000e-03 \
		Complete \
	Total \
	OrthoOrbital Cu 1   s \
	OrthoOrbital Cu 1   p \
	OrthoOrbital Cu 1   px \
	OrthoOrbital Cu 1   py \
	OrthoOrbital Cu 1   pz \
	OrthoOrbital Cu 1   d \
	OrthoOrbital Cu 1   dxy \
	OrthoOrbital Cu 1   dyz \
	OrthoOrbital Cu 1   dz2 \
	OrthoOrbital Cu 1   dxz \
	OrthoOrbital Cu 1   dx2-y2 \
	OrthoOrbital Cu 2   s \
	OrthoOrbital Cu 2   p \
	OrthoOrbital Cu 2   px \
	OrthoOrbital Cu 2   py \
	OrthoOrbital Cu 2   pz \
	OrthoOrbital Cu 2   d \
	OrthoOrbital Cu 2   dxy \
	OrthoOrbital Cu 2   dyz \
	OrthoOrbital Cu 2   dz2 \
	OrthoOrbital Cu 2   dxz \
	OrthoOrbital Cu 2   dx2-y2 \
	OrthoOrbital Cu 3   s \
	OrthoOrbital Cu 3   p \
	OrthoOrbital Cu 3   px \
	OrthoOrbital Cu 3   py \
	OrthoOrbital Cu 3   pz \
	OrthoOrbital Cu 3   d \
	OrthoOrbital Cu 3   dxy \
	OrthoOrbital Cu 3   dyz \
	OrthoOrbital Cu 3   dz2 \
	OrthoOrbital Cu 3   dxz \
	OrthoOrbital Cu 3   dx2-y2 \
	OrthoOrbital Cu 4   s \
	OrthoOrbital Cu 4   p \
	OrthoOrbital Cu 4   px \
	OrthoOrbital Cu 4   py \
	OrthoOrbital Cu 4   pz \
	OrthoOrbital Cu 4   d \
	OrthoOrbital Cu 4   dxy \
	OrthoOrbital Cu 4   dyz \
	OrthoOrbital Cu 4   dz2 \
	OrthoOrbital Cu 4   dxz \
	OrthoOrbital Cu 4   dx2-y2 \
	OrthoOrbital Cu 5   s \
	OrthoOrbital Cu 5   p \
	OrthoOrbital Cu 5   px \
	OrthoOrbital Cu 5   py \
	OrthoOrbital Cu 5   pz \
	OrthoOrbital Cu 5   d \
	OrthoOrbital Cu 5   dxy \
	OrthoOrbital Cu 5   dyz \
	OrthoOrbital Cu 5   dz2 \
	OrthoOrbital Cu 5   dxz \
	OrthoOrbital Cu 5   dx2-y2 \
	OrthoOrbital Cu 6   s \
	OrthoOrbital Cu 6   p \
	OrthoOrbital Cu 6   px \
	OrthoOrbital Cu 6   py \
	OrthoOrbital Cu 6   pz \
	OrthoOrbital Cu 6   d \
	OrthoOrbital Cu 6   dxy \
	OrthoOrbital Cu 6   dyz \
	OrthoOrbital Cu 6   dz2 \
	OrthoOrbital Cu 6   dxz \
	OrthoOrbital Cu 6   dx2-y2 \
	OrthoOrbital Cu 7   s \
	OrthoOrbital Cu 7   p \
	OrthoOrbital Cu 7   px \
	OrthoOrbital Cu 7   py \
	OrthoOrbital Cu 7   pz \
	OrthoOrbital Cu 7   d \
	OrthoOrbital Cu 7   dxy \
	OrthoOrbital Cu 7   dyz \
	OrthoOrbital Cu 7   dz2 \
	OrthoOrbital Cu 7   dxz \
	OrthoOrbital Cu 7   dx2-y2 \
	OrthoOrbital Cu 8   s \
	OrthoOrbital Cu 8   p \
	OrthoOrbital Cu 8   px \
	OrthoOrbital Cu 8   py \
	OrthoOrbital Cu 8   pz \
	OrthoOrbital Cu 8   d \
	OrthoOrbital Cu 8   dxy \
	OrthoOrbital Cu 8   dyz \
	OrthoOrbital Cu 8   dz2 \
	OrthoOrbital Cu 8   dxz \
	OrthoOrbital Cu 8   dx2-y2 \
	OrthoOrbital Cu 9   s \
	OrthoOrbital Cu 9   p \
	OrthoOrbital Cu 9   px \
	OrthoOrbital Cu 9   py \
	OrthoOrbital Cu 9   pz \
	OrthoOrbital Cu 9   d \
	OrthoOrbital Cu 9   dxy \
	OrthoOrbital Cu 9   dyz \
	OrthoOrbital Cu 9   dz2 \
	OrthoOrbital Cu 9   dxz \
	OrthoOrbital Cu 9   dx2-y2 \
	OrthoOrbital Cu 10   s \
	OrthoOrbital Cu 10   p \
	OrthoOrbital Cu 10   px \
	OrthoOrbital Cu 10   py \
	OrthoOrbital Cu 10   pz \
	OrthoOrbital Cu 10   d \
	OrthoOrbital Cu 10   dxy \
	OrthoOrbital Cu 10   dyz \
	OrthoOrbital Cu 10   dz2 \
	OrthoOrbital Cu 10   dxz \
	OrthoOrbital Cu 10   dx2-y2 \
	OrthoOrbital Cu 11   s \
	OrthoOrbital Cu 11   p \
	OrthoOrbital Cu 11   px \
	OrthoOrbital Cu 11   py \
	OrthoOrbital Cu 11   pz \
	OrthoOrbital Cu 11   d \
	OrthoOrbital Cu 11   dxy \
	OrthoOrbital Cu 11   dyz \
	OrthoOrbital Cu 11   dz2 \
	OrthoOrbital Cu 11   dxz \
	OrthoOrbital Cu 11   dx2-y2 \
	OrthoOrbital Cu 12   s \
	OrthoOrbital Cu 12   p \
	OrthoOrbital Cu 12   px \
	OrthoOrbital Cu 12   py \
	OrthoOrbital Cu 12   pz \
	OrthoOrbital Cu 12   d \
	OrthoOrbital Cu 12   dxy \
	OrthoOrbital Cu 12   dyz \
	OrthoOrbital Cu 12   dz2 \
	OrthoOrbital Cu 12   dxz \
	OrthoOrbital Cu 12   dx2-y2 \
	OrthoOrbital Cu 13   s \
	OrthoOrbital Cu 13   p \
	OrthoOrbital Cu 13   px \
	OrthoOrbital Cu 13   py \
	OrthoOrbital Cu 13   pz \
	OrthoOrbital Cu 13   d \
	OrthoOrbital Cu 13   dxy \
	OrthoOrbital Cu 13   dyz \
	OrthoOrbital Cu 13   dz2 \
	OrthoOrbital Cu 13   dxz \
	OrthoOrbital Cu 13   dx2-y2 \
	OrthoOrbital Cu 14   s \
	OrthoOrbital Cu 14   p \
	OrthoOrbital Cu 14   px \
	OrthoOrbital Cu 14   py \
	OrthoOrbital Cu 14   pz \
	OrthoOrbital Cu 14   d \
	OrthoOrbital Cu 14   dxy \
	OrthoOrbital Cu 14   dyz \
	OrthoOrbital Cu 14   dz2 \
	OrthoOrbital Cu 14   dxz \
	OrthoOrbital Cu 14   dx2-y2 \
	OrthoOrbital Cu 15   s \
	OrthoOrbital Cu 15   p \
	OrthoOrbital Cu 15   px \
	OrthoOrbital Cu 15   py \
	OrthoOrbital Cu 15   pz \
	OrthoOrbital Cu 15   d \
	OrthoOrbital Cu 15   dxy \
	OrthoOrbital Cu 15   dyz \
	OrthoOrbital Cu 15   dz2 \
	OrthoOrbital Cu 15   dxz \
	OrthoOrbital Cu 15   dx2-y2 \
	OrthoOrbital Cu 16   s \
	OrthoOrbital Cu 16   p \
	OrthoOrbital Cu 16   px \
	OrthoOrbital Cu 16   py \
	OrthoOrbital Cu 16   pz \
	OrthoOrbital Cu 16   d \
	OrthoOrbital Cu 16   dxy \
	OrthoOrbital Cu 16   dyz \
	OrthoOrbital Cu 16   dz2 \
	OrthoOrbital Cu 16   dxz \
	OrthoOrbital Cu 16   dx2-y2 \
	OrthoOrbital Cu 17   s \
	OrthoOrbital Cu 17   p \
	OrthoOrbital Cu 17   px \
	OrthoOrbital Cu 17   py \
	OrthoOrbital Cu 17   pz \
	OrthoOrbital Cu 17   d \
	OrthoOrbital Cu 17   dxy \
	OrthoOrbital Cu 17   dyz \
	OrthoOrbital Cu 17   dz2 \
	OrthoOrbital Cu 17   dxz \
	OrthoOrbital Cu 17   dx2-y2 \
	OrthoOrbital Cu 18   s \
	OrthoOrbital Cu 18   p \
	OrthoOrbital Cu 18   px \
	OrthoOrbital Cu 18   py \
	OrthoOrbital Cu 18   pz \
	OrthoOrbital Cu 18   d \
	OrthoOrbital Cu 18   dxy \
	OrthoOrbital Cu 18   dyz \
	OrthoOrbital Cu 18   dz2 \
	OrthoOrbital Cu 18   dxz \
	OrthoOrbital Cu 18   dx2-y2 \
	OrthoOrbital Cu 19   s \
	OrthoOrbital Cu 19   p \
	OrthoOrbital Cu 19   px \
	OrthoOrbital Cu 19   py \
	OrthoOrbital Cu 19   pz \
	OrthoOrbital Cu 19   d \
	OrthoOrbital Cu 19   dxy \
	OrthoOrbital Cu 19   dyz \
	OrthoOrbital Cu 19   dz2 \
	OrthoOrbital Cu 19   dxz \
	OrthoOrbital Cu 19   dx2-y2 \
	OrthoOrbital Cu 20   s \
	OrthoOrbital Cu 20   p \
	OrthoOrbital Cu 20   px \
	OrthoOrbital Cu 20   py \
	OrthoOrbital Cu 20   pz \
	OrthoOrbital Cu 20   d \
	OrthoOrbital Cu 20   dxy \
	OrthoOrbital Cu 20   dyz \
	OrthoOrbital Cu 20   dz2 \
	OrthoOrbital Cu 20   dxz \
	OrthoOrbital Cu 20   dx2-y2
dump End ElecDensity KEdensity BandEigs EigStats RhoAtom DOS Kpoints
dump Ionic State IonicPositions Lattice EigStats Ecomponents
dump 
dump 
dump 
dump 
dump 
dump 
dump 
dump 
dump-name jdft.$VAR
elec-cutoff 20
elec-eigen-algo Davidson
elec-ex-corr gga-PBE
elec-initial-magnetization 0.000000 no
elec-n-bands 228
elec-smearing Fermi 0.001
electronic-minimize  \
	dirUpdateScheme      FletcherReeves \
	linminMethod         DirUpdateRecommended \
	nIterations          100 \
	history              15 \
	knormThreshold       0 \
	energyDiffThreshold  1e-07 \
	nEnergyDiff          2 \
	alphaTstart          1 \
	alphaTmin            1e-10 \
	updateTestStepSize   yes \
	alphaTreduceFactor   0.1 \
	alphaTincreaseFactor 3 \
	nAlphaAdjustMax      3 \
	wolfeEnergy          0.0001 \
	wolfeGradient        0.9 \
	fdTest               no
exchange-regularization WignerSeitzTruncated
fluid LinearPCM 298.000000 1.013250
fluid-anion F- 0.5 MeanFieldLJ \
	epsBulk 1 \
	pMol 0 \
	epsInf 1 \
	Pvap 0 \
	sigmaBulk 0 \
	Rvdw 2.24877 \
	Res 0 \
	tauNuc 343133
fluid-cation Na+ 0.5 MeanFieldLJ \
	epsBulk 1 \
	pMol 0 \
	epsInf 1 \
	Pvap 0 \
	sigmaBulk 0 \
	Rvdw 2.19208 \
	Res 0 \
	tauNuc 343133
fluid-ex-corr lda-TF lda-PZ
fluid-gummel-loop 10 1.000000e-05
fluid-minimize  \
	dirUpdateScheme      PolakRibiere \
	linminMethod         DirUpdateRecommended \
	nIterations          400 \
	history              15 \
	knormThreshold       1e-11 \
	energyDiffThreshold  0 \
	nEnergyDiff          2 \
	alphaTstart          1 \
	alphaTmin            1e-10 \
	updateTestStepSize   yes \
	alphaTreduceFactor   0.1 \
	alphaTincreaseFactor 3 \
	nAlphaAdjustMax      6 \
	wolfeEnergy          0.0001 \
	wolfeGradient        0.9 \
	fdTest               no
fluid-solvent H2O 55.338 ScalarEOS \
	epsBulk 78.4 \
	pMol 0.92466 \
	epsInf 1.77 \
	Pvap 1.06736e-10 \
	sigmaBulk 4.62e-05 \
	Rvdw 2.61727 \
	Res 1.42 \
	tauNuc 343133 \
	poleEl 15 7 1
forces-output-coords Positions
ion Cu   0.000000000000000   4.263398000000000  18.652386000000000 1
ion Cu   0.000000000000000   8.526795000000000  16.520644999999998 1
ion Cu   0.000000000000000   2.131699000000000  14.388966999999999 1
ion Cu   0.000000000000000   6.395095999999999  12.257289999999999 1
ion Cu   0.000000000000000  10.658493999999997  10.125548000000000 1
ion Cu   0.000000000000000   4.263398000000000   7.993871000000000 1
ion Cu   0.000000000000000   8.526795000000000   5.862193000000000 1
ion Cu   0.000000000000000   2.131699000000000   3.730452000000000 1
ion Cu   0.000000000000000   6.395095999999999   1.598774000000000 1
ion Cu   0.000000000000000   0.000000000000000  20.784063000000000 1
ion Cu   3.370512000000000   1.065849000000000  17.586514999999999 1
ion Cu   3.370512000000000   5.329246999999999  15.454837999999999 1
ion Cu   3.370512000000000   9.592643999999998  13.323096000000000 1
ion Cu   3.370512000000000   3.197547999999999  11.191419000000000 1
ion Cu   3.370512000000000   7.460945999999999   9.059741000000001 1
ion Cu   3.370512000000000   1.065849000000000   6.928000000000000 1
ion Cu   3.370512000000000   5.329246999999999   4.796322000000000 1
ion Cu   3.370512000000000   9.592643999999998   2.664645000000000 1
ion Cu   3.370512000000000   3.197547999999999   0.532903000000000 1
ion Cu   3.370512000000000   7.460945999999999  19.718192999999999 1
ion-species /projects/musgravc/apps/jdftx-1.6.0/build/pseudopotentials/GBRV_v1.5/$ID_pbe_v1.uspp
ion-species /projects/musgravc/apps/jdftx-1.6.0/build/pseudopotentials/GBRV_v1.5/$ID_pbe_v1.2.uspp
ion-species /projects/musgravc/apps/jdftx-1.6.0/build/pseudopotentials/GBRV_v1.5/$ID_pbe_v1.4.uspp
ion-species /projects/musgravc/apps/jdftx-1.6.0/build/pseudopotentials/GBRV_v1.5/$ID_pbe_v1.5.uspp
ion-width Ecut
ionic-minimize  \
	dirUpdateScheme      L-BFGS \
	linminMethod         DirUpdateRecommended \
	nIterations          100 \
	history              15 \
	knormThreshold       0.0001 \
	energyDiffThreshold  1e-06 \
	nEnergyDiff          2 \
	alphaTstart          1 \
	alphaTmin            1e-10 \
	updateTestStepSize   yes \
	alphaTreduceFactor   0.1 \
	alphaTincreaseFactor 3 \
	nAlphaAdjustMax      3 \
	wolfeEnergy          0.0001 \
	wolfeGradient        0.9 \
	fdTest               no
kpoint   0.000000000000   0.000000000000   0.000000000000  1.00000000000000
kpoint-folding 9 5 1 
latt-move-scale 0 0 0
latt-scale 1 1 1 
lattice  \
	   6.741023000000000    0.000000000000000    0.000000000000000  \
	   0.000000000000000   10.658493999999999    0.000000000000000  \
	   0.000000000000000    0.000000000000000   63.950963999999999 
lattice-minimize  \
	dirUpdateScheme      L-BFGS \
	linminMethod         DirUpdateRecommended \
	nIterations          0 \
	history              15 \
	knormThreshold       0 \
	energyDiffThreshold  1e-06 \
	nEnergyDiff          2 \
	alphaTstart          1 \
	alphaTmin            1e-10 \
	updateTestStepSize   yes \
	alphaTreduceFactor   0.1 \
	alphaTincreaseFactor 3 \
	nAlphaAdjustMax      3 \
	wolfeEnergy          0.0001 \
	wolfeGradient        0.9 \
	fdTest               no
lcao-params 30 1e-06 0.001
pcm-variant CANDLE
spintype z-spin
subspace-rotation-factor 1 yes
symmetries none
symmetry-threshold 0.0001
van-der-waals D3


Applied RMS atom displacement 0 bohrs to make symmetries exact.

---------- Initializing the Grid ----------
R = 
[      6.74102            0            0  ]
[            0      10.6585            0  ]
[            0            0       63.951  ]
unit cell volume = 4594.82
G =
[   0.932082          0          0  ]
[          0     0.5895          0  ]
[          0          0    0.09825  ]
Minimum fftbox size, Smin = [  28  44  260  ]
Chosen fftbox size, S = [  28  48  270  ]

---------- Exchange Correlation functional ----------
Initalized PBE GGA exchange.
Initalized PBE GGA correlation.

---------- Setting up pseudopotentials ----------
Width of ionic core gaussian charges (only for fluid interactions / plotting) set to 0.397384

Reading pseudopotential file '/projects/musgravc/apps/jdftx-1.6.0/build/pseudopotentials/GBRV_v1.5/cu_pbe_v1.2.uspp':
  Title: Cu.  Created by USPP 7.3.6 on 3-2-2014
  Reference state energy: -201.059491.  19 valence electrons in orbitals:
    |300>  occupation: 2  eigenvalue: -5.020764
    |310>  occupation: 6  eigenvalue: -3.445588
    |320>  occupation: 8  eigenvalue: -0.925168
    |400>  occupation: 2  eigenvalue: -0.567638
    |410>  occupation: 0  eigenvalue: -0.326154
  lMax: 2  lLocal: 3  QijEcut: 6
  6 projectors sampled on a log grid with 613 points:
    l: 0  eig: -5.020767  rCut: 1.4
    l: 0  eig: -0.567640  rCut: 1.4
    l: 1  eig: -3.445589  rCut: 1.55
    l: 1  eig: -0.326157  rCut: 1.55
    l: 2  eig: -0.925170  rCut: 1.5
    l: 2  eig: 1.500000  rCut: 1.5
  Partial core density with radius 0.8
  Transforming core density to a uniform radial grid of dG=0.02 with 1174 points.
  Transforming local potential to a uniform radial grid of dG=0.02 with 1174 points.
  Transforming nonlocal projectors to a uniform radial grid of dG=0.02 with 432 points.
  Transforming density augmentations to a uniform radial grid of dG=0.02 with 1174 points.
  Transforming atomic orbitals to a uniform radial grid of dG=0.02 with 432 points.
  Core radius for overlap checks: 1.55 bohrs.

Initialized 1 species with 20 total atoms.

Folded 1 k-points by 9x5x1 to 45 k-points.

---------- Setting up k-points, bands, fillings ----------
No reducable k-points. 
Computing the number of bands and number of electrons
Calculating initial fillings.
nElectrons: 380.000000   nBands: 228   nStates: 90

----- Setting up reduced wavefunction bases (one per k-point) -----
average nbasis = 19629.533 , ideal nbasis = 19629.432

----- Initializing Supercell corresponding to k-point mesh -----
Lattice vector linear combinations in supercell:
[   9   0   0  ]
[   0   5   0  ]
[   0   0   1  ]
Supercell lattice vectors:
[  60.6692  0  0  ]
[  0  53.2925  0  ]
[  0  0  63.951  ]

Initializing DFT-D3 calculator:
	Parameters set for gga-PBE functional
	s6:  1.000  s_r6:  1.217
	s8:  0.722  s_r8:  1.000
	Per-atom parameters loaded for:
	Cu:  sqrtQ[a0]:  5.226  Rcov[a0]:  1.909  CN: [ 0.00 0.96 ]

Initializing DFT-D2 calculator for fluid / solvation:
	Cu:  C6:  187.33 Eh-a0^6  R0: 2.952 a0

---------- Setting up ewald sum ----------
Optimum gaussian width for ewald sums = 4.025576 bohr.
Real space sum over 825 unit cells with max indices [  7  5  2  ]
Reciprocal space sum over 5049 terms with max indices [  4  5  25  ]

Computing DFT-D3 correction:
# coordination-number Cu 6.874 9.122 9.152 9.158 9.158 9.157 9.131 8.370 6.101 4.602 8.370 9.131 9.157 9.158 9.158 9.152 9.122 6.874 4.602 6.101
# diagonal-C6 Cu 175.00 175.00 175.00 175.00 175.00 175.00 175.00 175.00 175.00 175.00 175.00 175.00 175.00 175.00 175.00 175.00 175.00 175.00 175.00 175.00
EvdW_6 =   -0.118628
EvdW_8 =   -0.178658

---------- Allocating electronic variables ----------
Initializing wave functions:  linear combination of atomic orbitals
Cu pseudo-atom occupations:   s ( 2 1 )  p ( 6 0 )  d ( 10 )
	FillingsUpdate:  mu: -3.714675555  nElectrons: 380.000000  magneticMoment: [ Abs: 0.17386  Tot: -0.00113 ]
LCAOMinimize: Iter:   0  F: -3940.6742139420971398  |grad|_K:  2.798e-02  alpha:  1.000e+00
LCAOMinimize: 	Step increased F by 9.426014e+02, reducing alpha to 4.111135e-02.
LCAOMinimize: 	Step increased F by 1.089712e+02, reducing alpha to 4.111135e-03.
	FillingsUpdate:  mu: -3.121486096  nElectrons: 380.000000  magneticMoment: [ Abs: 0.17514  Tot: +0.00029 ]
LCAOMinimize: Iter:   1  F: -3955.6202867588208392  |grad|_K:  1.473e-02  alpha:  4.111e-03  linmin: -1.963e-01  cgtest:  9.274e-01  t[s]:    190.56
LCAOMinimize: Encountered beta<0, resetting CG.
	FillingsUpdate:  mu: -1.944032603  nElectrons: 380.000000  magneticMoment: [ Abs: 0.18110  Tot: +0.00327 ]
LCAOMinimize: Iter:   2  F: -3963.0916014883050593  |grad|_K:  1.157e-02  alpha:  1.186e-02  linmin:  6.183e-03  cgtest: -1.050e-01  t[s]:    238.30
LCAOMinimize: 	Predicted alpha/alphaT>3.000000, increasing alphaT to 3.557961e-02.
	FillingsUpdate:  mu: +2.480110031  nElectrons: 380.000000  magneticMoment: [ Abs: 0.00916  Tot: +0.00304 ]
LCAOMinimize: Iter:   3  F: -3973.3920768212797157  |grad|_K:  2.688e-02  alpha:  7.440e-02  linmin:  3.903e-02  cgtest:  5.255e-01  t[s]:    298.90
LCAOMinimize: 	Wrong curvature in test step, increasing alphaT to 2.232143e-01.
	FillingsUpdate:  mu: +1.695525777  nElectrons: 380.000000  magneticMoment: [ Abs: 0.00141  Tot: -0.00112 ]
LCAOMinimize: Iter:   4  F: -4013.9261815947479590  |grad|_K:  2.048e-03  alpha: -4.128e-02  linmin:  7.447e-02  cgtest:  1.981e+00  t[s]:    344.92
LCAOMinimize: Encountered beta<0, resetting CG.
	FillingsUpdate:  mu: +1.663820031  nElectrons: 380.000000  magneticMoment: [ Abs: 0.00080  Tot: -0.00043 ]
LCAOMinimize: Iter:   5  F: -4014.6573054660316302  |grad|_K:  2.025e-03  alpha:  2.789e-02  linmin: -9.101e-02  cgtest:  9.643e-01  t[s]:    392.79
LCAOMinimize: 	Wrong curvature in test step, increasing alphaT to 8.365858e-02.
	FillingsUpdate:  mu: +1.623397383  nElectrons: 380.000000  magneticMoment: [ Abs: 0.00066  Tot: -0.00015 ]
LCAOMinimize: Iter:   6  F: -4015.3829669178339827  |grad|_K:  2.005e-03  alpha: -1.507e+00  linmin: -1.333e-01  cgtest:  9.642e-01  t[s]:    438.53
	FillingsUpdate:  mu: +1.580084231  nElectrons: 380.000000  magneticMoment: [ Abs: 0.00066  Tot: -0.00020 ]
LCAOMinimize: Iter:   7  F: -4016.1678898211457636  |grad|_K:  2.012e-03  alpha:  3.019e-02  linmin: -1.001e-01  cgtest:  9.477e-01  t[s]:    486.42
LCAOMinimize: 	Wrong curvature in test step, increasing alphaT to 9.056549e-02.
	FillingsUpdate:  mu: +1.537338515  nElectrons: 380.000000  magneticMoment: [ Abs: 0.00080  Tot: -0.00048 ]
LCAOMinimize: Iter:   8  F: -4016.9935563407243535  |grad|_K:  2.035e-03  alpha: -3.860e-01  linmin: -6.752e-02  cgtest:  9.377e-01  t[s]:    532.31
	FillingsUpdate:  mu: +1.488272309  nElectrons: 380.000000  magneticMoment: [ Abs: 0.00082  Tot: -0.00049 ]
LCAOMinimize: Iter:   9  F: -4017.9377270465438414  |grad|_K:  2.005e-03  alpha:  3.370e-02  linmin: -9.348e-02  cgtest:  9.544e-01  t[s]:    580.16
LCAOMinimize: 	Wrong curvature in test step, increasing alphaT to 1.010861e-01.
	FillingsUpdate:  mu: +1.433528912  nElectrons: 380.000000  magneticMoment: [ Abs: 0.00077  Tot: -0.00041 ]
LCAOMinimize: Iter:  10  F: -4018.8108201475401984  |grad|_K:  1.991e-03  alpha: -1.062e+00  linmin: -1.068e-01  cgtest:  9.499e-01  t[s]:    626.11
	FillingsUpdate:  mu: +1.380276299  nElectrons: 380.000000  magneticMoment: [ Abs: 0.00077  Tot: -0.00042 ]
LCAOMinimize: Iter:  11  F: -4019.7433928016212121  |grad|_K:  2.002e-03  alpha:  3.527e-02  linmin: -8.074e-02  cgtest:  9.325e-01  t[s]:    674.05
LCAOMinimize: 	Wrong curvature in test step, increasing alphaT to 1.058022e-01.
	FillingsUpdate:  mu: +1.324489534  nElectrons: 380.000000  magneticMoment: [ Abs: 0.00068  Tot: -0.00023 ]
LCAOMinimize: Iter:  12  F: -4020.6983685933455490  |grad|_K:  1.977e-03  alpha: -9.866e-01  linmin: -1.689e-01  cgtest:  9.467e-01  t[s]:    719.72
	FillingsUpdate:  mu: +1.265377421  nElectrons: 380.000000  magneticMoment: [ Abs: 0.00065  Tot: -0.00017 ]
LCAOMinimize: Iter:  13  F: -4021.7482059032299730  |grad|_K:  1.973e-03  alpha:  4.038e-02  linmin: -1.751e-01  cgtest:  9.276e-01  t[s]:    767.95
LCAOMinimize: 	Wrong curvature in test step, increasing alphaT to 1.211427e-01.
	FillingsUpdate:  mu: +1.206530048  nElectrons: 380.000000  magneticMoment: [ Abs: 0.00072  Tot: -0.00033 ]
LCAOMinimize: Iter:  14  F: -4022.8304282847484501  |grad|_K:  1.970e-03  alpha: -5.066e-01  linmin: -1.744e-01  cgtest:  9.214e-01  t[s]:    814.00
	FillingsUpdate:  mu: +1.135509370  nElectrons: 380.000000  magneticMoment: [ Abs: 0.00092  Tot: -0.00061 ]
LCAOMinimize: Iter:  15  F: -4024.2703229808798824  |grad|_K:  1.958e-03  alpha:  5.249e-02  linmin: -1.523e-01  cgtest:  8.925e-01  t[s]:    862.12
LCAOMinimize: 	Wrong curvature in test step, increasing alphaT to 1.574554e-01.
	FillingsUpdate:  mu: +1.061129786  nElectrons: 380.000000  magneticMoment: [ Abs: 0.00093  Tot: -0.00056 ]
LCAOMinimize: Iter:  16  F: -4025.7133382857709876  |grad|_K:  1.906e-03  alpha: -6.395e-01  linmin: -1.764e-01  cgtest:  8.976e-01  t[s]:    908.20
	FillingsUpdate:  mu: +1.006486249  nElectrons: 380.000000  magneticMoment: [ Abs: 0.00094  Tot: -0.00047 ]
LCAOMinimize: Iter:  17  F: -4026.9360534077763987  |grad|_K:  1.837e-03  alpha:  4.871e-02  linmin: -1.814e-01  cgtest:  9.108e-01  t[s]:    956.12
LCAOMinimize: 	Wrong curvature in test step, increasing alphaT to 1.461159e-01.
	FillingsUpdate:  mu: +0.946279153  nElectrons: 380.000000  magneticMoment: [ Abs: 0.00102  Tot: -0.00044 ]
LCAOMinimize: Iter:  18  F: -4028.0252924738024376  |grad|_K:  1.747e-03  alpha: -1.496e+00  linmin: -2.023e-01  cgtest:  9.195e-01  t[s]:   1002.31
	FillingsUpdate:  mu: +0.908245316  nElectrons: 380.000000  magneticMoment: [ Abs: 0.00110  Tot: -0.00047 ]
LCAOMinimize: Iter:  19  F: -4028.6718297673669440  |grad|_K:  1.683e-03  alpha:  3.310e-02  linmin: -2.096e-01  cgtest:  9.483e-01  t[s]:   1050.15
LCAOMinimize: 	Wrong curvature in test step, increasing alphaT to 9.929216e-02.
	FillingsUpdate:  mu: +0.870038247  nElectrons: 380.000000  magneticMoment: [ Abs: 0.00117  Tot: -0.00045 ]
LCAOMinimize: Iter:  20  F: -4029.2592449171388580  |grad|_K:  1.617e-03  alpha: -3.190e+00  linmin: -2.172e-01  cgtest:  9.502e-01  t[s]:   1096.18
	FillingsUpdate:  mu: +0.837627789  nElectrons: 380.000000  magneticMoment: [ Abs: 0.00121  Tot: -0.00036 ]
LCAOMinimize: Iter:  21  F: -4029.7003631378534010  |grad|_K:  1.562e-03  alpha:  2.715e-02  linmin: -2.224e-01  cgtest:  9.600e-01  t[s]:   1143.99
LCAOMinimize: 	Wrong curvature in test step, increasing alphaT to 8.143892e-02.
	FillingsUpdate:  mu: +0.804800509  nElectrons: 380.000000  magneticMoment: [ Abs: 0.00126  Tot: -0.00026 ]
LCAOMinimize: Iter:  22  F: -4030.1097038958937446  |grad|_K:  1.507e-03  alpha: -6.751e+00  linmin: -2.261e-01  cgtest:  9.602e-01  t[s]:   1189.95
	FillingsUpdate:  mu: +0.774698268  nElectrons: 380.000000  magneticMoment: [ Abs: 0.00131  Tot: -0.00016 ]
LCAOMinimize: Iter:  23  F: -4030.4573717763828427  |grad|_K:  1.457e-03  alpha:  2.483e-02  linmin: -2.254e-01  cgtest:  9.635e-01  t[s]:   1237.72
LCAOMinimize: 	Wrong curvature in test step, increasing alphaT to 7.447865e-02.
	FillingsUpdate:  mu: +0.744147079  nElectrons: 380.000000  magneticMoment: [ Abs: 0.00138  Tot: -0.00009 ]
LCAOMinimize: Iter:  24  F: -4030.7819119376868002  |grad|_K:  1.407e-03  alpha: -1.167e+01  linmin: -2.204e-01  cgtest:  9.634e-01  t[s]:   1283.72
	FillingsUpdate:  mu: +0.714778540  nElectrons: 380.000000  magneticMoment: [ Abs: 0.00145  Tot: -0.00004 ]
LCAOMinimize: Iter:  25  F: -4031.0812521859475055  |grad|_K:  1.359e-03  alpha:  2.456e-02  linmin: -2.146e-01  cgtest:  9.639e-01  t[s]:   1331.85
LCAOMinimize: 	Predicted alpha/alphaT>3.000000, increasing alphaT to 7.369417e-02.
LCAOMinimize: 	Predicted alpha/alphaT>3.000000, increasing alphaT to 2.210825e-01.
LCAOMinimize: 	Step increased F by 6.240741e+01, reducing alpha to 5.773524e-02.
	FillingsUpdate:  mu: +0.644348684  nElectrons: 380.000000  magneticMoment: [ Abs: 0.00163  Tot: -0.00005 ]
LCAOMinimize: Iter:  26  F: -4031.7334637514645692  |grad|_K:  1.236e-03  alpha:  5.774e-02  linmin: -2.257e-01  cgtest:  9.122e-01  t[s]:   1441.10
LCAOMinimize: Encountered beta<0, resetting CG.
LCAOMinimize: 	Predicted alpha/alphaT>3.000000, increasing alphaT to 1.732057e-01.
LCAOMinimize: 	Predicted alpha/alphaT>3.000000, increasing alphaT to 5.196171e-01.
	FillingsUpdate:  mu: +0.625401125  nElectrons: 380.000000  magneticMoment: [ Abs: 0.00168  Tot: -0.00007 ]
LCAOMinimize: Iter:  27  F: -4031.9308219824711159  |grad|_K:  1.196e-03  alpha:  2.110e-02  linmin: -2.298e-01  cgtest:  9.700e-01  t[s]:   1514.15
LCAOMinimize: Encountered beta<0, resetting CG.
LCAOMinimize: 	Predicted alpha/alphaT>3.000000, increasing alphaT to 6.328503e-02.
LCAOMinimize: 	Predicted alpha/alphaT>3.000000, increasing alphaT to 1.898551e-01.
LCAOMinimize: 	Predicted alpha/alphaT>3.000000, increasing alphaT to 5.695652e-01.
LCAOMinimize: 	Step increased F by 9.853442e+01, reducing alpha to 6.576240e-02.
	FillingsUpdate:  mu: +0.570599118  nElectrons: 380.000000  magneticMoment: [ Abs: 0.00187  Tot: -0.00010 ]
LCAOMinimize: Iter:  28  F: -4032.5034610935895216  |grad|_K:  1.066e-03  alpha:  6.576e-02  linmin: -2.361e-01  cgtest:  8.963e-01  t[s]:   1622.87
LCAOMinimize: Encountered beta<0, resetting CG.
LCAOMinimize: 	Predicted alpha/alphaT>3.000000, increasing alphaT to 1.972872e-01.
LCAOMinimize: 	Step increased F by 4.087853e+01, reducing alpha to 4.306458e-02.
	FillingsUpdate:  mu: +0.531741534  nElectrons: 380.000000  magneticMoment: [ Abs: 0.00197  Tot: -0.00009 ]
LCAOMinimize: Iter:  29  F: -4032.8016816643789753  |grad|_K:  9.873e-04  alpha:  4.306e-02  linmin: -2.386e-01  cgtest:  9.353e-01  t[s]:   1718.71
LCAOMinimize: Encountered beta<0, resetting CG.
LCAOMinimize: 	Predicted alpha/alphaT>3.000000, increasing alphaT to 1.291937e-01.
LCAOMinimize: 	Predicted alpha/alphaT>3.000000, increasing alphaT to 3.875812e-01.
	FillingsUpdate:  mu: +0.520260940  nElectrons: 380.000000  magneticMoment: [ Abs: 0.00200  Tot: -0.00009 ]
LCAOMinimize: Iter:  30  F: -4032.8845959302111623  |grad|_K:  9.634e-04  alpha:  1.390e-02  linmin: -2.418e-01  cgtest:  9.797e-01  t[s]:   1791.66
LCAOMinimize: Encountered beta<0, resetting CG.
LCAOMinimize: None of the convergence criteria satisfied after 30 iterations.
----- createFluidSolver() ----- (Fluid-side solver setup)
   Initializing fluid molecule 'H2O'
     Initializing site 'O'
       Electron density: proportional to exp(-r/0.36935)*erfc((r-0.51523)/0.36823) with norm 6.826
       Charge density: gaussian nuclear width 0.478731 with net site charge 0.826
       Polarizability: cuspless exponential with width 0.32 and norm 3.73
       Hard sphere radius: 2.57003 bohrs
       Positions in reference frame:
         [ +0.000000 +0.000000 +0.000000 ]
     Initializing site 'H'
       Electron density: proportional to exp(-r/0.34641)*erfc((r-0)/0.390882) with norm 0.587
       Charge density: gaussian nuclear width 0.377945 with net site charge -0.413
       Polarizability: cuspless exponential with width 0.39 and norm 3.3
       Positions in reference frame:
         [ +0.000000 -1.441945 +1.122523 ]
         [ +0.000000 +1.441945 +1.122523 ]
     Net charge: 0   dipole magnitude: 0.927204
     Initializing spherical shell mfKernel with radius 2.61727 Bohr
     deltaS corrections:
       site 'O': -7.54299
       site 'H': -6.83917
   Initializing fluid molecule 'Na+'
     Initializing site 'Na'
       Electron density: proportional to exp(-r/0.19682)*erfc((r-0.71491)/0.41314) with norm 8.1383
       Charge density: gaussian nuclear width 0.365347 with net site charge -1
       Hard sphere radius: 1.86327 bohrs
       Positions in reference frame:
         [ +0.000000 +0.000000 +0.000000 ]
     Net charge: -1   dipole magnitude: 0
     Initializing gaussian mfKernel with width: 1.55004 Bohr
     deltaS corrections:
       site 'Na': -22.3555
   Initializing fluid molecule 'F-'
     Initializing site 'F'
       Electron density: proportional to exp(-r/0.38886)*erfc((r-0)/0.438782) with norm 8
       Charge density: gaussian nuclear width 0.374796 with net site charge 1
       Hard sphere radius: 2.39995 bohrs
       Positions in reference frame:
         [ +0.000000 +0.000000 +0.000000 ]
     Net charge: 1   dipole magnitude: 0
     Initializing gaussian mfKernel with width: 1.59012 Bohr
     deltaS corrections:
       site 'F': -9.04335

Correction to mu due to finite nuclear width = -0.0820568
   Cavity determined by nc: 0.00142 and sigma: 0.707107
   Nonlocal vdW cavity from gaussian model electron density with norm = 8 and sigma = 0.993594 bohr
   Charge asymmetry in cavity with sensitivity pCavity = 36.5 e-bohr/Eh
   Electrostatic cavity expanded by eta = 1.46 bohrs
   Weighted density cavitation model constrained by Nbulk: 0.0049383 bohr^-3, Pvap: 3.14029 kPa, Rvdw: 2.61727 bohr and sigmaBulk: 4.62e-05 Eh/bohr^2 at T: 298 K.
   Weighted density dispersion model using vdW pair potentials with single solvent site with sqrtC6eff: 0.77 SI.


---- Citations for features of the code used in this run ----

   Software package:
      R. Sundararaman, K. Letchworth-Weaver, K.A. Schwarz, D. Gunceler, Y. Ozhabes and T.A. Arias, 'JDFTx: software for joint density-functional theory', SoftwareX 6, 278 (2017)

   gga-PBE exchange-correlation functional:
      J.P. Perdew, K. Burke and M. Ernzerhof, Phys. Rev. Lett. 77, 3865 (1996)

   Pseudopotentials:
      KF Garrity, JW Bennett, KM Rabe and D Vanderbilt, Comput. Mater. Sci. 81, 446 (2014)

   DFT-D3 dispersion correction:
      S. Grimme, J. Antony, S. Ehrlich and H. Krieg, J. Chem. Phys. 132, 154104 (2010)

   DFT-D2 dispersion correction:
      S. Grimme, J. Comput. Chem. 27, 1787 (2006)

   Charge-asymmetric nonlocally-determined local-electric (CANDLE) solvation model:
      R. Sundararaman and W.A. Goddard III, J. Chem. Phys. 142, 064107 (2015)

   Total energy minimization with Auxiliary Hamiltonian:
      C. Freysoldt, S. Boeck, and J. Neugebauer, Phys. Rev. B 79, 241103(R) (2009)

   Linear-tetrahedron sampling for density of states:
      G. Lehmann and M. Taut, Phys. status solidi (b) 54, 469 (1972)

This list may not be complete. Please suggest additional citations or
report any other bugs at https://github.com/shankar1729/jdftx/issues

Initialization completed successfully at t[s]:   1803.97


Computing DFT-D3 correction:
# coordination-number Cu 6.874 9.122 9.152 9.158 9.158 9.157 9.131 8.370 6.101 4.602 8.370 9.131 9.157 9.158 9.158 9.152 9.122 6.874 4.602 6.101
# diagonal-C6 Cu 175.00 175.00 175.00 175.00 175.00 175.00 175.00 175.00 175.00 175.00 175.00 175.00 175.00 175.00 175.00 175.00 175.00 175.00 175.00 175.00
EvdW_6 =   -0.118628
EvdW_8 =   -0.178658
Fluid solver invoked on fresh (random / LCAO) wavefunctions
Running a vacuum solve first:

-------- Initial electronic minimization -----------
	FillingsUpdate:  mu: +0.524527085  nElectrons: 380.000000  magneticMoment: [ Abs: 0.00200  Tot: -0.00009 ]
ElecMinimize: Iter:   0  F: -4032.884595930203886  |grad|_K:  2.875e-04  alpha:  1.000e+00
	FillingsUpdate:  mu: +0.189393291  nElectrons: 380.000000  magneticMoment: [ Abs: 0.00208  Tot: -0.00003 ]
	SubspaceRotationAdjust: set factor to 0.798
ElecMinimize: Iter:   1  F: -4035.575923028780380  |grad|_K:  9.253e-05  alpha:  9.070e-02  linmin:  1.043e-03  t[s]:   1922.85
	FillingsUpdate:  mu: +0.213926532  nElectrons: 380.000000  magneticMoment: [ Abs: 0.00173  Tot: +0.00002 ]
	SubspaceRotationAdjust: set factor to 0.715
ElecMinimize: Iter:   2  F: -4036.126675279121173  |grad|_K:  9.805e-05  alpha:  1.784e-01  linmin: -3.958e-05  t[s]:   1998.29
	FillingsUpdate:  mu: +0.293080893  nElectrons: 380.000000  magneticMoment: [ Abs: 0.00147  Tot: +0.00007 ]
	SubspaceRotationAdjust: set factor to 0.413
ElecMinimize: Iter:   3  F: -4036.545515827264353  |grad|_K:  7.297e-05  alpha:  1.018e-01  linmin: -1.133e-05  t[s]:   2073.69
	FillingsUpdate:  mu: +0.068839071  nElectrons: 380.000000  magneticMoment: [ Abs: 0.00122  Tot: +0.00010 ]
	SubspaceRotationAdjust: set factor to 0.337
ElecMinimize: Iter:   4  F: -4036.809565687958639  |grad|_K:  3.707e-05  alpha:  1.209e-01  linmin:  1.030e-05  t[s]:   2148.88
	FillingsUpdate:  mu: +0.074379578  nElectrons: 380.000000  magneticMoment: [ Abs: 0.00105  Tot: +0.00012 ]
	SubspaceRotationAdjust: set factor to 0.408
ElecMinimize: Iter:   5  F: -4036.897571799209800  |grad|_K:  2.761e-05  alpha:  1.602e-01  linmin: -1.747e-06  t[s]:   2223.91
	FillingsUpdate:  mu: +0.104396328  nElectrons: 380.000000  magneticMoment: [ Abs: 0.00086  Tot: +0.00011 ]
	SubspaceRotationAdjust: set factor to 0.375
ElecMinimize: Iter:   6  F: -4036.955833399797029  |grad|_K:  2.254e-05  alpha:  1.877e-01  linmin: -6.173e-06  t[s]:   2299.38
	FillingsUpdate:  mu: +0.104038371  nElectrons: 380.000000  magneticMoment: [ Abs: 0.00074  Tot: +0.00011 ]
	SubspaceRotationAdjust: set factor to 0.253
ElecMinimize: Iter:   7  F: -4036.977944603517244  |grad|_K:  1.913e-05  alpha:  1.099e-01  linmin:  7.522e-06  t[s]:   2374.70
	FillingsUpdate:  mu: +0.097470074  nElectrons: 380.000000  magneticMoment: [ Abs: 0.00063  Tot: +0.00010 ]
	SubspaceRotationAdjust: set factor to 0.197
ElecMinimize: Iter:   8  F: -4036.993599771627942  |grad|_K:  1.273e-05  alpha:  1.067e-01  linmin: -1.155e-05  t[s]:   2450.12
	FillingsUpdate:  mu: +0.102676271  nElectrons: 380.000000  magneticMoment: [ Abs: 0.00053  Tot: +0.00009 ]
	SubspaceRotationAdjust: set factor to 0.26
ElecMinimize: Iter:   9  F: -4037.003543376873040  |grad|_K:  9.115e-06  alpha:  1.483e-01  linmin:  2.088e-08  t[s]:   2525.64
	FillingsUpdate:  mu: +0.102372667  nElectrons: 380.000000  magneticMoment: [ Abs: 0.00046  Tot: +0.00008 ]
	SubspaceRotationAdjust: set factor to 0.225
ElecMinimize: Iter:  10  F: -4037.009341031844997  |grad|_K:  7.151e-06  alpha:  1.719e-01  linmin: -5.714e-06  t[s]:   2601.25
	FillingsUpdate:  mu: +0.104453223  nElectrons: 380.000000  magneticMoment: [ Abs: 0.00041  Tot: +0.00007 ]
	SubspaceRotationAdjust: set factor to 0.211
ElecMinimize: Iter:  11  F: -4037.012682198745097  |grad|_K:  5.489e-06  alpha:  1.600e-01  linmin: -1.889e-06  t[s]:   2676.85
	FillingsUpdate:  mu: +0.108173421  nElectrons: 380.000000  magneticMoment: [ Abs: 0.00036  Tot: +0.00006 ]
	SubspaceRotationAdjust: set factor to 0.239
ElecMinimize: Iter:  12  F: -4037.014931186143258  |grad|_K:  4.486e-06  alpha:  1.835e-01  linmin: -6.534e-08  t[s]:   2752.16
	FillingsUpdate:  mu: +0.105490727  nElectrons: 380.000000  magneticMoment: [ Abs: 0.00032  Tot: +0.00006 ]
	SubspaceRotationAdjust: set factor to 0.253
ElecMinimize: Iter:  13  F: -4037.016453302370792  |grad|_K:  3.586e-06  alpha:  1.867e-01  linmin: -5.165e-07  t[s]:   2827.83
	FillingsUpdate:  mu: +0.104232748  nElectrons: 380.000000  magneticMoment: [ Abs: 0.00029  Tot: +0.00005 ]
	SubspaceRotationAdjust: set factor to 0.275
ElecMinimize: Iter:  14  F: -4037.017337174703243  |grad|_K:  3.034e-06  alpha:  1.695e-01  linmin: -2.326e-07  t[s]:   2903.71
	FillingsUpdate:  mu: +0.104433794  nElectrons: 380.000000  magneticMoment: [ Abs: 0.00026  Tot: +0.00004 ]
	SubspaceRotationAdjust: set factor to 0.31
ElecMinimize: Iter:  15  F: -4037.018067425782647  |grad|_K:  2.626e-06  alpha:  1.957e-01  linmin: -1.460e-08  t[s]:   2979.47
	FillingsUpdate:  mu: +0.103686490  nElectrons: 380.000000  magneticMoment: [ Abs: 0.00023  Tot: +0.00003 ]
	SubspaceRotationAdjust: set factor to 0.356
ElecMinimize: Iter:  16  F: -4037.018559722635928  |grad|_K:  2.052e-06  alpha:  1.762e-01  linmin: -1.886e-08  t[s]:   3055.14
	FillingsUpdate:  mu: +0.104762682  nElectrons: 380.000000  magneticMoment: [ Abs: 0.00021  Tot: +0.00003 ]
	SubspaceRotationAdjust: set factor to 0.401
ElecMinimize: Iter:  17  F: -4037.018882133772877  |grad|_K:  1.855e-06  alpha:  1.890e-01  linmin:  1.204e-07  t[s]:   3130.89
	FillingsUpdate:  mu: +0.104983042  nElectrons: 380.000000  magneticMoment: [ Abs: 0.00017  Tot: +0.00002 ]
	SubspaceRotationAdjust: set factor to 0.459
ElecMinimize: Iter:  18  F: -4037.019156681655659  |grad|_K:  1.589e-06  alpha:  1.969e-01  linmin:  1.093e-07  t[s]:   3206.85
	FillingsUpdate:  mu: +0.103742832  nElectrons: 380.000000  magneticMoment: [ Abs: 0.00015  Tot: +0.00001 ]
	SubspaceRotationAdjust: set factor to 0.493
ElecMinimize: Iter:  19  F: -4037.019314402032251  |grad|_K:  1.262e-06  alpha:  1.543e-01  linmin:  3.200e-08  t[s]:   3282.71
	FillingsUpdate:  mu: +0.103813898  nElectrons: 380.000000  magneticMoment: [ Abs: 0.00012  Tot: +0.00001 ]
	SubspaceRotationAdjust: set factor to 0.403
ElecMinimize: Iter:  20  F: -4037.019413447148054  |grad|_K:  1.265e-06  alpha:  1.534e-01  linmin:  1.720e-07  t[s]:   3358.38
	FillingsUpdate:  mu: +0.103864515  nElectrons: 380.000000  magneticMoment: [ Abs: 0.00010  Tot: +0.00001 ]
	SubspaceRotationAdjust: set factor to 0.261
ElecMinimize: Iter:  21  F: -4037.019480501559428  |grad|_K:  9.703e-07  alpha:  1.034e-01  linmin: -1.873e-09  t[s]:   3433.98
	FillingsUpdate:  mu: +0.103420597  nElectrons: 380.000000  magneticMoment: [ Abs: 0.00008  Tot: +0.00000 ]
	SubspaceRotationAdjust: set factor to 0.306
ElecMinimize: Iter:  22  F: -4037.019528328064098  |grad|_K:  6.382e-07  alpha:  1.254e-01  linmin:  2.656e-07  t[s]:   3509.97
	FillingsUpdate:  mu: +0.103202153  nElectrons: 380.000000  magneticMoment: [ Abs: 0.00007  Tot: +0.00000 ]
	SubspaceRotationAdjust: set factor to 0.306
ElecMinimize: Iter:  23  F: -4037.019553668408662  |grad|_K:  4.914e-07  alpha:  1.537e-01  linmin:  2.668e-07  t[s]:   3585.69
	FillingsUpdate:  mu: +0.103310614  nElectrons: 380.000000  magneticMoment: [ Abs: 0.00006  Tot: +0.00000 ]
	SubspaceRotationAdjust: set factor to 0.267
ElecMinimize: Iter:  24  F: -4037.019568903146137  |grad|_K:  4.094e-07  alpha:  1.558e-01  linmin:  6.484e-08  t[s]:   3661.28
	FillingsUpdate:  mu: +0.103344747  nElectrons: 380.000000  magneticMoment: [ Abs: 0.00004  Tot: +0.00000 ]
	SubspaceRotationAdjust: set factor to 0.275
ElecMinimize: Iter:  25  F: -4037.019579239851282  |grad|_K:  3.108e-07  alpha:  1.522e-01  linmin: -4.242e-08  t[s]:   3736.63
	FillingsUpdate:  mu: +0.103333687  nElectrons: 380.000000  magneticMoment: [ Abs: 0.00004  Tot: +0.00000 ]
	SubspaceRotationAdjust: set factor to 0.295
ElecMinimize: Iter:  26  F: -4037.019585086372444  |grad|_K:  2.317e-07  alpha:  1.494e-01  linmin: -4.040e-08  t[s]:   3812.32
	FillingsUpdate:  mu: +0.103338089  nElectrons: 380.000000  magneticMoment: [ Abs: 0.00003  Tot: -0.00000 ]
	SubspaceRotationAdjust: set factor to 0.31
ElecMinimize: Iter:  27  F: -4037.019588483734879  |grad|_K:  1.936e-07  alpha:  1.562e-01  linmin: -8.779e-08  t[s]:   3887.74
	FillingsUpdate:  mu: +0.103277871  nElectrons: 380.000000  magneticMoment: [ Abs: 0.00002  Tot: -0.00000 ]
	SubspaceRotationAdjust: set factor to 0.327
ElecMinimize: Iter:  28  F: -4037.019591072815274  |grad|_K:  1.652e-07  alpha:  1.704e-01  linmin: -1.206e-07  t[s]:   3962.90
	FillingsUpdate:  mu: +0.103273161  nElectrons: 380.000000  magneticMoment: [ Abs: 0.00002  Tot: -0.00000 ]
	SubspaceRotationAdjust: set factor to 0.359
ElecMinimize: Iter:  29  F: -4037.019592767979702  |grad|_K:  1.310e-07  alpha:  1.534e-01  linmin:  8.649e-08  t[s]:   4038.55
	FillingsUpdate:  mu: +0.103359294  nElectrons: 380.000000  magneticMoment: [ Abs: 0.00002  Tot: -0.00000 ]
	SubspaceRotationAdjust: set factor to 0.396
ElecMinimize: Iter:  30  F: -4037.019593895904109  |grad|_K:  1.099e-07  alpha:  1.623e-01  linmin:  1.004e-07  t[s]:   4113.62
	FillingsUpdate:  mu: +0.103379408  nElectrons: 380.000000  magneticMoment: [ Abs: 0.00001  Tot: -0.00000 ]
	SubspaceRotationAdjust: set factor to 0.467
ElecMinimize: Iter:  31  F: -4037.019594751425302  |grad|_K:  9.648e-08  alpha:  1.750e-01  linmin:  1.598e-07  t[s]:   4189.13
	FillingsUpdate:  mu: +0.103331780  nElectrons: 380.000000  magneticMoment: [ Abs: 0.00001  Tot: -0.00000 ]
	SubspaceRotationAdjust: set factor to 0.478
ElecMinimize: Iter:  32  F: -4037.019595316141931  |grad|_K:  8.554e-08  alpha:  1.499e-01  linmin:  6.706e-08  t[s]:   4264.40
	FillingsUpdate:  mu: +0.103311697  nElectrons: 380.000000  magneticMoment: [ Abs: 0.00001  Tot: -0.00000 ]
	SubspaceRotationAdjust: set factor to 0.376
ElecMinimize: Iter:  33  F: -4037.019595672681135  |grad|_K:  7.771e-08  alpha:  1.202e-01  linmin: -6.705e-09  t[s]:   4340.03
	FillingsUpdate:  mu: +0.103317355  nElectrons: 380.000000  magneticMoment: [ Abs: 0.00001  Tot: -0.00000 ]
	SubspaceRotationAdjust: set factor to 0.337
ElecMinimize: Iter:  34  F: -4037.019595983497766  |grad|_K:  6.328e-08  alpha:  1.271e-01  linmin:  1.278e-07  t[s]:   4415.85
	FillingsUpdate:  mu: +0.103324229  nElectrons: 380.000000  magneticMoment: [ Abs: 0.00001  Tot: -0.00000 ]
	SubspaceRotationAdjust: set factor to 0.391
ElecMinimize: Iter:  35  F: -4037.019596226894919  |grad|_K:  4.948e-08  alpha:  1.503e-01  linmin:  8.027e-08  t[s]:   4491.25
	FillingsUpdate:  mu: +0.103337637  nElectrons: 380.000000  magneticMoment: [ Abs: 0.00001  Tot: -0.00000 ]
	SubspaceRotationAdjust: set factor to 0.405
ElecMinimize: Iter:  36  F: -4037.019596382831423  |grad|_K:  4.235e-08  alpha:  1.568e-01  linmin: -4.290e-08  t[s]:   4566.65
	FillingsUpdate:  mu: +0.103339843  nElectrons: 380.000000  magneticMoment: [ Abs: 0.00000  Tot: -0.00000 ]
	SubspaceRotationAdjust: set factor to 0.377
ElecMinimize: Iter:  37  F: -4037.019596493366862  |grad|_K:  3.811e-08  alpha:  1.518e-01  linmin: -3.977e-07  t[s]:   4641.98
	FillingsUpdate:  mu: +0.103329368  nElectrons: 380.000000  magneticMoment: [ Abs: 0.00000  Tot: -0.00000 ]
	SubspaceRotationAdjust: set factor to 0.328
ElecMinimize: Iter:  38  F: -4037.019596567372446  |grad|_K:  2.922e-08  alpha:  1.250e-01  linmin: -6.409e-08  t[s]:   4717.49
	FillingsUpdate:  mu: +0.103329771  nElectrons: 380.000000  magneticMoment: [ Abs: 0.00000  Tot: -0.00000 ]
	SubspaceRotationAdjust: set factor to 0.332
ElecMinimize: Iter:  39  F: -4037.019596616079525  |grad|_K:  2.304e-08  alpha:  1.404e-01  linmin:  1.459e-07  t[s]:   4792.82
ElecMinimize: Converged (|Delta F|<1.000000e-07 for 2 iters).
Setting wave functions to eigenvectors of Hamiltonian
Converging empty states (this may take a while): |deigs|: 1.625e-02
Vacuum energy after initial minimize, F = -4037.019596616079525


-------- Electronic minimization -----------
	Linear fluid (dielectric constant: 78.4, screening length: 8.12261 Bohr) occupying 0.525042 of unit cell:	Completed after 20 iterations at t[s]:   5111.20
	FillingsUpdate:  mu: -0.152109655  nElectrons: 380.000000  magneticMoment: [ Abs: 0.00000  Tot: -0.00000 ]
ElecMinimize: Iter:   0  F: -4037.019993706976038  |grad|_K:  6.191e-07  alpha:  1.000e+00
	Linear fluid (dielectric constant: 78.4, screening length: 8.12261 Bohr) occupying 0.526351 of unit cell:	Completed after 19 iterations at t[s]:   5173.96
	Linear fluid (dielectric constant: 78.4, screening length: 8.12261 Bohr) occupying 0.525961 of unit cell:	Completed after 17 iterations at t[s]:   5195.52
	FillingsUpdate:  mu: -0.145978990  nElectrons: 380.000000  magneticMoment: [ Abs: 0.00000  Tot: -0.00000 ]
	SubspaceRotationAdjust: set factor to 0.337
ElecMinimize: Iter:   1  F: -4037.020100998346152  |grad|_K:  8.956e-07  alpha:  6.958e-01  linmin: -8.297e-08  t[s]:   5226.54
	Linear fluid (dielectric constant: 78.4, screening length: 8.12261 Bohr) occupying 0.527968 of unit cell:	Completed after 19 iterations at t[s]:   5254.40
	Linear fluid (dielectric constant: 78.4, screening length: 8.12261 Bohr) occupying 0.526546 of unit cell:	Completed after 19 iterations at t[s]:   5276.06
	FillingsUpdate:  mu: -0.145805516  nElectrons: 380.000000  magneticMoment: [ Abs: 0.00000  Tot: -0.00000 ]
	SubspaceRotationAdjust: set factor to 0.417
ElecMinimize: Iter:   2  F: -4037.020163696414329  |grad|_K:  7.665e-07  alpha:  1.944e-01  linmin:  3.129e-07  t[s]:   5307.06
	Linear fluid (dielectric constant: 78.4, screening length: 8.12261 Bohr) occupying 0.526995 of unit cell:	Completed after 13 iterations at t[s]:   5334.37
	Linear fluid (dielectric constant: 78.4, screening length: 8.12261 Bohr) occupying 0.526899 of unit cell:	Completed after 10 iterations at t[s]:   5355.29
	FillingsUpdate:  mu: -0.147256170  nElectrons: 380.000000  magneticMoment: [ Abs: 0.00000  Tot: -0.00000 ]
	SubspaceRotationAdjust: set factor to 0.424
ElecMinimize: Iter:   3  F: -4037.020199699020395  |grad|_K:  5.289e-07  alpha:  1.524e-01  linmin:  1.770e-09  t[s]:   5386.31
	Linear fluid (dielectric constant: 78.4, screening length: 8.12261 Bohr) occupying 0.527106 of unit cell:	Completed after 11 iterations at t[s]:   5413.47
	Linear fluid (dielectric constant: 78.4, screening length: 8.12261 Bohr) occupying 0.527282 of unit cell:	Completed after 12 iterations at t[s]:   5434.63
	FillingsUpdate:  mu: -0.146636229  nElectrons: 380.000000  magneticMoment: [ Abs: 0.00000  Tot: -0.00000 ]
	SubspaceRotationAdjust: set factor to 0.429
ElecMinimize: Iter:   4  F: -4037.020231994674305  |grad|_K:  4.323e-07  alpha:  2.843e-01  linmin: -1.767e-07  t[s]:   5465.64
	Linear fluid (dielectric constant: 78.4, screening length: 8.12261 Bohr) occupying 0.527554 of unit cell:	Completed after 11 iterations at t[s]:   5492.76
	Linear fluid (dielectric constant: 78.4, screening length: 8.12261 Bohr) occupying 0.527429 of unit cell:	Completed after 10 iterations at t[s]:   5513.67
	FillingsUpdate:  mu: -0.146463189  nElectrons: 380.000000  magneticMoment: [ Abs: 0.00000  Tot: -0.00000 ]
	SubspaceRotationAdjust: set factor to 0.487
ElecMinimize: Iter:   5  F: -4037.020243594076874  |grad|_K:  2.945e-07  alpha:  1.528e-01  linmin:  1.265e-08  t[s]:   5544.51
	Linear fluid (dielectric constant: 78.4, screening length: 8.12261 Bohr) occupying 0.527500 of unit cell:	Completed after 10 iterations at t[s]:   5571.74
	Linear fluid (dielectric constant: 78.4, screening length: 8.12261 Bohr) occupying 0.527514 of unit cell:	Completed after 2 iterations at t[s]:   5591.93
	FillingsUpdate:  mu: -0.146785792  nElectrons: 380.000000  magneticMoment: [ Abs: 0.00000  Tot: -0.00000 ]
	SubspaceRotationAdjust: set factor to 0.549
ElecMinimize: Iter:   6  F: -4037.020249966204574  |grad|_K:  2.345e-07  alpha:  1.814e-01  linmin: -9.548e-08  t[s]:   5622.80
	Linear fluid (dielectric constant: 78.4, screening length: 8.12261 Bohr) occupying 0.527573 of unit cell:	Completed after 7 iterations at t[s]:   5649.65
	Linear fluid (dielectric constant: 78.4, screening length: 8.12261 Bohr) occupying 0.527576 of unit cell:	Completed after 2 iterations at t[s]:   5669.77
	FillingsUpdate:  mu: -0.146768154  nElectrons: 380.000000  magneticMoment: [ Abs: 0.00000  Tot: -0.00000 ]
	SubspaceRotationAdjust: set factor to 0.6
ElecMinimize: Iter:   7  F: -4037.020254197316262  |grad|_K:  2.062e-07  alpha:  1.896e-01  linmin: -4.065e-08  t[s]:   5700.74
	Linear fluid (dielectric constant: 78.4, screening length: 8.12261 Bohr) occupying 0.527626 of unit cell:	Completed after 10 iterations at t[s]:   5727.69
	Linear fluid (dielectric constant: 78.4, screening length: 8.12261 Bohr) occupying 0.527618 of unit cell:	Completed after 2 iterations at t[s]:   5747.86
	FillingsUpdate:  mu: -0.146444149  nElectrons: 380.000000  magneticMoment: [ Abs: 0.00000  Tot: -0.00000 ]
	SubspaceRotationAdjust: set factor to 0.609
ElecMinimize: Iter:   8  F: -4037.020256921057808  |grad|_K:  1.312e-07  alpha:  1.580e-01  linmin:  1.426e-07  t[s]:   5778.93
	Linear fluid (dielectric constant: 78.4, screening length: 8.12261 Bohr) occupying 0.527627 of unit cell:	Completed after 9 iterations at t[s]:   5805.94
	Linear fluid (dielectric constant: 78.4, screening length: 8.12261 Bohr) occupying 0.527626 of unit cell:	Completed after 2 iterations at t[s]:   5826.13
	FillingsUpdate:  mu: -0.146616731  nElectrons: 380.000000  magneticMoment: [ Abs: 0.00000  Tot: -0.00000 ]
	SubspaceRotationAdjust: set factor to 0.549
ElecMinimize: Iter:   9  F: -4037.020257962201867  |grad|_K:  1.063e-07  alpha:  1.498e-01  linmin: -6.432e-07  t[s]:   5857.50
	Linear fluid (dielectric constant: 78.4, screening length: 8.12261 Bohr) occupying 0.527628 of unit cell:	Completed after 7 iterations at t[s]:   5884.37
	Linear fluid (dielectric constant: 78.4, screening length: 8.12261 Bohr) occupying 0.527629 of unit cell:	Completed after 2 iterations at t[s]:   5904.51
	FillingsUpdate:  mu: -0.146722998  nElectrons: 380.000000  magneticMoment: [ Abs: 0.00000  Tot: -0.00000 ]
	SubspaceRotationAdjust: set factor to 0.559
ElecMinimize: Iter:  10  F: -4037.020258948123683  |grad|_K:  8.840e-08  alpha:  2.126e-01  linmin: -4.494e-07  t[s]:   5935.89
	Linear fluid (dielectric constant: 78.4, screening length: 8.12261 Bohr) occupying 0.527628 of unit cell:	Completed after 7 iterations at t[s]:   5962.75
	Linear fluid (dielectric constant: 78.4, screening length: 8.12261 Bohr) occupying 0.527628 of unit cell:	Completed after 2 iterations at t[s]:   5982.99
	FillingsUpdate:  mu: -0.146759085  nElectrons: 380.000000  magneticMoment: [ Abs: 0.00000  Tot: -0.00000 ]
	SubspaceRotationAdjust: set factor to 0.635
ElecMinimize: Iter:  11  F: -4037.020259326271571  |grad|_K:  5.059e-08  alpha:  1.191e-01  linmin: -1.289e-09  t[s]:   6014.33
	Linear fluid (dielectric constant: 78.4, screening length: 8.12261 Bohr) occupying 0.527628 of unit cell:	Completed after 4 iterations at t[s]:   6040.98
	Linear fluid (dielectric constant: 78.4, screening length: 8.12261 Bohr) occupying 0.527628 of unit cell:	Completed after 4 iterations at t[s]:   6061.42
	FillingsUpdate:  mu: -0.146676541  nElectrons: 380.000000  magneticMoment: [ Abs: 0.00000  Tot: -0.00000 ]
	SubspaceRotationAdjust: set factor to 0.657
ElecMinimize: Iter:  12  F: -4037.020259526379050  |grad|_K:  4.565e-08  alpha:  1.925e-01  linmin: -4.853e-07  t[s]:   6092.70
	Linear fluid (dielectric constant: 78.4, screening length: 8.12261 Bohr) occupying 0.527624 of unit cell:	Completed after 2 iterations at t[s]:   6119.10
	Linear fluid (dielectric constant: 78.4, screening length: 8.12261 Bohr) occupying 0.527624 of unit cell:	Completed after 1 iterations at t[s]:   6139.19
	FillingsUpdate:  mu: -0.146652040  nElectrons: 380.000000  magneticMoment: [ Abs: 0.00000  Tot: -0.00000 ]
	SubspaceRotationAdjust: set factor to 0.716
ElecMinimize: Iter:  13  F: -4037.020259659520889  |grad|_K:  3.249e-08  alpha:  1.574e-01  linmin:  4.515e-06  t[s]:   6170.36
	Linear fluid (dielectric constant: 78.4, screening length: 8.12261 Bohr) occupying 0.527619 of unit cell:	Completed after 2 iterations at t[s]:   6196.81
	Linear fluid (dielectric constant: 78.4, screening length: 8.12261 Bohr) occupying 0.527620 of unit cell:	Completed after 0 iterations at t[s]:   6216.72
	FillingsUpdate:  mu: -0.146680311  nElectrons: 380.000000  magneticMoment: [ Abs: 0.00000  Tot: -0.00000 ]
	SubspaceRotationAdjust: set factor to 0.714
ElecMinimize: Iter:  14  F: -4037.020259717015961  |grad|_K:  2.403e-08  alpha:  1.359e-01  linmin:  1.178e-05  t[s]:   6247.75
	Linear fluid (dielectric constant: 78.4, screening length: 8.12261 Bohr) occupying 0.527616 of unit cell:	Completed after 2 iterations at t[s]:   6274.14
	Linear fluid (dielectric constant: 78.4, screening length: 8.12261 Bohr) occupying 0.527616 of unit cell:	Completed after 0 iterations at t[s]:   6294.20
	FillingsUpdate:  mu: -0.146685091  nElectrons: 380.000000  magneticMoment: [ Abs: 0.00000  Tot: -0.00000 ]
	SubspaceRotationAdjust: set factor to 0.752
ElecMinimize: Iter:  15  F: -4037.020259746863758  |grad|_K:  1.748e-08  alpha:  1.304e-01  linmin: -8.660e-06  t[s]:   6325.56
ElecMinimize: Converged (|Delta F|<1.000000e-07 for 2 iters).
Setting wave functions to eigenvectors of Hamiltonian
Converging empty states (this may take a while): |deigs|: 1.311e-04
Single-point solvation energy estimate, DeltaF = -0.000663130784233

Computing DFT-D3 correction:
# coordination-number Cu 6.874 9.122 9.152 9.158 9.158 9.157 9.131 8.370 6.101 4.602 8.370 9.131 9.157 9.158 9.158 9.152 9.122 6.874 4.602 6.101
# diagonal-C6 Cu 175.00 175.00 175.00 175.00 175.00 175.00 175.00 175.00 175.00 175.00 175.00 175.00 175.00 175.00 175.00 175.00 175.00 175.00 175.00 175.00
EvdW_6 =   -0.118628
EvdW_8 =   -0.178658

# Ionic positions in cartesian coordinates:
ion Cu   0.000000000000000   4.263398000000000  18.652386000000000 1
ion Cu   0.000000000000000   8.526795000000000  16.520644999999998 1
ion Cu   0.000000000000000   2.131699000000000  14.388966999999999 1
ion Cu   0.000000000000000   6.395095999999999  12.257289999999999 1
ion Cu   0.000000000000000  10.658493999999997  10.125548000000000 1
ion Cu   0.000000000000000   4.263398000000000   7.993871000000000 1
ion Cu   0.000000000000000   8.526795000000000   5.862193000000000 1
ion Cu   0.000000000000000   2.131699000000000   3.730452000000000 1
ion Cu   0.000000000000000   6.395095999999999   1.598774000000000 1
ion Cu   0.000000000000000   0.000000000000000  20.784063000000000 1
ion Cu   3.370512000000000   1.065849000000000  17.586514999999999 1
ion Cu   3.370512000000000   5.329246999999999  15.454837999999999 1
ion Cu   3.370512000000000   9.592643999999998  13.323096000000000 1
ion Cu   3.370512000000000   3.197547999999999  11.191419000000000 1
ion Cu   3.370512000000000   7.460945999999999   9.059741000000001 1
ion Cu   3.370512000000000   1.065849000000000   6.928000000000000 1
ion Cu   3.370512000000000   5.329246999999999   4.796322000000000 1
ion Cu   3.370512000000000   9.592643999999998   2.664645000000000 1
ion Cu   3.370512000000000   3.197547999999999   0.532903000000000 1
ion Cu   3.370512000000000   7.460945999999999  19.718192999999999 1

# Forces in Cartesian coordinates:
force Cu   0.000001255767828  -0.000424114745593   0.003656142184811 1
force Cu  -0.000000171150919  -0.001282673772799   0.003048846275333 1
force Cu   0.000000671491854  -0.000172985785199  -0.002412535752735 1
force Cu  -0.000001275656730   0.000464316431826   0.000396278913322 1
force Cu  -0.000000108996550  -0.000562786844821  -0.000318949092372 1
force Cu   0.000000606091596  -0.000041478928797   0.001303909548484 1
force Cu  -0.000000118353665   0.001248896988592  -0.000454447230640 1
force Cu   0.000000764906267  -0.003042608674668  -0.007196060091483 1
force Cu  -0.000001393758222   0.000324475041274   0.000859455228242 1
force Cu  -0.000000437321344  -0.000821973583650  -0.008178257471985 1
force Cu   0.000000568670681   0.003037629413960   0.007223099790126 1
force Cu   0.000001619794742  -0.001244738897638   0.000430875731000 1
force Cu  -0.000001604021722   0.000050624761853  -0.001358868430084 1
force Cu  -0.000001903268345   0.000566708921684   0.000234462769980 1
force Cu   0.000001518982329  -0.000470327838966  -0.000471566074992 1
force Cu   0.000000568989747   0.000166489135428   0.002370355528676 1
force Cu   0.000000923327018   0.001283440263837  -0.003040482802440 1
force Cu  -0.000002337586432   0.000426673825826  -0.003623987742872 1
force Cu  -0.000001093553915   0.000818810319476   0.008232997623202 1
force Cu   0.000000681720920  -0.000318397474142  -0.000808150510825 1

# Energy components:
   A_diel =       -0.0009862370208085
   Eewald =    27544.0716845553179155
       EH =    31240.2208092091968865
     Eloc =   -63579.1627875467602280
      Enl =      732.4772329733771130
     EvdW =       -0.2972859703733427
      Exc =     -388.1139435122567534
 Exc_core =        0.9393602051649315
       KE =      412.8463549900603198
-------------------------------------
     Etot =    -4037.0195613332939502
       TS =        0.0006984135697645
-------------------------------------
        F =    -4037.0202597468637578


Dumping 'jdft.fillings' ... done
Dumping 'jdft.wfns' ... done
Dumping 'jdft.fluidState' ... done
Dumping 'jdft.ionpos' ... done
Dumping 'jdft.lattice' ... done
Dumping 'jdft.eigenvals' ... done
Dumping 'jdft.eigStats' ... 
	eMin: -4.288651 at state 45 ( [ +0.000000 +0.000000 +0.000000 ] spin -1 )
	HOMO: -0.147299 at state 40 ( [ -0.111111 +0.000000 +0.000000 ] spin 1 )
	mu  : -0.146685
	LUMO: -0.146395 at state 39 ( [ -0.222222 -0.200000 +0.000000 ] spin 1 )
	eMax: +0.193686 at state 89 ( [ -0.111111 -0.200000 +0.000000 ] spin -1 )
	HOMO-LUMO gap: +0.000904
	Optical gap  : +0.006877 at state 67 ( [ +0.444444 +0.400000 +0.000000 ] spin -1 )
Dumping 'jdft.Ecomponents' ... done
IonicMinimize: Iter:   0  F: -4037.020259746863758  |grad|_K:  2.341e-03  t[s]:   6538.52

#--- Lowdin population analysis ---
# oxidation-state Cu +0.079 +0.037 +0.072 +0.075 +0.077 +0.072 +0.052 +0.025 +0.107 +0.255 +0.024 +0.052 +0.072 +0.077 +0.076 +0.072 +0.037 +0.079 +0.255 +0.107
# magnetic-moments Cu +0.000 +0.000 -0.000 -0.000 -0.000 +0.000 +0.000 +0.000 -0.000 -0.000 +0.000 -0.000 -0.000 -0.000 -0.000 +0.000 +0.000 -0.000 +0.000 -0.000


Computing DFT-D3 correction:
# coordination-number Cu 6.877 9.119 9.143 9.158 9.162 9.148 9.127 8.368 6.110 4.627 8.368 9.127 9.148 9.162 9.158 9.143 9.119 6.877 4.627 6.110
# diagonal-C6 Cu 175.00 175.00 175.00 175.00 175.00 175.00 175.00 175.00 175.00 175.00 175.00 175.00 175.00 175.00 175.00 175.00 175.00 175.00 175.00 175.00
EvdW_6 =   -0.118627
EvdW_8 =   -0.178642

-------- Electronic minimization -----------
	Linear fluid (dielectric constant: 78.4, screening length: 8.12261 Bohr) occupying 0.527818 of unit cell:	Completed after 11 iterations at t[s]:   6568.62
	FillingsUpdate:  mu: -0.146385553  nElectrons: 380.000000  magneticMoment: [ Abs: 0.00000  Tot: -0.00000 ]
ElecMinimize: Iter:   0  F: -4037.020476057237374  |grad|_K:  7.336e-07  alpha:  1.000e+00
	Linear fluid (dielectric constant: 78.4, screening length: 8.12261 Bohr) occupying 0.527715 of unit cell:	Completed after 19 iterations at t[s]:   6631.56
	Linear fluid (dielectric constant: 78.4, screening length: 8.12261 Bohr) occupying 0.527803 of unit cell:	Completed after 19 iterations at t[s]:   6653.23
	FillingsUpdate:  mu: -0.146854955  nElectrons: 380.000000  magneticMoment: [ Abs: 0.00000  Tot: -0.00000 ]
	SubspaceRotationAdjust: set factor to 0.813
ElecMinimize: Iter:   1  F: -4037.020503457346877  |grad|_K:  6.012e-07  alpha:  1.258e-01  linmin:  4.273e-06  t[s]:   6684.06
	Linear fluid (dielectric constant: 78.4, screening length: 8.12261 Bohr) occupying 0.527792 of unit cell:	Completed after 10 iterations at t[s]:   6711.06
	Linear fluid (dielectric constant: 78.4, screening length: 8.12261 Bohr) occupying 0.527783 of unit cell:	Completed after 9 iterations at t[s]:   6731.93
	FillingsUpdate:  mu: -0.146882738  nElectrons: 380.000000  magneticMoment: [ Abs: 0.00000  Tot: -0.00000 ]
	SubspaceRotationAdjust: set factor to 0.727
ElecMinimize: Iter:   2  F: -4037.020536102399092  |grad|_K:  6.771e-07  alpha:  2.232e-01  linmin:  8.119e-06  t[s]:   6763.74
	Linear fluid (dielectric constant: 78.4, screening length: 8.12261 Bohr) occupying 0.527760 of unit cell:	Completed after 12 iterations at t[s]:   6791.03
	Linear fluid (dielectric constant: 78.4, screening length: 8.12261 Bohr) occupying 0.527772 of unit cell:	Completed after 10 iterations at t[s]:   6812.03
	FillingsUpdate:  mu: -0.146751557  nElectrons: 380.000000  magneticMoment: [ Abs: 0.00000  Tot: -0.00000 ]
	SubspaceRotationAdjust: set factor to 0.58
ElecMinimize: Iter:   3  F: -4037.020555683235216  |grad|_K:  3.847e-07  alpha:  1.056e-01  linmin:  3.044e-07  t[s]:   6843.22
	Linear fluid (dielectric constant: 78.4, screening length: 8.12261 Bohr) occupying 0.527767 of unit cell:	Completed after 7 iterations at t[s]:   6870.06
	Linear fluid (dielectric constant: 78.4, screening length: 8.12261 Bohr) occupying 0.527764 of unit cell:	Completed after 7 iterations at t[s]:   6890.70
	FillingsUpdate:  mu: -0.146770982  nElectrons: 380.000000  magneticMoment: [ Abs: 0.00000  Tot: -0.00000 ]
	SubspaceRotationAdjust: set factor to 0.58
ElecMinimize: Iter:   4  F: -4037.020565927182815  |grad|_K:  2.716e-07  alpha:  1.710e-01  linmin:  6.179e-06  t[s]:   6921.69
	Linear fluid (dielectric constant: 78.4, screening length: 8.12261 Bohr) occupying 0.527763 of unit cell:	Completed after 6 iterations at t[s]:   6948.37
	Linear fluid (dielectric constant: 78.4, screening length: 8.12261 Bohr) occupying 0.527763 of unit cell:	Completed after 2 iterations at t[s]:   6968.55
	FillingsUpdate:  mu: -0.146738754  nElectrons: 380.000000  magneticMoment: [ Abs: 0.00000  Tot: -0.00000 ]
	SubspaceRotationAdjust: set factor to 0.626
ElecMinimize: Iter:   5  F: -4037.020569874552166  |grad|_K:  1.909e-07  alpha:  1.323e-01  linmin:  2.852e-06  t[s]:   6999.80
	Linear fluid (dielectric constant: 78.4, screening length: 8.12261 Bohr) occupying 0.527764 of unit cell:	Completed after 6 iterations at t[s]:   7026.53
	Linear fluid (dielectric constant: 78.4, screening length: 8.12261 Bohr) occupying 0.527766 of unit cell:	Completed after 7 iterations at t[s]:   7047.20
	FillingsUpdate:  mu: -0.146720057  nElectrons: 380.000000  magneticMoment: [ Abs: 0.00000  Tot: -0.00000 ]
	SubspaceRotationAdjust: set factor to 0.62
ElecMinimize: Iter:   6  F: -4037.020573876141043  |grad|_K:  1.431e-07  alpha:  2.721e-01  linmin:  3.462e-05  t[s]:   7078.11
	Linear fluid (dielectric constant: 78.4, screening length: 8.12261 Bohr) occupying 0.527768 of unit cell:	Completed after 9 iterations at t[s]:   7105.30
	Linear fluid (dielectric constant: 78.4, screening length: 8.12261 Bohr) occupying 0.527766 of unit cell:	Completed after 9 iterations at t[s]:   7126.15
	FillingsUpdate:  mu: -0.146685140  nElectrons: 380.000000  magneticMoment: [ Abs: 0.00000  Tot: -0.00000 ]
	SubspaceRotationAdjust: set factor to 0.432
ElecMinimize: Iter:   7  F: -4037.020574676746492  |grad|_K:  6.512e-08  alpha:  9.689e-02  linmin:  2.887e-06  t[s]:   7157.13
	Linear fluid (dielectric constant: 78.4, screening length: 8.12261 Bohr) occupying 0.527766 of unit cell:	Completed after 2 iterations at t[s]:   7183.60
	Linear fluid (dielectric constant: 78.4, screening length: 8.12261 Bohr) occupying 0.527766 of unit cell:	Completed after 6 iterations at t[s]:   7204.18
	FillingsUpdate:  mu: -0.146717261  nElectrons: 380.000000  magneticMoment: [ Abs: 0.00000  Tot: -0.00000 ]
	SubspaceRotationAdjust: set factor to 0.39
ElecMinimize: Iter:   8  F: -4037.020574930493694  |grad|_K:  6.111e-08  alpha:  1.508e-01  linmin:  1.466e-04  t[s]:   7235.13
	Linear fluid (dielectric constant: 78.4, screening length: 8.12261 Bohr) occupying 0.527766 of unit cell:	Completed after 2 iterations at t[s]:   7261.55
	Linear fluid (dielectric constant: 78.4, screening length: 8.12261 Bohr) occupying 0.527766 of unit cell:	Completed after 1 iterations at t[s]:   7281.64
	FillingsUpdate:  mu: -0.146739350  nElectrons: 380.000000  magneticMoment: [ Abs: 0.00000  Tot: -0.00000 ]
	SubspaceRotationAdjust: set factor to 0.46
ElecMinimize: Iter:   9  F: -4037.020575235643264  |grad|_K:  3.225e-08  alpha:  2.049e-01  linmin: -1.217e-05  t[s]:   7312.59
	Linear fluid (dielectric constant: 78.4, screening length: 8.12261 Bohr) occupying 0.527767 of unit cell:	Completed after 6 iterations at t[s]:   7339.29
	Linear fluid (dielectric constant: 78.4, screening length: 8.12261 Bohr) occupying 0.527767 of unit cell:	Completed after 2 iterations at t[s]:   7359.71
	FillingsUpdate:  mu: -0.146741601  nElectrons: 380.000000  magneticMoment: [ Abs: 0.00000  Tot: -0.00000 ]
	SubspaceRotationAdjust: set factor to 0.419
ElecMinimize: Iter:  10  F: -4037.020575298432959  |grad|_K:  2.561e-08  alpha:  1.488e-01  linmin:  2.252e-04  t[s]:   7391.10
	Linear fluid (dielectric constant: 78.4, screening length: 8.12261 Bohr) occupying 0.527768 of unit cell:	Completed after 2 iterations at t[s]:   7417.32
	Linear fluid (dielectric constant: 78.4, screening length: 8.12261 Bohr) occupying 0.527768 of unit cell:	Completed after 0 iterations at t[s]:   7437.16
	FillingsUpdate:  mu: -0.146734196  nElectrons: 380.000000  magneticMoment: [ Abs: 0.00000  Tot: -0.00000 ]
	SubspaceRotationAdjust: set factor to 0.453
ElecMinimize: Iter:  11  F: -4037.020575339623974  |grad|_K:  1.772e-08  alpha:  1.563e-01  linmin: -4.570e-04  t[s]:   7468.05
ElecMinimize: Converged (|Delta F|<1.000000e-07 for 2 iters).
Setting wave functions to eigenvectors of Hamiltonian
Converging empty states (this may take a while): |deigs|: 4.610e-08

Computing DFT-D3 correction:
# coordination-number Cu 6.877 9.119 9.143 9.158 9.162 9.148 9.127 8.368 6.110 4.627 8.368 9.127 9.148 9.162 9.158 9.143 9.119 6.877 4.627 6.110
# diagonal-C6 Cu 175.00 175.00 175.00 175.00 175.00 175.00 175.00 175.00 175.00 175.00 175.00 175.00 175.00 175.00 175.00 175.00 175.00 175.00 175.00 175.00
EvdW_6 =   -0.118627
EvdW_8 =   -0.178642
IonicMinimize: 	Wolfe criterion not satisfied: alpha: 1  (E-E0)/|gdotd0|: -0.959523  gdotd/gdotd0: 0.90783 (taking cubic step)

Computing DFT-D3 correction:
# coordination-number Cu 6.882 9.112 9.125 9.158 9.170 9.131 9.120 8.364 6.128 4.678 8.363 9.119 9.131 9.170 9.158 9.125 9.113 6.882 4.678 6.128
# diagonal-C6 Cu 175.00 175.00 175.00 175.00 175.00 175.00 175.00 175.00 175.00 175.00 175.00 175.00 175.00 175.00 175.00 175.00 175.00 175.00 175.00 175.00
EvdW_6 =   -0.118626
EvdW_8 =   -0.178610

-------- Electronic minimization -----------
	Linear fluid (dielectric constant: 78.4, screening length: 8.12261 Bohr) occupying 0.528210 of unit cell:	Completed after 14 iterations at t[s]:   7576.98
	FillingsUpdate:  mu: -0.146356606  nElectrons: 380.000000  magneticMoment: [ Abs: 0.00000  Tot: -0.00000 ]
ElecMinimize: Iter:   0  F: -4037.020730494061354  |grad|_K:  1.370e-06  alpha:  1.000e+00
	Linear fluid (dielectric constant: 78.4, screening length: 8.12261 Bohr) occupying 0.528142 of unit cell:	Completed after 16 iterations at t[s]:   7639.37
	Linear fluid (dielectric constant: 78.4, screening length: 8.12261 Bohr) occupying 0.528201 of unit cell:	Completed after 17 iterations at t[s]:   7661.12
	FillingsUpdate:  mu: -0.146509668  nElectrons: 380.000000  magneticMoment: [ Abs: 0.00000  Tot: -0.00000 ]
	SubspaceRotationAdjust: set factor to 0.539
ElecMinimize: Iter:   1  F: -4037.020831722481944  |grad|_K:  1.053e-06  alpha:  1.330e-01  linmin: -2.294e-05  t[s]:   7692.93
	Linear fluid (dielectric constant: 78.4, screening length: 8.12261 Bohr) occupying 0.528187 of unit cell:	Completed after 10 iterations at t[s]:   7720.04
	Linear fluid (dielectric constant: 78.4, screening length: 8.12261 Bohr) occupying 0.528168 of unit cell:	Completed after 10 iterations at t[s]:   7740.91
	FillingsUpdate:  mu: -0.147193768  nElectrons: 380.000000  magneticMoment: [ Abs: 0.00000  Tot: -0.00000 ]
	SubspaceRotationAdjust: set factor to 0.627
ElecMinimize: Iter:   2  F: -4037.020967396347260  |grad|_K:  9.500e-07  alpha:  3.015e-01  linmin: -1.488e-06  t[s]:   7771.85
	Linear fluid (dielectric constant: 78.4, screening length: 8.12261 Bohr) occupying 0.528146 of unit cell:	Completed after 13 iterations at t[s]:   7799.25
	Linear fluid (dielectric constant: 78.4, screening length: 8.12261 Bohr) occupying 0.528156 of unit cell:	Completed after 10 iterations at t[s]:   7820.26
	FillingsUpdate:  mu: -0.146490812  nElectrons: 380.000000  magneticMoment: [ Abs: 0.00000  Tot: -0.00000 ]
	SubspaceRotationAdjust: set factor to 0.71
ElecMinimize: Iter:   3  F: -4037.021027407550264  |grad|_K:  7.790e-07  alpha:  1.641e-01  linmin: -2.651e-07  t[s]:   7851.13
	Linear fluid (dielectric constant: 78.4, screening length: 8.12261 Bohr) occupying 0.528136 of unit cell:	Completed after 10 iterations at t[s]:   7878.19
	Linear fluid (dielectric constant: 78.4, screening length: 8.12261 Bohr) occupying 0.528134 of unit cell:	Completed after 2 iterations at t[s]:   7898.38
	FillingsUpdate:  mu: -0.146927155  nElectrons: 380.000000  magneticMoment: [ Abs: 0.00000  Tot: -0.00000 ]
	SubspaceRotationAdjust: set factor to 0.879
ElecMinimize: Iter:   4  F: -4037.021070096956009  |grad|_K:  5.221e-07  alpha:  1.736e-01  linmin: -1.943e-06  t[s]:   7929.54
	Linear fluid (dielectric constant: 78.4, screening length: 8.12261 Bohr) occupying 0.528131 of unit cell:	Completed after 10 iterations at t[s]:   7957.17
	Linear fluid (dielectric constant: 78.4, screening length: 8.12261 Bohr) occupying 0.528129 of unit cell:	Completed after 10 iterations at t[s]:   7978.20
	FillingsUpdate:  mu: -0.146209922  nElectrons: 380.000000  magneticMoment: [ Abs: 0.00000  Tot: -0.00000 ]
	SubspaceRotationAdjust: set factor to 0.905
ElecMinimize: Iter:   5  F: -4037.021103322252202  |grad|_K:  5.778e-07  alpha:  3.009e-01  linmin:  3.185e-06  t[s]:   8009.47
	Linear fluid (dielectric constant: 78.4, screening length: 8.12261 Bohr) occupying 0.528081 of unit cell:	Completed after 17 iterations at t[s]:   8037.15
	Linear fluid (dielectric constant: 78.4, screening length: 8.12261 Bohr) occupying 0.528111 of unit cell:	Completed after 15 iterations at t[s]:   8058.63
	FillingsUpdate:  mu: -0.147116674  nElectrons: 380.000000  magneticMoment: [ Abs: 0.00000  Tot: -0.00000 ]
	SubspaceRotationAdjust: set factor to 0.649
ElecMinimize: Iter:   6  F: -4037.021118748462868  |grad|_K:  2.938e-07  alpha:  1.142e-01  linmin:  1.073e-06  t[s]:   8089.69
	Linear fluid (dielectric constant: 78.4, screening length: 8.12261 Bohr) occupying 0.528118 of unit cell:	Completed after 12 iterations at t[s]:   8116.88
	Linear fluid (dielectric constant: 78.4, screening length: 8.12261 Bohr) occupying 0.528116 of unit cell:	Completed after 7 iterations at t[s]:   8137.50
	FillingsUpdate:  mu: -0.146517537  nElectrons: 380.000000  magneticMoment: [ Abs: 0.00000  Tot: -0.00000 ]
	SubspaceRotationAdjust: set factor to 0.449
ElecMinimize: Iter:   7  F: -4037.021121775953816  |grad|_K:  1.747e-07  alpha:  8.656e-02  linmin:  9.461e-06  t[s]:   8168.40
	Linear fluid (dielectric constant: 78.4, screening length: 8.12261 Bohr) occupying 0.528114 of unit cell:	Completed after 6 iterations at t[s]:   8195.08
	Linear fluid (dielectric constant: 78.4, screening length: 8.12261 Bohr) occupying 0.528111 of unit cell:	Completed after 7 iterations at t[s]:   8215.71
	FillingsUpdate:  mu: -0.146626781  nElectrons: 380.000000  magneticMoment: [ Abs: 0.00000  Tot: -0.00000 ]
	SubspaceRotationAdjust: set factor to 0.453
ElecMinimize: Iter:   8  F: -4037.021124865302681  |grad|_K:  1.750e-07  alpha:  2.480e-01  linmin: -8.220e-05  t[s]:   8246.66
	Linear fluid (dielectric constant: 78.4, screening length: 8.12261 Bohr) occupying 0.528101 of unit cell:	Completed after 10 iterations at t[s]:   8273.95
	Linear fluid (dielectric constant: 78.4, screening length: 8.12261 Bohr) occupying 0.528106 of unit cell:	Completed after 10 iterations at t[s]:   8294.79
	FillingsUpdate:  mu: -0.146886364  nElectrons: 380.000000  magneticMoment: [ Abs: 0.00000  Tot: -0.00000 ]
	SubspaceRotationAdjust: set factor to 0.469
ElecMinimize: Iter:   9  F: -4037.021126196315890  |grad|_K:  8.246e-08  alpha:  1.063e-01  linmin:  1.060e-05  t[s]:   8325.80
	Linear fluid (dielectric constant: 78.4, screening length: 8.12261 Bohr) occupying 0.528107 of unit cell:	Completed after 2 iterations at t[s]:   8352.11
	Linear fluid (dielectric constant: 78.4, screening length: 8.12261 Bohr) occupying 0.528108 of unit cell:	Completed after 2 iterations at t[s]:   8372.28
	FillingsUpdate:  mu: -0.146863033  nElectrons: 380.000000  magneticMoment: [ Abs: 0.00000  Tot: -0.00000 ]
	SubspaceRotationAdjust: set factor to 0.493
ElecMinimize: Iter:  10  F: -4037.021126694256054  |grad|_K:  6.993e-08  alpha:  1.813e-01  linmin:  3.630e-05  t[s]:   8403.35
	Linear fluid (dielectric constant: 78.4, screening length: 8.12261 Bohr) occupying 0.528112 of unit cell:	Completed after 6 iterations at t[s]:   8430.04
	Linear fluid (dielectric constant: 78.4, screening length: 8.12261 Bohr) occupying 0.528111 of unit cell:	Completed after 2 iterations at t[s]:   8450.24
	FillingsUpdate:  mu: -0.146779369  nElectrons: 380.000000  magneticMoment: [ Abs: 0.00000  Tot: -0.00000 ]
	SubspaceRotationAdjust: set factor to 0.517
ElecMinimize: Iter:  11  F: -4037.021126965570147  |grad|_K:  4.760e-08  alpha:  1.381e-01  linmin: -1.985e-05  t[s]:   8481.34
	Linear fluid (dielectric constant: 78.4, screening length: 8.12261 Bohr) occupying 0.528113 of unit cell:	Completed after 2 iterations at t[s]:   8507.72
	Linear fluid (dielectric constant: 78.4, screening length: 8.12261 Bohr) occupying 0.528114 of unit cell:	Completed after 2 iterations at t[s]:   8527.96
	FillingsUpdate:  mu: -0.146759407  nElectrons: 380.000000  magneticMoment: [ Abs: 0.00000  Tot: -0.00000 ]
	SubspaceRotationAdjust: set factor to 0.554
ElecMinimize: Iter:  12  F: -4037.021127142169917  |grad|_K:  4.148e-08  alpha:  1.912e-01  linmin: -4.912e-06  t[s]:   8559.29
	Linear fluid (dielectric constant: 78.4, screening length: 8.12261 Bohr) occupying 0.528116 of unit cell:	Completed after 2 iterations at t[s]:   8585.66
	Linear fluid (dielectric constant: 78.4, screening length: 8.12261 Bohr) occupying 0.528116 of unit cell:	Completed after 1 iterations at t[s]:   8605.85
	FillingsUpdate:  mu: -0.146745112  nElectrons: 380.000000  magneticMoment: [ Abs: 0.00000  Tot: -0.00000 ]
	SubspaceRotationAdjust: set factor to 0.653
ElecMinimize: Iter:  13  F: -4037.021127245943262  |grad|_K:  2.748e-08  alpha:  1.493e-01  linmin:  6.538e-05  t[s]:   8637.06
	Linear fluid (dielectric constant: 78.4, screening length: 8.12261 Bohr) occupying 0.528115 of unit cell:	Completed after 2 iterations at t[s]:   8663.39
	Linear fluid (dielectric constant: 78.4, screening length: 8.12261 Bohr) occupying 0.528115 of unit cell:	Completed after 0 iterations at t[s]:   8683.31
	FillingsUpdate:  mu: -0.146760490  nElectrons: 380.000000  magneticMoment: [ Abs: 0.00000  Tot: -0.00000 ]
	SubspaceRotationAdjust: set factor to 0.737
ElecMinimize: Iter:  14  F: -4037.021127294896360  |grad|_K:  2.456e-08  alpha:  1.606e-01  linmin: -3.660e-04  t[s]:   8714.36
	Linear fluid (dielectric constant: 78.4, screening length: 8.12261 Bohr) occupying 0.528115 of unit cell:	Completed after 3 iterations at t[s]:   8740.96
	Linear fluid (dielectric constant: 78.4, screening length: 8.12261 Bohr) occupying 0.528115 of unit cell:	Completed after 0 iterations at t[s]:   8761.00
	FillingsUpdate:  mu: -0.146778645  nElectrons: 380.000000  magneticMoment: [ Abs: 0.00000  Tot: -0.00000 ]
	SubspaceRotationAdjust: set factor to 0.702
ElecMinimize: Iter:  15  F: -4037.021127336918198  |grad|_K:  1.804e-08  alpha:  1.655e-01  linmin: -2.339e-04  t[s]:   8792.04
ElecMinimize: Converged (|Delta F|<1.000000e-07 for 2 iters).
Setting wave functions to eigenvectors of Hamiltonian
Converging empty states (this may take a while): |deigs|: 3.861e-07

Computing DFT-D3 correction:
# coordination-number Cu 6.882 9.112 9.125 9.158 9.170 9.131 9.120 8.364 6.128 4.678 8.363 9.119 9.131 9.170 9.158 9.125 9.113 6.882 4.678 6.128
# diagonal-C6 Cu 175.00 175.00 175.00 175.00 175.00 175.00 175.00 175.00 175.00 175.00 175.00 175.00 175.00 175.00 175.00 175.00 175.00 175.00 175.00 175.00
EvdW_6 =   -0.118626
EvdW_8 =   -0.178610

# Ionic positions in cartesian coordinates:
ion Cu   0.000003956892214   4.262124758979599  18.663370458795523 1
ion Cu  -0.000000323864027   8.522946081897979  16.529807571067085 1
ion Cu   0.000002204064292   2.131179145860780  14.381745424982880 1
ion Cu  -0.000003637381460   6.396488052511853  12.258494868981051 1
ion Cu  -0.000000137400921  10.656804742681913  10.124607184963970 1
ion Cu   0.000002007863517   4.263272666429986   7.997798760886542 1
ion Cu  -0.000000165472267   8.530540794182155   5.860845690549167 1
ion Cu   0.000002484307530   2.122570277192372   3.708879851966640 1
ion Cu  -0.000003991685937   6.396068528340199   1.601368397925814 1
ion Cu  -0.000001122375302  -0.002466817534571  20.759544259825130 1
ion Cu   3.370513895600773   1.074960991458258  17.608200331611467 1
ion Cu   3.370517048972955   5.325511886523462  15.456146659434088 1
ion Cu   3.370507377523563   9.592794977501935  13.319035426950833 1
ion Cu   3.370506479783694   3.199247229981430  11.192138420551029 1
ion Cu   3.370516746535717   7.459534119699479   9.058342334016112 1
ion Cu   3.370513896557972   1.066347570622661   6.935127098827115 1
ion Cu   3.370514959569782   5.333096424007887   4.787216583833768 1
ion Cu   3.370505176829433   9.593923124693854   2.653789069012471 1
ion Cu   3.370508908926983   3.200003534174804   0.557618025110695 1
ion Cu   3.370514234751488   7.459989910793949  19.715784580708615 1

# Forces in Cartesian coordinates:
force Cu   0.000001942599098  -0.000117958539577   0.003097069531862 1
force Cu  -0.000000093481628  -0.000966490060753   0.001855038018376 1
force Cu   0.000000717800725  -0.000401605125493  -0.001348294533828 1
force Cu  -0.000000904878911   0.000502933816370   0.000634114516311 1
force Cu   0.000000264639948  -0.000511041906722  -0.000141267475566 1
force Cu   0.000000672718490  -0.000095157350769   0.000516978390821 1
force Cu  -0.000000342281832   0.001078927052301  -0.000424975490572 1
force Cu   0.000000258816092  -0.002662990882358  -0.005341204082265 1
force Cu  -0.000001374198286   0.000584465961275   0.000530433036478 1
force Cu   0.000004396335577  -0.000809804705115  -0.006579266550901 1
force Cu  -0.000001757651582   0.002658178778386   0.005290801174209 1
force Cu   0.000001032545699  -0.001083810871991   0.000476582725868 1
force Cu  -0.000001088204731   0.000098254663743  -0.000401413622936 1
force Cu  -0.000001321409484   0.000515868282305   0.000312534597734 1
force Cu   0.000001548921055  -0.000509796158568  -0.000477201589168 1
force Cu   0.000000902911103   0.000406225182576   0.001448089993653 1
force Cu   0.000001263513046   0.000974497734348  -0.001865675172211 1
force Cu  -0.000002565018265   0.000131048104795  -0.003187566828062 1
force Cu  -0.000001837649503   0.000810097823359   0.006462175849307 1
force Cu   0.000001034041979  -0.000583145173442  -0.000655149406016 1

# Energy components:
   A_diel =       -0.0009915577524955
   Eewald =    27543.2194219482225890
       EH =    31239.2940391288902902
     Eloc =   -63577.3808703161266749
      Enl =      732.4745753334199208
     EvdW =       -0.2972367824155606
      Exc =     -388.1151264677587847
 Exc_core =        0.9393630536209749
       KE =      412.8463919710052892
-------------------------------------
     Etot =    -4037.0204336888959915
       TS =        0.0006936480220202
-------------------------------------
        F =    -4037.0211273369181981


Dumping 'jdft.fillings' ... done
Dumping 'jdft.wfns' ... done
Dumping 'jdft.fluidState' ... done
Dumping 'jdft.ionpos' ... done
Dumping 'jdft.lattice' ... done
Dumping 'jdft.eigenvals' ... done
Dumping 'jdft.eigStats' ... 
	eMin: -4.288715 at state 0 ( [ +0.000000 +0.000000 +0.000000 ] spin 1 )
	HOMO: -0.147593 at state 5 ( [ +0.111111 +0.000000 +0.000000 ] spin 1 )
	mu  : -0.146779
	LUMO: -0.146501 at state 84 ( [ -0.222222 -0.200000 +0.000000 ] spin -1 )
	eMax: +0.193512 at state 41 ( [ -0.111111 +0.200000 +0.000000 ] spin 1 )
	HOMO-LUMO gap: +0.001091
	Optical gap  : +0.007033 at state 28 ( [ -0.444444 -0.400000 +0.000000 ] spin 1 )
Dumping 'jdft.Ecomponents' ... done
IonicMinimize: Iter:   1  F: -4037.021127336918198  |grad|_K:  1.808e-03  alpha:  3.000e+00  linmin: -9.924e-01  t[s]:   8919.54

#--- Lowdin population analysis ---
# oxidation-state Cu +0.080 +0.037 +0.073 +0.075 +0.076 +0.073 +0.052 +0.023 +0.108 +0.253 +0.024 +0.052 +0.073 +0.076 +0.075 +0.073 +0.036 +0.079 +0.252 +0.108
# magnetic-moments Cu -0.000 -0.000 -0.000 -0.000 +0.000 +0.000 +0.000 -0.000 +0.000 +0.000 +0.000 +0.000 +0.000 +0.000 -0.000 +0.000 -0.000 -0.000 -0.000 -0.000


Computing DFT-D3 correction:
# coordination-number Cu 6.915 9.110 9.055 9.129 9.144 9.047 9.081 8.328 6.192 4.908 8.348 9.107 9.065 9.148 9.117 9.031 9.087 6.898 4.903 6.204
# diagonal-C6 Cu 175.00 175.00 175.00 175.00 175.00 175.00 175.00 175.00 175.00 175.00 175.00 175.00 175.00 175.00 175.00 175.00 175.00 175.00 175.00 175.00
EvdW_6 =   -0.118588
EvdW_8 =   -0.178452
[...]
	FillingsUpdate:  mu: -0.147761657  nElectrons: 380.000000  magneticMoment: [ Abs: 0.00000  Tot: +0.00000 ]
	SubspaceRotationAdjust: set factor to 0.401
ElecMinimize: Iter:  12  F: -4037.022697268348566  |grad|_K:  3.841e-08  alpha:  1.567e-01  linmin:  2.574e-04  t[s]:  14231.92
	Linear fluid (dielectric constant: 78.4, screening length: 8.12261 Bohr) occupying 0.530228 of unit cell:	Completed after 2 iterations at t[s]:  14259.03
	Linear fluid (dielectric constant: 78.4, screening length: 8.12261 Bohr) occupying 0.530228 of unit cell:	Completed after 1 iterations at t[s]:  14279.23
	FillingsUpdate:  mu: -0.147789892  nElectrons: 380.000000  magneticMoment: [ Abs: 0.00000  Tot: -0.00000 ]
	SubspaceRotationAdjust: set factor to 0.411
ElecMinimize: Iter:  13  F: -4037.022697352590058  |grad|_K:  2.145e-08  alpha:  1.459e-01  linmin: -5.745e-04  t[s]:  14310.23
	Linear fluid (dielectric constant: 78.4, screening length: 8.12261 Bohr) occupying 0.530228 of unit cell:	Completed after 2 iterations at t[s]:  14336.65
	Linear fluid (dielectric constant: 78.4, screening length: 8.12261 Bohr) occupying 0.530228 of unit cell:	Completed after 0 iterations at t[s]:  14356.67
	FillingsUpdate:  mu: -0.147802635  nElectrons: 380.000000  magneticMoment: [ Abs: 0.00000  Tot: -0.00000 ]
	SubspaceRotationAdjust: set factor to 0.428
ElecMinimize: Iter:  14  F: -4037.022697379871261  |grad|_K:  1.678e-08  alpha:  1.428e-01  linmin: -3.965e-04  t[s]:  14387.93
ElecMinimize: Converged (|Delta F|<1.000000e-07 for 2 iters).
Setting wave functions to eigenvectors of Hamiltonian
Converging empty states (this may take a while): |deigs|: 1.443e-07

Computing DFT-D3 correction:
# coordination-number Cu 6.866 9.103 9.033 9.120 9.128 9.039 9.081 8.316 6.244 4.934 8.322 9.093 9.050 9.131 9.112 9.020 9.095 6.862 4.934 6.246
# diagonal-C6 Cu 175.00 175.00 175.00 175.00 175.00 175.00 175.00 175.00 175.00 175.00 175.00 175.00 175.00 175.00 175.00 175.00 175.00 175.00 175.00 175.00
EvdW_6 =   -0.118570
EvdW_8 =   -0.178312

# Ionic positions in cartesian coordinates:
ion Cu   0.000101354732771   4.275349681581421  18.750788912326563 1
ion Cu   0.000078465251057   8.499765063663391  16.526770899230350 1
ion Cu   0.000069657943296   2.120732375178695  14.391106996555415 1
ion Cu  -0.000036416529425   6.398302612766743  12.269384454946227 1
ion Cu  -0.000001077045234  10.651917766063017  10.125917995172687 1
ion Cu  -0.000025065387482   4.259913617628345   7.985433830323966 1
ion Cu  -0.000040390455063   8.556669581763952   5.847632569458991 1
ion Cu  -0.000051954675264   2.069919501005766   3.634888580923271 1
ion Cu  -0.000087170049294   6.416823022026079   1.614773328201252 1
ion Cu   0.000113971061956  -0.047842094328546  20.648937821518057 1
ion Cu   3.370618888007803   1.128398579500379  17.680136596900272 1
ion Cu   3.370473435508707   5.299207550446622  15.468884897123596 1
ion Cu   3.370488155622856   9.595809165064045  13.333480642186782 1
ion Cu   3.370483833913215   3.203411398901801  11.195505562922991 1
ion Cu   3.370543683376311   7.456948402455840   9.050803241000699 1
ion Cu   3.370477653269361   1.076684660996447   6.927212101577379 1
ion Cu   3.370467052187914   5.356055692220775   4.788223192256078 1
ion Cu   3.370440601774703   9.581496924476896   2.564669873881000 1
ion Cu   3.370450714827542   3.245848538938452   0.665579175606368 1
ion Cu   3.370554606664271   7.439525959649862  19.699730327888055 1

# Forces in Cartesian coordinates:
force Cu  -0.000004101903627  -0.000260182970139  -0.000057714949758 1
force Cu  -0.000004728088378  -0.000187638051534   0.000108487143204 1
force Cu  -0.000003794697503   0.000129308255451   0.000137001994068 1
force Cu  -0.000000260271080  -0.000048912500087  -0.000100613525643 1
force Cu  -0.000000402754126  -0.000021715342096  -0.000266703880232 1
force Cu   0.000000219846749   0.000050059814066  -0.000103565045914 1
force Cu   0.000000489404785   0.000064325935641  -0.000040873936736 1
force Cu  -0.000000342542654   0.000090957038857   0.000217176960723 1
force Cu   0.000000338636985   0.000154147419240   0.000273695316176 1
force Cu  -0.000001129271839  -0.000158101323010   0.000315440883456 1
force Cu   0.000001185396385  -0.000138947439715  -0.000030321821656 1
force Cu   0.000006549355961  -0.000047491408523   0.000160588969527 1
force Cu   0.000003722660660  -0.000056858700283  -0.000029909808686 1
force Cu   0.000000273535365   0.000027319320282  -0.000142636992899 1
force Cu  -0.000001577617173   0.000046362394453  -0.000207246163192 1
force Cu  -0.000000322197043  -0.000147207077733  -0.000144540305389 1
force Cu   0.000001304488697   0.000229949320904   0.000115880627322 1
force Cu  -0.000001193090774   0.000246197321813   0.000191908255253 1
force Cu  -0.000000996756051   0.000145767934965  -0.000204175403374 1
force Cu   0.000003755000446  -0.000109146100863  -0.000146021390359 1

# Energy components:
   A_diel =       -0.0010043787047933
   Eewald =    27526.9973116418696009
       EH =    31222.6151367614329502
     Eloc =   -63544.4708248658353114
      Enl =      732.4640868416095145
     EvdW =       -0.2968815306702131
      Exc =     -388.1198391813264266
 Exc_core =        0.9393583016761204
       KE =      412.8506485057741315
-------------------------------------
     Etot =    -4037.0220079041700956
       TS =        0.0006894757009563
-------------------------------------
        F =    -4037.0226973798712606


Dumping 'jdft.fillings' ... done
Dumping 'jdft.wfns' ... done
Dumping 'jdft.fluidState' ... done
Dumping 'jdft.ionpos' ... done
Dumping 'jdft.lattice' ... done
Dumping 'jdft.eigenvals' ... done
Dumping 'jdft.eigStats' ... 
	eMin: -4.289640 at state 0 ( [ +0.000000 +0.000000 +0.000000 ] spin 1 )
	HOMO: -0.148118 at state 4 ( [ +0.000000 -0.200000 +0.000000 ] spin 1 )
	mu  : -0.147803
	LUMO: -0.147501 at state 56 ( [ +0.222222 +0.200000 +0.000000 ] spin -1 )
	eMax: +0.193107 at state 0 ( [ +0.000000 +0.000000 +0.000000 ] spin 1 )
	HOMO-LUMO gap: +0.000617
	Optical gap  : +0.008135 at state 67 ( [ +0.444444 +0.400000 +0.000000 ] spin -1 )
Dumping 'jdft.Ecomponents' ... done
IonicMinimize: Iter:   4  F: -4037.022697379871261  |grad|_K:  1.263e-04  alpha:  1.000e+00  linmin:  2.297e-02  t[s]:  14499.20

#--- Lowdin population analysis ---
# oxidation-state Cu +0.085 +0.035 +0.076 +0.075 +0.076 +0.075 +0.053 +0.024 +0.109 +0.239 +0.023 +0.052 +0.075 +0.076 +0.075 +0.077 +0.036 +0.085 +0.239 +0.109
# magnetic-moments Cu -0.000 +0.000 +0.000 +0.000 -0.000 -0.000 +0.000 +0.000 -0.000 -0.000 +0.000 +0.000 -0.000 +0.000 -0.000 +0.000 +0.000 +0.000 -0.000 -0.000


Computing DFT-D3 correction:
# coordination-number Cu 6.862 9.101 9.025 9.115 9.124 9.044 9.091 8.321 6.249 4.931 8.323 9.090 9.041 9.124 9.118 9.028 9.099 6.861 4.929 6.253
# diagonal-C6 Cu 175.00 175.00 175.00 175.00 175.00 175.00 175.00 175.00 175.00 175.00 175.00 175.00 175.00 175.00 175.00 175.00 175.00 175.00 175.00 175.00
EvdW_6 =   -0.118566
EvdW_8 =   -0.178299

-------- Electronic minimization -----------
	Linear fluid (dielectric constant: 78.4, screening length: 8.12261 Bohr) occupying 0.530188 of unit cell:	Completed after 8 iterations at t[s]:  14529.18
	FillingsUpdate:  mu: -0.147664578  nElectrons: 380.000000  magneticMoment: [ Abs: 0.00000  Tot: -0.00000 ]
ElecMinimize: Iter:   0  F: -4037.022649079578059  |grad|_K:  5.531e-07  alpha:  1.000e+00
	Linear fluid (dielectric constant: 78.4, screening length: 8.12261 Bohr) occupying 0.530171 of unit cell:	Completed after 17 iterations at t[s]:  14591.94
	Linear fluid (dielectric constant: 78.4, screening length: 8.12261 Bohr) occupying 0.530186 of unit cell:	Completed after 17 iterations at t[s]:  14613.70
	FillingsUpdate:  mu: -0.147919265  nElectrons: 380.000000  magneticMoment: [ Abs: 0.00000  Tot: +0.00000 ]
	SubspaceRotationAdjust: set factor to 0.471
ElecMinimize: Iter:   1  F: -4037.022666139596367  |grad|_K:  4.069e-07  alpha:  1.376e-01  linmin: -4.788e-06  t[s]:  14644.61
	Linear fluid (dielectric constant: 78.4, screening length: 8.12261 Bohr) occupying 0.530187 of unit cell:	Completed after 2 iterations at t[s]:  14671.04
	Linear fluid (dielectric constant: 78.4, screening length: 8.12261 Bohr) occupying 0.530187 of unit cell:	Completed after 2 iterations at t[s]:  14691.34
	FillingsUpdate:  mu: -0.147906628  nElectrons: 380.000000  magneticMoment: [ Abs: 0.00000  Tot: +0.00000 ]
	SubspaceRotationAdjust: set factor to 0.55
ElecMinimize: Iter:   2  F: -4037.022684373626362  |grad|_K:  3.246e-07  alpha:  2.716e-01  linmin: -7.861e-06  t[s]:  14722.46
	Linear fluid (dielectric constant: 78.4, screening length: 8.12261 Bohr) occupying 0.530192 of unit cell:	Completed after 9 iterations at t[s]:  14749.49
	Linear fluid (dielectric constant: 78.4, screening length: 8.12261 Bohr) occupying 0.530191 of unit cell:	Completed after 6 iterations at t[s]:  14770.18
	FillingsUpdate:  mu: -0.147772163  nElectrons: 380.000000  magneticMoment: [ Abs: 0.00000  Tot: +0.00000 ]
	SubspaceRotationAdjust: set factor to 0.621
ElecMinimize: Iter:   3  F: -4037.022692590216593  |grad|_K:  2.643e-07  alpha:  1.923e-01  linmin:  4.705e-06  t[s]:  14801.01
	Linear fluid (dielectric constant: 78.4, screening length: 8.12261 Bohr) occupying 0.530192 of unit cell:	Completed after 7 iterations at t[s]:  14827.70
	Linear fluid (dielectric constant: 78.4, screening length: 8.12261 Bohr) occupying 0.530192 of unit cell:	Completed after 2 iterations at t[s]:  14847.90
	FillingsUpdate:  mu: -0.147690803  nElectrons: 380.000000  magneticMoment: [ Abs: 0.00000  Tot: +0.00000 ]
	SubspaceRotationAdjust: set factor to 0.781
ElecMinimize: Iter:   4  F: -4037.022696739261846  |grad|_K:  1.821e-07  alpha:  1.467e-01  linmin:  1.539e-06  t[s]:  14878.82
	Linear fluid (dielectric constant: 78.4, screening length: 8.12261 Bohr) occupying 0.530189 of unit cell:	Completed after 10 iterations at t[s]:  14906.03
	Linear fluid (dielectric constant: 78.4, screening length: 8.12261 Bohr) occupying 0.530186 of unit cell:	Completed after 9 iterations at t[s]:  14926.87
	FillingsUpdate:  mu: -0.148115273  nElectrons: 380.000000  magneticMoment: [ Abs: 0.00000  Tot: +0.00000 ]
	SubspaceRotationAdjust: set factor to 0.784
ElecMinimize: Iter:   5  F: -4037.022700488306327  |grad|_K:  2.152e-07  alpha:  2.787e-01  linmin: -1.030e-05  t[s]:  14957.80
	Linear fluid (dielectric constant: 78.4, screening length: 8.12261 Bohr) occupying 0.530198 of unit cell:	Completed after 12 iterations at t[s]:  14985.00
	Linear fluid (dielectric constant: 78.4, screening length: 8.12261 Bohr) occupying 0.530192 of unit cell:	Completed after 10 iterations at t[s]:  15006.03
	FillingsUpdate:  mu: -0.147734293  nElectrons: 380.000000  magneticMoment: [ Abs: 0.00000  Tot: +0.00000 ]
	SubspaceRotationAdjust: set factor to 0.53
ElecMinimize: Iter:   6  F: -4037.022703020703830  |grad|_K:  1.124e-07  alpha:  1.347e-01  linmin:  6.805e-06  t[s]:  15037.11
	Linear fluid (dielectric constant: 78.4, screening length: 8.12261 Bohr) occupying 0.530191 of unit cell:	Completed after 10 iterations at t[s]:  15064.19
	Linear fluid (dielectric constant: 78.4, screening length: 8.12261 Bohr) occupying 0.530192 of unit cell:	Completed after 5 iterations at t[s]:  15084.72
	FillingsUpdate:  mu: -0.147845054  nElectrons: 380.000000  magneticMoment: [ Abs: 0.00000  Tot: +0.00000 ]
	SubspaceRotationAdjust: set factor to 0.448
ElecMinimize: Iter:   7  F: -4037.022703508326231  |grad|_K:  7.585e-08  alpha:  9.539e-02  linmin:  1.433e-05  t[s]:  15115.56
	Linear fluid (dielectric constant: 78.4, screening length: 8.12261 Bohr) occupying 0.530192 of unit cell:	Completed after 2 iterations at t[s]:  15141.88
	Linear fluid (dielectric constant: 78.4, screening length: 8.12261 Bohr) occupying 0.530192 of unit cell:	Completed after 2 iterations at t[s]:  15162.59
	FillingsUpdate:  mu: -0.147878293  nElectrons: 380.000000  magneticMoment: [ Abs: 0.00000  Tot: +0.00000 ]
	SubspaceRotationAdjust: set factor to 0.469
ElecMinimize: Iter:   8  F: -4037.022704124041411  |grad|_K:  6.741e-08  alpha:  2.628e-01  linmin: -6.072e-05  t[s]:  15193.65
	Linear fluid (dielectric constant: 78.4, screening length: 8.12261 Bohr) occupying 0.530195 of unit cell:	Completed after 6 iterations at t[s]:  15220.42
	Linear fluid (dielectric constant: 78.4, screening length: 8.12261 Bohr) occupying 0.530194 of unit cell:	Completed after 5 iterations at t[s]:  15241.04
	FillingsUpdate:  mu: -0.147811113  nElectrons: 380.000000  magneticMoment: [ Abs: 0.00000  Tot: +0.00000 ]
	SubspaceRotationAdjust: set factor to 0.478
ElecMinimize: Iter:   9  F: -4037.022704332245212  |grad|_K:  3.686e-08  alpha:  1.140e-01  linmin:  4.230e-05  t[s]:  15272.13
	Linear fluid (dielectric constant: 78.4, screening length: 8.12261 Bohr) occupying 0.530194 of unit cell:	Completed after 2 iterations at t[s]:  15298.52
	Linear fluid (dielectric constant: 78.4, screening length: 8.12261 Bohr) occupying 0.530194 of unit cell:	Completed after 2 iterations at t[s]:  15318.73
	FillingsUpdate:  mu: -0.147794153  nElectrons: 380.000000  magneticMoment: [ Abs: 0.00000  Tot: +0.00000 ]
	SubspaceRotationAdjust: set factor to 0.502
ElecMinimize: Iter:  10  F: -4037.022704419514866  |grad|_K:  2.768e-08  alpha:  1.598e-01  linmin: -2.034e-04  t[s]:  15349.75
	Linear fluid (dielectric constant: 78.4, screening length: 8.12261 Bohr) occupying 0.530194 of unit cell:	Completed after 2 iterations at t[s]:  15376.12
	Linear fluid (dielectric constant: 78.4, screening length: 8.12261 Bohr) occupying 0.530194 of unit cell:	Completed after 0 iterations at t[s]:  15396.10
	FillingsUpdate:  mu: -0.147794639  nElectrons: 380.000000  magneticMoment: [ Abs: 0.00000  Tot: +0.00000 ]
	SubspaceRotationAdjust: set factor to 0.507
ElecMinimize: Iter:  11  F: -4037.022704462165166  |grad|_K:  2.050e-08  alpha:  1.346e-01  linmin:  8.075e-04  t[s]:  15427.09
ElecMinimize: Converged (|Delta F|<1.000000e-07 for 2 iters).
Setting wave functions to eigenvectors of Hamiltonian
Converging empty states (this may take a while): |deigs|: 2.034e-08

Computing DFT-D3 correction:
# coordination-number Cu 6.862 9.101 9.025 9.115 9.124 9.044 9.091 8.321 6.249 4.931 8.323 9.090 9.041 9.124 9.118 9.028 9.099 6.861 4.929 6.253
# diagonal-C6 Cu 175.00 175.00 175.00 175.00 175.00 175.00 175.00 175.00 175.00 175.00 175.00 175.00 175.00 175.00 175.00 175.00 175.00 175.00 175.00 175.00
EvdW_6 =   -0.118566
EvdW_8 =   -0.178299

# Ionic positions in cartesian coordinates:
ion Cu   0.000070840074434   4.270600933583022  18.753749430497329 1
ion Cu   0.000036999274522   8.497296749518700  16.526596603904011 1
ion Cu   0.000037692556355   2.122148512405179  14.394108232515483 1
ion Cu  -0.000042579958380   6.397224164185234  12.267276437000552 1
ion Cu  -0.000011234077884  10.652304389881353  10.123133795763740 1
ion Cu  -0.000036055338347   4.260751542082402   7.983866078631838 1
ion Cu  -0.000039790007487   8.557708203724150   5.847384660008331 1
ion Cu  -0.000052862450534   2.071872506552485   3.636742440949964 1
ion Cu  -0.000078463217694   6.418386846923724   1.618861704224358 1
ion Cu   0.000112320354893  -0.052786244432917  20.652654338194591 1
ion Cu   3.370605065063903   1.125820925154537  17.680547244098111 1
ion Cu   3.370558354806580   5.298326285522684  15.470521599429636 1
ion Cu   3.370538664779898   9.594789437911947  13.333107480010005 1
ion Cu   3.370488059180567   3.203049301725375  11.192983428500556 1
ion Cu   3.370527678039623   7.457982916363088   9.048882934244492 1
ion Cu   3.370479422472302   1.075054119641456   6.923907865009521 1
ion Cu   3.370481167645737   5.359036290005792   4.791206521195127 1
ion Cu   3.370418551887732   9.586186509309650   2.563437984188940 1
ion Cu   3.370429954784143   3.250630193617110   0.663502365551918 1
ion Cu   3.370596214129638   7.438554416325009  19.697389856081497 1

# Forces in Cartesian coordinates:
force Cu   0.000000475425545  -0.000121525725008  -0.000190991547720 1
force Cu   0.000002345754296  -0.000141509554012  -0.000020416233956 1
force Cu   0.000001803689673  -0.000060513146479  -0.000246309413402 1
force Cu   0.000003566733453   0.000003175471258   0.000004282268407 1
force Cu   0.000002230207753   0.000014596726873   0.000088500232639 1
force Cu   0.000001434592800  -0.000038078794890   0.000105586948436 1
force Cu   0.000000270336064   0.000108053315334  -0.000021194294953 1
force Cu  -0.000001642167472   0.000158246501397  -0.000002859040404 1
force Cu  -0.000000657529020   0.000202485171051   0.000150258211157 1
force Cu  -0.000000832325649  -0.000057190377833   0.000094884162313 1
force Cu   0.000000984979664  -0.000128493628424  -0.000041642931457 1
force Cu  -0.000003165624768  -0.000122932399387  -0.000116295100749 1
force Cu  -0.000002789325642   0.000039575124367  -0.000128670522914 1
force Cu  -0.000001435188579   0.000001402665070   0.000078448906305 1
force Cu  -0.000000989277149   0.000016204561818   0.000118869621260 1
force Cu  -0.000000885896592   0.000067265209768   0.000131274748249 1
force Cu  -0.000000265925582   0.000111824515918  -0.000146690045314 1
force Cu   0.000000437939994   0.000102533302906   0.000198351187565 1
force Cu   0.000000712491475   0.000080505045820   0.000030221147994 1
force Cu  -0.000000511015401  -0.000232840832367  -0.000085336617740 1

# Energy components:
   A_diel =       -0.0010061626486594
   Eewald =    27525.4962228803706239
       EH =    31221.1259813844662858
     Eloc =   -63541.4803538098130957
      Enl =      732.4639349160092934
     EvdW =       -0.2968646739789512
      Exc =     -388.1195836177849969
 Exc_core =        0.9393584952401017
       KE =      412.8502950405761567
-------------------------------------
     Etot =    -4037.0220155475599313
       TS =        0.0006889146053228
-------------------------------------
        F =    -4037.0227044621651658


Dumping 'jdft.fillings' ... done
Dumping 'jdft.wfns' ... done
Dumping 'jdft.fluidState' ... done
Dumping 'jdft.ionpos' ... done
Dumping 'jdft.lattice' ... done
Dumping 'jdft.eigenvals' ... done
Dumping 'jdft.eigStats' ... 
	eMin: -4.289599 at state 0 ( [ +0.000000 +0.000000 +0.000000 ] spin 1 )
	HOMO: -0.148141 at state 46 ( [ +0.000000 +0.200000 +0.000000 ] spin -1 )
	mu  : -0.147795
	LUMO: -0.147475 at state 56 ( [ +0.222222 +0.200000 +0.000000 ] spin -1 )
	eMax: +0.193104 at state 0 ( [ +0.000000 +0.000000 +0.000000 ] spin 1 )
	HOMO-LUMO gap: +0.000666
	Optical gap  : +0.008114 at state 27 ( [ -0.444444 +0.400000 +0.000000 ] spin 1 )
Dumping 'jdft.Ecomponents' ... done
IonicMinimize: Iter:   5  F: -4037.022704462165166  |grad|_K:  9.397e-05  alpha:  1.000e+00  linmin: -1.097e-01  t[s]:  15507.34
IonicMinimize: Converged (|grad|_K<1.000000e-04).

#--- Lowdin population analysis ---
# oxidation-state Cu +0.085 +0.036 +0.077 +0.075 +0.076 +0.075 +0.052 +0.023 +0.108 +0.240 +0.023 +0.053 +0.075 +0.076 +0.075 +0.076 +0.035 +0.085 +0.239 +0.108
# magnetic-moments Cu +0.000 +0.000 +0.000 -0.000 -0.000 +0.000 +0.000 +0.000 -0.000 -0.000 -0.000 -0.000 -0.000 -0.000 -0.000 +0.000 +0.000 +0.000 -0.000 +0.000


Dumping 'jdft.n_up' ... done
Dumping 'jdft.n_dn' ... done
Dumping 'jdft.tau_up' ... done
Dumping 'jdft.tau_dn' ... done
Dumping 'jdft.eigenvals' ... done
Dumping 'jdft.eigStats' ... 
	eMin: -4.289599 at state 0 ( [ +0.000000 +0.000000 +0.000000 ] spin 1 )
	HOMO: -0.148141 at state 46 ( [ +0.000000 +0.200000 +0.000000 ] spin -1 )
	mu  : -0.147795
	LUMO: -0.147475 at state 56 ( [ +0.222222 +0.200000 +0.000000 ] spin -1 )
	eMax: +0.193104 at state 0 ( [ +0.000000 +0.000000 +0.000000 ] spin 1 )
	HOMO-LUMO gap: +0.000666
	Optical gap  : +0.008114 at state 27 ( [ -0.444444 +0.400000 +0.000000 ] spin 1 )
Dumping 'jdft.kPts' ... done
Dumping 'jdft.dosUp' ... done.
Dumping 'jdft.dosDn' ... done.
End date and time: Mon Dec  6 19:43:37 2021  (Duration: 0-4:19:15.78)
Done!
