
*************** JDFTx 1.6.0  ***************

Start date and time: Mon Dec  6 12:00:07 2021
Executable /projects/musgravc/apps/jdftx-1.6.1/build/jdftx with command-line: -i in
Running on hosts (process indices):  shas0860.rc.int.colorado.edu (0-23)
Divided in process groups (process indices):  0 (0)  1 (1)  2 (2)  3 (3)  4 (4)  5 (5)  6 (6)  7 (7)  8 (8)  9 (9)  10 (10)  11 (11)  12 (12)  13 (13)  14 (14)  15 (15)  16 (16)  17 (17)  18 (18)  19 (19)  20 (20)  21 (21)  22 (22)  23 (23)
Resource initialization completed at t[s]:      0.00
Run totals: 24 processes, 24 threads, 0 GPUs


Input parsed successfully to the following command list (including defaults):

basis kpoint-dependent
converge-empty-states yes
coords-type Cartesian
core-overlap-check none
coulomb-interaction Periodic
davidson-band-ratio 1.1
density-of-states Etol 1.000000e-06 Esigma 1.000000e-03 \
		Complete \
	Total \
	OrthoOrbital Cu 1   s \
	OrthoOrbital Cu 1   p \
	OrthoOrbital Cu 1   px \
	OrthoOrbital Cu 1   py \
	OrthoOrbital Cu 1   pz \
	OrthoOrbital Cu 1   d \
	OrthoOrbital Cu 1   dxy \
	OrthoOrbital Cu 1   dyz \
	OrthoOrbital Cu 1   dz2 \
	OrthoOrbital Cu 1   dxz \
	OrthoOrbital Cu 1   dx2-y2 \
	OrthoOrbital Cu 2   s \
	OrthoOrbital Cu 2   p \
	OrthoOrbital Cu 2   px \
	OrthoOrbital Cu 2   py \
	OrthoOrbital Cu 2   pz \
	OrthoOrbital Cu 2   d \
	OrthoOrbital Cu 2   dxy \
	OrthoOrbital Cu 2   dyz \
	OrthoOrbital Cu 2   dz2 \
	OrthoOrbital Cu 2   dxz \
	OrthoOrbital Cu 2   dx2-y2 \
	OrthoOrbital Cu 3   s \
	OrthoOrbital Cu 3   p \
	OrthoOrbital Cu 3   px \
	OrthoOrbital Cu 3   py \
	OrthoOrbital Cu 3   pz \
	OrthoOrbital Cu 3   d \
	OrthoOrbital Cu 3   dxy \
	OrthoOrbital Cu 3   dyz \
	OrthoOrbital Cu 3   dz2 \
	OrthoOrbital Cu 3   dxz \
	OrthoOrbital Cu 3   dx2-y2 \
	OrthoOrbital Cu 4   s \
	OrthoOrbital Cu 4   p \
	OrthoOrbital Cu 4   px \
	OrthoOrbital Cu 4   py \
	OrthoOrbital Cu 4   pz \
	OrthoOrbital Cu 4   d \
	OrthoOrbital Cu 4   dxy \
	OrthoOrbital Cu 4   dyz \
	OrthoOrbital Cu 4   dz2 \
	OrthoOrbital Cu 4   dxz \
	OrthoOrbital Cu 4   dx2-y2 \
	OrthoOrbital Cu 5   s \
	OrthoOrbital Cu 5   p \
	OrthoOrbital Cu 5   px \
	OrthoOrbital Cu 5   py \
	OrthoOrbital Cu 5   pz \
	OrthoOrbital Cu 5   d \
	OrthoOrbital Cu 5   dxy \
	OrthoOrbital Cu 5   dyz \
	OrthoOrbital Cu 5   dz2 \
	OrthoOrbital Cu 5   dxz \
	OrthoOrbital Cu 5   dx2-y2 \
	OrthoOrbital Cu 6   s \
	OrthoOrbital Cu 6   p \
	OrthoOrbital Cu 6   px \
	OrthoOrbital Cu 6   py \
	OrthoOrbital Cu 6   pz \
	OrthoOrbital Cu 6   d \
	OrthoOrbital Cu 6   dxy \
	OrthoOrbital Cu 6   dyz \
	OrthoOrbital Cu 6   dz2 \
	OrthoOrbital Cu 6   dxz \
	OrthoOrbital Cu 6   dx2-y2 \
	OrthoOrbital Cu 7   s \
	OrthoOrbital Cu 7   p \
	OrthoOrbital Cu 7   px \
	OrthoOrbital Cu 7   py \
	OrthoOrbital Cu 7   pz \
	OrthoOrbital Cu 7   d \
	OrthoOrbital Cu 7   dxy \
	OrthoOrbital Cu 7   dyz \
	OrthoOrbital Cu 7   dz2 \
	OrthoOrbital Cu 7   dxz \
	OrthoOrbital Cu 7   dx2-y2 \
	OrthoOrbital Cu 8   s \
	OrthoOrbital Cu 8   p \
	OrthoOrbital Cu 8   px \
	OrthoOrbital Cu 8   py \
	OrthoOrbital Cu 8   pz \
	OrthoOrbital Cu 8   d \
	OrthoOrbital Cu 8   dxy \
	OrthoOrbital Cu 8   dyz \
	OrthoOrbital Cu 8   dz2 \
	OrthoOrbital Cu 8   dxz \
	OrthoOrbital Cu 8   dx2-y2 \
	OrthoOrbital Cu 9   s \
	OrthoOrbital Cu 9   p \
	OrthoOrbital Cu 9   px \
	OrthoOrbital Cu 9   py \
	OrthoOrbital Cu 9   pz \
	OrthoOrbital Cu 9   d \
	OrthoOrbital Cu 9   dxy \
	OrthoOrbital Cu 9   dyz \
	OrthoOrbital Cu 9   dz2 \
	OrthoOrbital Cu 9   dxz \
	OrthoOrbital Cu 9   dx2-y2 \
	OrthoOrbital Cu 10   s \
	OrthoOrbital Cu 10   p \
	OrthoOrbital Cu 10   px \
	OrthoOrbital Cu 10   py \
	OrthoOrbital Cu 10   pz \
	OrthoOrbital Cu 10   d \
	OrthoOrbital Cu 10   dxy \
	OrthoOrbital Cu 10   dyz \
	OrthoOrbital Cu 10   dz2 \
	OrthoOrbital Cu 10   dxz \
	OrthoOrbital Cu 10   dx2-y2 \
	OrthoOrbital Cu 11   s \
	OrthoOrbital Cu 11   p \
	OrthoOrbital Cu 11   px \
	OrthoOrbital Cu 11   py \
	OrthoOrbital Cu 11   pz \
	OrthoOrbital Cu 11   d \
	OrthoOrbital Cu 11   dxy \
	OrthoOrbital Cu 11   dyz \
	OrthoOrbital Cu 11   dz2 \
	OrthoOrbital Cu 11   dxz \
	OrthoOrbital Cu 11   dx2-y2 \
	OrthoOrbital Cu 12   s \
	OrthoOrbital Cu 12   p \
	OrthoOrbital Cu 12   px \
	OrthoOrbital Cu 12   py \
	OrthoOrbital Cu 12   pz \
	OrthoOrbital Cu 12   d \
	OrthoOrbital Cu 12   dxy \
	OrthoOrbital Cu 12   dyz \
	OrthoOrbital Cu 12   dz2 \
	OrthoOrbital Cu 12   dxz \
	OrthoOrbital Cu 12   dx2-y2 \
	OrthoOrbital Cu 13   s \
	OrthoOrbital Cu 13   p \
	OrthoOrbital Cu 13   px \
	OrthoOrbital Cu 13   py \
	OrthoOrbital Cu 13   pz \
	OrthoOrbital Cu 13   d \
	OrthoOrbital Cu 13   dxy \
	OrthoOrbital Cu 13   dyz \
	OrthoOrbital Cu 13   dz2 \
	OrthoOrbital Cu 13   dxz \
	OrthoOrbital Cu 13   dx2-y2 \
	OrthoOrbital Cu 14   s \
	OrthoOrbital Cu 14   p \
	OrthoOrbital Cu 14   px \
	OrthoOrbital Cu 14   py \
	OrthoOrbital Cu 14   pz \
	OrthoOrbital Cu 14   d \
	OrthoOrbital Cu 14   dxy \
	OrthoOrbital Cu 14   dyz \
	OrthoOrbital Cu 14   dz2 \
	OrthoOrbital Cu 14   dxz \
	OrthoOrbital Cu 14   dx2-y2 \
	OrthoOrbital Cu 15   s \
	OrthoOrbital Cu 15   p \
	OrthoOrbital Cu 15   px \
	OrthoOrbital Cu 15   py \
	OrthoOrbital Cu 15   pz \
	OrthoOrbital Cu 15   d \
	OrthoOrbital Cu 15   dxy \
	OrthoOrbital Cu 15   dyz \
	OrthoOrbital Cu 15   dz2 \
	OrthoOrbital Cu 15   dxz \
	OrthoOrbital Cu 15   dx2-y2 \
	OrthoOrbital Cu 16   s \
	OrthoOrbital Cu 16   p \
	OrthoOrbital Cu 16   px \
	OrthoOrbital Cu 16   py \
	OrthoOrbital Cu 16   pz \
	OrthoOrbital Cu 16   d \
	OrthoOrbital Cu 16   dxy \
	OrthoOrbital Cu 16   dyz \
	OrthoOrbital Cu 16   dz2 \
	OrthoOrbital Cu 16   dxz \
	OrthoOrbital Cu 16   dx2-y2 \
	OrthoOrbital Cu 17   s \
	OrthoOrbital Cu 17   p \
	OrthoOrbital Cu 17   px \
	OrthoOrbital Cu 17   py \
	OrthoOrbital Cu 17   pz \
	OrthoOrbital Cu 17   d \
	OrthoOrbital Cu 17   dxy \
	OrthoOrbital Cu 17   dyz \
	OrthoOrbital Cu 17   dz2 \
	OrthoOrbital Cu 17   dxz \
	OrthoOrbital Cu 17   dx2-y2 \
	OrthoOrbital Cu 18   s \
	OrthoOrbital Cu 18   p \
	OrthoOrbital Cu 18   px \
	OrthoOrbital Cu 18   py \
	OrthoOrbital Cu 18   pz \
	OrthoOrbital Cu 18   d \
	OrthoOrbital Cu 18   dxy \
	OrthoOrbital Cu 18   dyz \
	OrthoOrbital Cu 18   dz2 \
	OrthoOrbital Cu 18   dxz \
	OrthoOrbital Cu 18   dx2-y2 \
	OrthoOrbital Cu 19   s \
	OrthoOrbital Cu 19   p \
	OrthoOrbital Cu 19   px \
	OrthoOrbital Cu 19   py \
	OrthoOrbital Cu 19   pz \
	OrthoOrbital Cu 19   d \
	OrthoOrbital Cu 19   dxy \
	OrthoOrbital Cu 19   dyz \
	OrthoOrbital Cu 19   dz2 \
	OrthoOrbital Cu 19   dxz \
	OrthoOrbital Cu 19   dx2-y2 \
	OrthoOrbital Cu 20   s \
	OrthoOrbital Cu 20   p \
	OrthoOrbital Cu 20   px \
	OrthoOrbital Cu 20   py \
	OrthoOrbital Cu 20   pz \
	OrthoOrbital Cu 20   d \
	OrthoOrbital Cu 20   dxy \
	OrthoOrbital Cu 20   dyz \
	OrthoOrbital Cu 20   dz2 \
	OrthoOrbital Cu 20   dxz \
	OrthoOrbital Cu 20   dx2-y2 \
	OrthoOrbital Cu 21   s \
	OrthoOrbital Cu 21   p \
	OrthoOrbital Cu 21   px \
	OrthoOrbital Cu 21   py \
	OrthoOrbital Cu 21   pz \
	OrthoOrbital Cu 21   d \
	OrthoOrbital Cu 21   dxy \
	OrthoOrbital Cu 21   dyz \
	OrthoOrbital Cu 21   dz2 \
	OrthoOrbital Cu 21   dxz \
	OrthoOrbital Cu 21   dx2-y2 \
	OrthoOrbital Cu 22   s \
	OrthoOrbital Cu 22   p \
	OrthoOrbital Cu 22   px \
	OrthoOrbital Cu 22   py \
	OrthoOrbital Cu 22   pz \
	OrthoOrbital Cu 22   d \
	OrthoOrbital Cu 22   dxy \
	OrthoOrbital Cu 22   dyz \
	OrthoOrbital Cu 22   dz2 \
	OrthoOrbital Cu 22   dxz \
	OrthoOrbital Cu 22   dx2-y2 \
	OrthoOrbital Cu 23   s \
	OrthoOrbital Cu 23   p \
	OrthoOrbital Cu 23   px \
	OrthoOrbital Cu 23   py \
	OrthoOrbital Cu 23   pz \
	OrthoOrbital Cu 23   d \
	OrthoOrbital Cu 23   dxy \
	OrthoOrbital Cu 23   dyz \
	OrthoOrbital Cu 23   dz2 \
	OrthoOrbital Cu 23   dxz \
	OrthoOrbital Cu 23   dx2-y2 \
	OrthoOrbital Cu 24   s \
	OrthoOrbital Cu 24   p \
	OrthoOrbital Cu 24   px \
	OrthoOrbital Cu 24   py \
	OrthoOrbital Cu 24   pz \
	OrthoOrbital Cu 24   d \
	OrthoOrbital Cu 24   dxy \
	OrthoOrbital Cu 24   dyz \
	OrthoOrbital Cu 24   dz2 \
	OrthoOrbital Cu 24   dxz \
	OrthoOrbital Cu 24   dx2-y2 \
	OrthoOrbital Cu 25   s \
	OrthoOrbital Cu 25   p \
	OrthoOrbital Cu 25   px \
	OrthoOrbital Cu 25   py \
	OrthoOrbital Cu 25   pz \
	OrthoOrbital Cu 25   d \
	OrthoOrbital Cu 25   dxy \
	OrthoOrbital Cu 25   dyz \
	OrthoOrbital Cu 25   dz2 \
	OrthoOrbital Cu 25   dxz \
	OrthoOrbital Cu 25   dx2-y2 \
	OrthoOrbital Cu 26   s \
	OrthoOrbital Cu 26   p \
	OrthoOrbital Cu 26   px \
	OrthoOrbital Cu 26   py \
	OrthoOrbital Cu 26   pz \
	OrthoOrbital Cu 26   d \
	OrthoOrbital Cu 26   dxy \
	OrthoOrbital Cu 26   dyz \
	OrthoOrbital Cu 26   dz2 \
	OrthoOrbital Cu 26   dxz \
	OrthoOrbital Cu 26   dx2-y2 \
	OrthoOrbital Cu 27   s \
	OrthoOrbital Cu 27   p \
	OrthoOrbital Cu 27   px \
	OrthoOrbital Cu 27   py \
	OrthoOrbital Cu 27   pz \
	OrthoOrbital Cu 27   d \
	OrthoOrbital Cu 27   dxy \
	OrthoOrbital Cu 27   dyz \
	OrthoOrbital Cu 27   dz2 \
	OrthoOrbital Cu 27   dxz \
	OrthoOrbital Cu 27   dx2-y2 \
	OrthoOrbital Cu 28   s \
	OrthoOrbital Cu 28   p \
	OrthoOrbital Cu 28   px \
	OrthoOrbital Cu 28   py \
	OrthoOrbital Cu 28   pz \
	OrthoOrbital Cu 28   d \
	OrthoOrbital Cu 28   dxy \
	OrthoOrbital Cu 28   dyz \
	OrthoOrbital Cu 28   dz2 \
	OrthoOrbital Cu 28   dxz \
	OrthoOrbital Cu 28   dx2-y2 \
	OrthoOrbital Cu 29   s \
	OrthoOrbital Cu 29   p \
	OrthoOrbital Cu 29   px \
	OrthoOrbital Cu 29   py \
	OrthoOrbital Cu 29   pz \
	OrthoOrbital Cu 29   d \
	OrthoOrbital Cu 29   dxy \
	OrthoOrbital Cu 29   dyz \
	OrthoOrbital Cu 29   dz2 \
	OrthoOrbital Cu 29   dxz \
	OrthoOrbital Cu 29   dx2-y2 \
	OrthoOrbital Cu 30   s \
	OrthoOrbital Cu 30   p \
	OrthoOrbital Cu 30   px \
	OrthoOrbital Cu 30   py \
	OrthoOrbital Cu 30   pz \
	OrthoOrbital Cu 30   d \
	OrthoOrbital Cu 30   dxy \
	OrthoOrbital Cu 30   dyz \
	OrthoOrbital Cu 30   dz2 \
	OrthoOrbital Cu 30   dxz \
	OrthoOrbital Cu 30   dx2-y2 \
	OrthoOrbital Cu 31   s \
	OrthoOrbital Cu 31   p \
	OrthoOrbital Cu 31   px \
	OrthoOrbital Cu 31   py \
	OrthoOrbital Cu 31   pz \
	OrthoOrbital Cu 31   d \
	OrthoOrbital Cu 31   dxy \
	OrthoOrbital Cu 31   dyz \
	OrthoOrbital Cu 31   dz2 \
	OrthoOrbital Cu 31   dxz \
	OrthoOrbital Cu 31   dx2-y2 \
	OrthoOrbital Cu 32   s \
	OrthoOrbital Cu 32   p \
	OrthoOrbital Cu 32   px \
	OrthoOrbital Cu 32   py \
	OrthoOrbital Cu 32   pz \
	OrthoOrbital Cu 32   d \
	OrthoOrbital Cu 32   dxy \
	OrthoOrbital Cu 32   dyz \
	OrthoOrbital Cu 32   dz2 \
	OrthoOrbital Cu 32   dxz \
	OrthoOrbital Cu 32   dx2-y2 \
	OrthoOrbital Cu 33   s \
	OrthoOrbital Cu 33   p \
	OrthoOrbital Cu 33   px \
	OrthoOrbital Cu 33   py \
	OrthoOrbital Cu 33   pz \
	OrthoOrbital Cu 33   d \
	OrthoOrbital Cu 33   dxy \
	OrthoOrbital Cu 33   dyz \
	OrthoOrbital Cu 33   dz2 \
	OrthoOrbital Cu 33   dxz \
	OrthoOrbital Cu 33   dx2-y2 \
	OrthoOrbital Cu 34   s \
	OrthoOrbital Cu 34   p \
	OrthoOrbital Cu 34   px \
	OrthoOrbital Cu 34   py \
	OrthoOrbital Cu 34   pz \
	OrthoOrbital Cu 34   d \
	OrthoOrbital Cu 34   dxy \
	OrthoOrbital Cu 34   dyz \
	OrthoOrbital Cu 34   dz2 \
	OrthoOrbital Cu 34   dxz \
	OrthoOrbital Cu 34   dx2-y2
dump End ElecDensity KEdensity BandEigs EigStats RhoAtom DOS Kpoints
dump Ionic State IonicPositions Lattice EigStats Ecomponents
dump 
dump 
dump 
dump 
dump 
dump 
dump 
dump 
dump-name jdft.$VAR
elec-cutoff 20
elec-eigen-algo Davidson
elec-ex-corr gga-PBE
elec-initial-magnetization 0.000000 no
elec-n-bands 388
elec-smearing Fermi 0.001
electronic-minimize  \
	dirUpdateScheme      FletcherReeves \
	linminMethod         DirUpdateRecommended \
	nIterations          100 \
	history              15 \
	knormThreshold       0 \
	energyDiffThreshold  1e-07 \
	nEnergyDiff          2 \
	alphaTstart          1 \
	alphaTmin            1e-10 \
	updateTestStepSize   yes \
	alphaTreduceFactor   0.1 \
	alphaTincreaseFactor 3 \
	nAlphaAdjustMax      3 \
	wolfeEnergy          0.0001 \
	wolfeGradient        0.9 \
	fdTest               no
exchange-regularization WignerSeitzTruncated
fluid None
fluid-ex-corr lda-TF lda-PZ
fluid-gummel-loop 10 1.000000e-05
fluid-minimize  \
	dirUpdateScheme      PolakRibiere \
	linminMethod         DirUpdateRecommended \
	nIterations          100 \
	history              15 \
	knormThreshold       0 \
	energyDiffThreshold  0 \
	nEnergyDiff          2 \
	alphaTstart          1 \
	alphaTmin            1e-10 \
	updateTestStepSize   yes \
	alphaTreduceFactor   0.1 \
	alphaTincreaseFactor 3 \
	nAlphaAdjustMax      3 \
	wolfeEnergy          0.0001 \
	wolfeGradient        0.9 \
	fdTest               no
fluid-solvent H2O 55.338 ScalarEOS \
	epsBulk 78.4 \
	pMol 0.92466 \
	epsInf 1.77 \
	Pvap 1.06736e-10 \
	sigmaBulk 4.62e-05 \
	Rvdw 2.61727 \
	Res 1.42 \
	tauNuc 343133 \
	poleEl 15 7 1
forces-output-coords Positions
ion Cu   0.000000000000000  11.560753999999998   1.226214000000000 1
ion Cu   0.000000000000000  15.028989999999999   4.496115999999999 1
ion Cu   0.000000000000000   0.000000000000000  27.385186000000001 1
ion Cu   0.000000000000000   3.468236000000000   2.861165000000000 1
ion Cu   0.000000000000000   6.936451999999999   6.130983999999999 1
ion Cu   0.000000000000000  10.404687999999998   9.400886999999999 1
ion Cu   0.000000000000000  17.341140999999997  15.940609999999996 1
ion Cu   0.000000000000000  18.497205999999995   7.765935999999999 1
ion Cu   0.000000000000000   2.312151000000000  11.035838999999999 1
ion Cu   0.000000000000000   5.780386999999998  14.305741999999999 1
ion Cu   0.000000000000000   9.248602999999997  17.575560999999997 1
ion Cu   0.000000000000000  12.716838999999998  20.845463999999996 1
ion Cu   0.000000000000000  13.872904999999996  12.670789999999998 1
ion Cu   0.000000000000000   1.156085000000000  19.210512999999995 1
ion Cu   0.000000000000000   4.624301999999999  22.480414999999997 1
ion Cu   0.000000000000000   8.092537999999998  25.750317999999996 1
ion Cu   0.000000000000000  16.185055999999996  24.115366999999996 1
ion Cu   2.383311000000000  10.982730999999998   5.313509000000000 1
ion Cu   2.383311000000000  14.450946999999996   8.583411999999999 1
ion Cu   2.383311000000000  19.075248999999996   3.678640999999999 1
ion Cu   2.383311000000000   2.890193000000000   6.948459999999999 1
ion Cu   2.383311000000000   6.358409999999999  10.218362999999998 1
ion Cu   2.383311000000000   9.826645999999998  13.488265999999998 1
ion Cu   2.383311000000000  16.763097999999996  20.027988000000001 1
ion Cu   2.383311000000000  17.919182999999997  11.853315000000000 1
ion Cu   2.383311000000000   1.734108000000000  15.123216999999999 1
ion Cu   2.383311000000000   5.202343999999999  18.393036999999996 1
ion Cu   2.383311000000000   8.670560999999998  21.662939999999999 1
ion Cu   2.383311000000000  12.138796999999999  24.932842999999998 1
ion Cu   2.383311000000000  13.294881999999998  16.758085000000001 1
ion Cu   2.383311000000000   0.578043000000000  23.297890999999996 1
ion Cu   2.383311000000000   4.046258999999999  26.567710999999996 1
ion Cu   2.383311000000000   7.514494999999999   2.043689000000000 1
ion Cu   2.383311000000000  15.607032999999998   0.408738000000000 1
ion-species /projects/musgravc/apps/jdftx-1.6.0/build/pseudopotentials/GBRV_v1.5/$ID_pbe_v1.uspp
ion-species /projects/musgravc/apps/jdftx-1.6.0/build/pseudopotentials/GBRV_v1.5/$ID_pbe_v1.2.uspp
ion-species /projects/musgravc/apps/jdftx-1.6.0/build/pseudopotentials/GBRV_v1.5/$ID_pbe_v1.4.uspp
ion-species /projects/musgravc/apps/jdftx-1.6.0/build/pseudopotentials/GBRV_v1.5/$ID_pbe_v1.5.uspp
ion-width 0
ionic-minimize  \
	dirUpdateScheme      L-BFGS \
	linminMethod         DirUpdateRecommended \
	nIterations          100 \
	history              15 \
	knormThreshold       0.0001 \
	energyDiffThreshold  1e-06 \
	nEnergyDiff          2 \
	alphaTstart          1 \
	alphaTmin            1e-10 \
	updateTestStepSize   yes \
	alphaTreduceFactor   0.1 \
	alphaTincreaseFactor 3 \
	nAlphaAdjustMax      3 \
	wolfeEnergy          0.0001 \
	wolfeGradient        0.9 \
	fdTest               no
kpoint   0.000000000000   0.000000000000   0.000000000000  1.00000000000000
kpoint-folding 12 3 1 
latt-move-scale 0 0 0
latt-scale 1 1 1 
lattice  \
	   4.766623000000000   -0.000000000000000    0.000000000000000  \
	   0.000000000000000   19.653292000000000    0.000000000000000  \
	   0.000000000000000    0.000000000000000   83.381855999999999 
lattice-minimize  \
	dirUpdateScheme      L-BFGS \
	linminMethod         DirUpdateRecommended \
	nIterations          0 \
	history              15 \
	knormThreshold       0 \
	energyDiffThreshold  1e-06 \
	nEnergyDiff          2 \
	alphaTstart          1 \
	alphaTmin            1e-10 \
	updateTestStepSize   yes \
	alphaTreduceFactor   0.1 \
	alphaTincreaseFactor 3 \
	nAlphaAdjustMax      3 \
	wolfeEnergy          0.0001 \
	wolfeGradient        0.9 \
	fdTest               no
lcao-params 30 1e-06 0.001
pcm-variant GLSSA13
spintype z-spin
subspace-rotation-factor 1 yes
symmetries none
symmetry-threshold 0.0001
van-der-waals D3


Applied RMS atom displacement 0 bohrs to make symmetries exact.

---------- Initializing the Grid ----------
R = 
[      4.76662            0            0  ]
[            0      19.6533            0  ]
[            0            0      83.3819  ]
unit cell volume = 7811.2
G =
[    1.31816          0         -0  ]
[          0   0.319701          0  ]
[          0         -0  0.0753543  ]
Minimum fftbox size, Smin = [  20  80  336  ]
Chosen fftbox size, S = [  20  80  336  ]

---------- Exchange Correlation functional ----------
Initalized PBE GGA exchange.
Initalized PBE GGA correlation.

---------- Setting up pseudopotentials ----------
Width of ionic core gaussian charges (only for fluid interactions / plotting) set to 0

Reading pseudopotential file '/projects/musgravc/apps/jdftx-1.6.0/build/pseudopotentials/GBRV_v1.5/cu_pbe_v1.2.uspp':
  Title: Cu.  Created by USPP 7.3.6 on 3-2-2014
  Reference state energy: -201.059491.  19 valence electrons in orbitals:
    |300>  occupation: 2  eigenvalue: -5.020764
    |310>  occupation: 6  eigenvalue: -3.445588
    |320>  occupation: 8  eigenvalue: -0.925168
    |400>  occupation: 2  eigenvalue: -0.567638
    |410>  occupation: 0  eigenvalue: -0.326154
  lMax: 2  lLocal: 3  QijEcut: 6
  6 projectors sampled on a log grid with 613 points:
    l: 0  eig: -5.020767  rCut: 1.4
    l: 0  eig: -0.567640  rCut: 1.4
    l: 1  eig: -3.445589  rCut: 1.55
    l: 1  eig: -0.326157  rCut: 1.55
    l: 2  eig: -0.925170  rCut: 1.5
    l: 2  eig: 1.500000  rCut: 1.5
  Partial core density with radius 0.8
  Transforming core density to a uniform radial grid of dG=0.02 with 1121 points.
  Transforming local potential to a uniform radial grid of dG=0.02 with 1121 points.
  Transforming nonlocal projectors to a uniform radial grid of dG=0.02 with 432 points.
  Transforming density augmentations to a uniform radial grid of dG=0.02 with 1121 points.
  Transforming atomic orbitals to a uniform radial grid of dG=0.02 with 432 points.
  Core radius for overlap checks: 1.55 bohrs.

Initialized 1 species with 34 total atoms.

Folded 1 k-points by 12x3x1 to 36 k-points.

---------- Setting up k-points, bands, fillings ----------
No reducable k-points. 
Computing the number of bands and number of electrons
Calculating initial fillings.
nElectrons: 646.000000   nBands: 388   nStates: 72

----- Setting up reduced wavefunction bases (one per k-point) -----
average nbasis = 33374.861 , ideal nbasis = 33370.035

----- Initializing Supercell corresponding to k-point mesh -----
Lattice vector linear combinations in supercell:
[  12   0   0  ]
[   0   3   0  ]
[   0   0   1  ]
Supercell lattice vectors:
[  57.1995  0  0  ]
[  0  58.9599  0  ]
[  0  0  83.3819  ]

Initializing DFT-D3 calculator:
	Parameters set for gga-PBE functional
	s6:  1.000  s_r6:  1.217
	s8:  0.722  s_r8:  1.000
	Per-atom parameters loaded for:
	Cu:  sqrtQ[a0]:  5.226  Rcov[a0]:  1.909  CN: [ 0.00 0.96 ]

---------- Setting up ewald sum ----------
Optimum gaussian width for ewald sums = 4.397807 bohr.
Real space sum over 945 unit cells with max indices [  10  4  2  ]
Reciprocal space sum over 7259 terms with max indices [  3  8  30  ]

Computing DFT-D3 correction:
# coordination-number Cu 6.829 9.125 5.330 6.839 9.150 9.160 9.161 9.156 9.160 9.161 9.160 9.151 9.161 9.159 9.149 6.833 7.625 9.149 9.159 7.625 9.151 9.160 9.161 9.156 9.161 9.161 9.160 9.149 6.838 9.160 9.124 6.830 6.833 5.330
# diagonal-C6 Cu 175.00 175.00 175.00 175.00 175.00 175.00 175.00 175.00 175.00 175.00 175.00 175.00 175.00 175.00 175.00 175.00 175.00 175.00 175.00 175.00 175.00 175.00 175.00 175.00 175.00 175.00 175.00 175.00 175.00 175.00 175.00 175.00 175.00 175.00
EvdW_6 =   -0.219447
EvdW_8 =   -0.319260

---------- Allocating electronic variables ----------
Initializing wave functions:  linear combination of atomic orbitals
Cu pseudo-atom occupations:   s ( 2 1 )  p ( 6 0 )  d ( 10 )
	FillingsUpdate:  mu: -4.179989738  nElectrons: 646.000000  magneticMoment: [ Abs: 0.18757  Tot: -0.00080 ]
LCAOMinimize: Iter:   0  F: -6715.3749846210075702  |grad|_K:  2.975e-02  alpha:  1.000e+00
LCAOMinimize: 	Step increased F by 2.768075e+03, reducing alpha to 3.903288e-02.
LCAOMinimize: 	Step increased F by 4.138400e+02, reducing alpha to 3.903288e-03.
	FillingsUpdate:  mu: -2.734627400  nElectrons: 646.000000  magneticMoment: [ Abs: 0.18839  Tot: -0.00201 ]
LCAOMinimize: Iter:   1  F: -6742.6829807633694145  |grad|_K:  8.993e-03  alpha:  3.903e-03  linmin: -1.422e-01  cgtest:  5.152e-01  t[s]:    459.31
LCAOMinimize: Encountered beta<0, resetting CG.
LCAOMinimize: 	Predicted alpha/alphaT>3.000000, increasing alphaT to 1.170987e-02.
	FillingsUpdate:  mu: -1.337194877  nElectrons: 646.000000  magneticMoment: [ Abs: 0.19681  Tot: -0.00468 ]
LCAOMinimize: Iter:   2  F: -6755.7402673882143063  |grad|_K:  1.372e-02  alpha:  2.386e-02  linmin:  3.003e-03  cgtest: -4.324e-02  t[s]:    598.99
	FillingsUpdate:  mu: -0.261599488  nElectrons: 646.000000  magneticMoment: [ Abs: 0.01622  Tot: +0.00272 ]
LCAOMinimize: Iter:   3  F: -6785.6773751346245263  |grad|_K:  2.537e-02  alpha:  2.360e-02  linmin: -2.380e-03  cgtest: -2.592e-01  t[s]:    710.71
	FillingsUpdate:  mu: +3.971841646  nElectrons: 646.000000  magneticMoment: [ Abs: 0.00276  Tot: -0.00136 ]
LCAOMinimize: Iter:   4  F: -6812.7909546107284768  |grad|_K:  3.891e-02  alpha:  1.518e-02  linmin: -2.047e-03  cgtest: -6.564e-01  t[s]:    822.79
	FillingsUpdate:  mu: +2.063298082  nElectrons: 646.000000  magneticMoment: [ Abs: 0.00048  Tot: +0.00003 ]
LCAOMinimize: Iter:   5  F: -6823.3346426897978745  |grad|_K:  3.295e-03  alpha:  7.473e-03  linmin:  2.242e-02  cgtest:  2.402e+00  t[s]:    934.06
LCAOMinimize: Encountered beta<0, resetting CG.
LCAOMinimize: 	Predicted alpha/alphaT>3.000000, increasing alphaT to 2.241993e-02.
	FillingsUpdate:  mu: +1.982393750  nElectrons: 646.000000  magneticMoment: [ Abs: 0.00057  Tot: +0.00027 ]
LCAOMinimize: Iter:   6  F: -6826.1683197378579280  |grad|_K:  3.336e-03  alpha:  4.695e-02  linmin:  1.625e-02  cgtest: -3.336e-01  t[s]:   1074.40
LCAOMinimize: 	Predicted alpha/alphaT>3.000000, increasing alphaT to 1.408496e-01.
	FillingsUpdate:  mu: +1.977781258  nElectrons: 646.000000  magneticMoment: [ Abs: 0.00059  Tot: +0.00030 ]
LCAOMinimize: Iter:   7  F: -6826.6808520688564386  |grad|_K:  3.381e-03  alpha:  5.483e-03  linmin: -1.814e-02  cgtest:  1.031e+00  t[s]:   1213.84
LCAOMinimize: Encountered beta<0, resetting CG.
LCAOMinimize: 	Predicted alpha/alphaT>3.000000, increasing alphaT to 1.645004e-02.
LCAOMinimize: 	Predicted alpha/alphaT>3.000000, increasing alphaT to 4.935011e-02.
	FillingsUpdate:  mu: +1.718766098  nElectrons: 646.000000  magneticMoment: [ Abs: 0.00057  Tot: +0.00029 ]
LCAOMinimize: Iter:   8  F: -6829.6110455941316104  |grad|_K:  2.607e-03  alpha:  3.276e-02  linmin:  1.374e-02  cgtest: -8.914e-02  t[s]:   1382.06
LCAOMinimize: 	Wrong curvature in test step, increasing alphaT to 9.828050e-02.
	FillingsUpdate:  mu: +1.662744961  nElectrons: 646.000000  magneticMoment: [ Abs: 0.00054  Tot: +0.00019 ]
LCAOMinimize: Iter:   9  F: -6832.1122308581852849  |grad|_K:  2.834e-03  alpha: -6.337e-01  linmin: -2.740e-02  cgtest:  1.021e+00  t[s]:   1487.17
	FillingsUpdate:  mu: +1.572035021  nElectrons: 646.000000  magneticMoment: [ Abs: 0.00048  Tot: +0.00003 ]
LCAOMinimize: Iter:  10  F: -6832.9785667616142746  |grad|_K:  2.326e-03  alpha:  8.022e-03  linmin: -7.922e-02  cgtest:  9.840e-01  t[s]:   1598.71
LCAOMinimize: Encountered beta<0, resetting CG.
LCAOMinimize: 	Predicted alpha/alphaT>3.000000, increasing alphaT to 2.406599e-02.
	FillingsUpdate:  mu: +1.662383741  nElectrons: 646.000000  magneticMoment: [ Abs: 0.00052  Tot: +0.00010 ]
LCAOMinimize: Iter:  11  F: -6835.0921713019142771  |grad|_K:  3.477e-03  alpha:  6.640e-02  linmin:  4.729e-03  cgtest: -1.685e-01  t[s]:   1738.59
	FillingsUpdate:  mu: +1.606506602  nElectrons: 646.000000  magneticMoment: [ Abs: 0.00058  Tot: +0.00010 ]
LCAOMinimize: Iter:  12  F: -6838.5135654123378117  |grad|_K:  4.646e-03  alpha:  2.462e-02  linmin: -1.242e-02  cgtest:  8.861e-01  t[s]:   1850.10
	FillingsUpdate:  mu: +0.744242660  nElectrons: 646.000000  magneticMoment: [ Abs: 0.00091  Tot: +0.00031 ]
LCAOMinimize: Iter:  13  F: -6846.4099987783056349  |grad|_K:  3.952e-03  alpha:  4.138e-02  linmin:  1.524e-02  cgtest: -6.877e-01  t[s]:   1961.31
	FillingsUpdate:  mu: +0.740871193  nElectrons: 646.000000  magneticMoment: [ Abs: 0.00092  Tot: +0.00030 ]
LCAOMinimize: Iter:  14  F: -6846.4409374482665953  |grad|_K:  4.054e-03  alpha:  4.039e-04  linmin: -7.061e-03  cgtest:  9.917e-01  t[s]:   2072.42
LCAOMinimize: 	Predicted alpha/alphaT>3.000000, increasing alphaT to 1.211619e-03.
LCAOMinimize: 	Predicted alpha/alphaT>3.000000, increasing alphaT to 3.634857e-03.
LCAOMinimize: 	Predicted alpha/alphaT>3.000000, increasing alphaT to 1.090457e-02.
	FillingsUpdate:  mu: +0.736600752  nElectrons: 646.000000  magneticMoment: [ Abs: 0.00089  Tot: +0.00014 ]
LCAOMinimize: Iter:  15  F: -6848.7657027133291194  |grad|_K:  1.706e-03  alpha:  1.537e-02  linmin: -1.040e-01  cgtest:  6.791e-01  t[s]:   2240.36
LCAOMinimize: Encountered beta<0, resetting CG.
LCAOMinimize: 	Predicted alpha/alphaT>3.000000, increasing alphaT to 4.610959e-02.
	FillingsUpdate:  mu: +1.574167130  nElectrons: 646.000000  magneticMoment: [ Abs: 0.00106  Tot: +0.00010 ]
LCAOMinimize: Iter:  16  F: -6849.9722864068453418  |grad|_K:  4.890e-03  alpha:  1.117e-01  linmin:  1.479e-02  cgtest: -1.753e-01  t[s]:   2379.94
	FillingsUpdate:  mu: +1.585914434  nElectrons: 646.000000  magneticMoment: [ Abs: 0.00107  Tot: +0.00009 ]
LCAOMinimize: Iter:  17  F: -6849.9804669945306159  |grad|_K:  4.932e-03  alpha:  1.903e-04  linmin: -1.980e-03  cgtest:  9.986e-01  t[s]:   2491.16
LCAOMinimize: 	Predicted alpha/alphaT>3.000000, increasing alphaT to 5.709407e-04.
LCAOMinimize: 	Predicted alpha/alphaT>3.000000, increasing alphaT to 1.712822e-03.
LCAOMinimize: 	Predicted alpha/alphaT>3.000000, increasing alphaT to 5.138466e-03.
	FillingsUpdate:  mu: +0.884186568  nElectrons: 646.000000  magneticMoment: [ Abs: 0.00111  Tot: +0.00001 ]
LCAOMinimize: Iter:  18  F: -6852.6481983857083833  |grad|_K:  1.593e-03  alpha:  1.543e-02  linmin:  2.008e-02  cgtest: -2.106e-01  t[s]:   2659.16
LCAOMinimize: 	Predicted alpha/alphaT>3.000000, increasing alphaT to 4.629105e-02.
	FillingsUpdate:  mu: +0.276030730  nElectrons: 646.000000  magneticMoment: [ Abs: 0.00152  Tot: -0.00007 ]
LCAOMinimize: Iter:  19  F: -6853.4158021816183464  |grad|_K:  3.527e-03  alpha:  1.028e-01  linmin:  4.646e-02  cgtest:  4.014e-02  t[s]:   2798.55
LCAOMinimize: 	Bad step direction: g.d > 0.
LCAOMinimize: 	Undoing step.
LCAOMinimize: 	Step failed: resetting search direction.
	FillingsUpdate:  mu: +0.276030730  nElectrons: 646.000000  magneticMoment: [ Abs: 0.00152  Tot: -0.00007 ]
LCAOMinimize: Iter:  20  F: -6853.4158021816183464  |grad|_K:  3.527e-03  alpha:  0.000e+00
	FillingsUpdate:  mu: +0.374134262  nElectrons: 646.000000  magneticMoment: [ Abs: 0.00149  Tot: -0.00004 ]
LCAOMinimize: Iter:  21  F: -6854.5568219870974644  |grad|_K:  2.418e-03  alpha:  7.795e-03  linmin: -9.852e-02  cgtest:  9.406e-01  t[s]:   2992.98
LCAOMinimize: Encountered beta<0, resetting CG.
LCAOMinimize: 	Predicted alpha/alphaT>3.000000, increasing alphaT to 2.338411e-02.
	FillingsUpdate:  mu: +0.632261104  nElectrons: 646.000000  magneticMoment: [ Abs: 0.00152  Tot: +0.00004 ]
LCAOMinimize: Iter:  22  F: -6855.7240107052639360  |grad|_K:  1.406e-03  alpha:  2.871e-02  linmin:  7.936e-03  cgtest: -1.651e-01  t[s]:   3132.68
	FillingsUpdate:  mu: +0.701442196  nElectrons: 646.000000  magneticMoment: [ Abs: 0.00158  Tot: +0.00004 ]
LCAOMinimize: Iter:  23  F: -6855.9902601587800746  |grad|_K:  1.363e-03  alpha:  1.980e-02  linmin:  2.925e-04  cgtest:  1.314e-01  t[s]:   3244.45
LCAOMinimize: 	Predicted alpha/alphaT>3.000000, increasing alphaT to 5.941302e-02.
LCAOMinimize: 	Step increased F by 2.964132e+01, reducing alpha to 1.666444e-02.
	FillingsUpdate:  mu: +0.647400538  nElectrons: 646.000000  magneticMoment: [ Abs: 0.00167  Tot: +0.00004 ]
LCAOMinimize: Iter:  24  F: -6856.4135860194401175  |grad|_K:  1.275e-03  alpha:  1.666e-02  linmin: -8.037e-02  cgtest:  9.636e-01  t[s]:   3468.97
LCAOMinimize: Encountered beta<0, resetting CG.
	FillingsUpdate:  mu: +0.539848810  nElectrons: 646.000000  magneticMoment: [ Abs: 0.00173  Tot: +0.00003 ]
LCAOMinimize: Iter:  25  F: -6856.6548178594766796  |grad|_K:  1.304e-03  alpha:  2.166e-02  linmin:  1.031e-02  cgtest: -8.369e-02  t[s]:   3580.47
	FillingsUpdate:  mu: +0.344808051  nElectrons: 646.000000  magneticMoment: [ Abs: 0.00187  Tot: +0.00001 ]
LCAOMinimize: Iter:  26  F: -6856.9681517303597502  |grad|_K:  1.419e-03  alpha:  2.934e-02  linmin:  3.299e-03  cgtest:  2.807e-01  t[s]:   3692.30
	FillingsUpdate:  mu: +0.718055278  nElectrons: 646.000000  magneticMoment: [ Abs: 0.00226  Tot: -0.00009 ]
LCAOMinimize: Iter:  27  F: -6857.2336592668698358  |grad|_K:  3.298e-03  alpha:  4.586e-02  linmin:  4.504e-02  cgtest: -2.493e-01  t[s]:   3804.38
LCAOMinimize: 	Bad step direction: g.d > 0.
LCAOMinimize: 	Undoing step.
LCAOMinimize: 	Step failed: resetting search direction.
	FillingsUpdate:  mu: +0.718055278  nElectrons: 646.000000  magneticMoment: [ Abs: 0.00226  Tot: -0.00009 ]
LCAOMinimize: Iter:  28  F: -6857.2336592668698358  |grad|_K:  3.298e-03  alpha:  0.000e+00
	FillingsUpdate:  mu: +0.428825725  nElectrons: 646.000000  magneticMoment: [ Abs: 0.00224  Tot: -0.00006 ]
LCAOMinimize: Iter:  29  F: -6857.6956185650915359  |grad|_K:  1.170e-03  alpha:  8.488e-03  linmin:  6.452e-02  cgtest: -6.045e-01  t[s]:   3998.82
	FillingsUpdate:  mu: +0.349884762  nElectrons: 646.000000  magneticMoment: [ Abs: 0.00222  Tot: -0.00003 ]
LCAOMinimize: Iter:  30  F: -6857.7575904884934062  |grad|_K:  9.612e-04  alpha:  1.348e-02  linmin: -5.942e-03  cgtest:  8.355e-01  t[s]:   4110.62
LCAOMinimize: Encountered beta<0, resetting CG.
LCAOMinimize: None of the convergence criteria satisfied after 30 iterations.


---- Citations for features of the code used in this run ----

   Software package:
      R. Sundararaman, K. Letchworth-Weaver, K.A. Schwarz, D. Gunceler, Y. Ozhabes and T.A. Arias, 'JDFTx: software for joint density-functional theory', SoftwareX 6, 278 (2017)

   gga-PBE exchange-correlation functional:
      J.P. Perdew, K. Burke and M. Ernzerhof, Phys. Rev. Lett. 77, 3865 (1996)

   Pseudopotentials:
      KF Garrity, JW Bennett, KM Rabe and D Vanderbilt, Comput. Mater. Sci. 81, 446 (2014)

   DFT-D3 dispersion correction:
      S. Grimme, J. Antony, S. Ehrlich and H. Krieg, J. Chem. Phys. 132, 154104 (2010)

   Total energy minimization with Auxiliary Hamiltonian:
      C. Freysoldt, S. Boeck, and J. Neugebauer, Phys. Rev. B 79, 241103(R) (2009)

   Linear-tetrahedron sampling for density of states:
      G. Lehmann and M. Taut, Phys. status solidi (b) 54, 469 (1972)

This list may not be complete. Please suggest additional citations or
report any other bugs at https://github.com/shankar1729/jdftx/issues

Initialization completed successfully at t[s]:   4142.21


Computing DFT-D3 correction:
# coordination-number Cu 6.829 9.125 5.330 6.839 9.150 9.160 9.161 9.156 9.160 9.161 9.160 9.151 9.161 9.159 9.149 6.833 7.625 9.149 9.159 7.625 9.151 9.160 9.161 9.156 9.161 9.161 9.160 9.149 6.838 9.160 9.124 6.830 6.833 5.330
# diagonal-C6 Cu 175.00 175.00 175.00 175.00 175.00 175.00 175.00 175.00 175.00 175.00 175.00 175.00 175.00 175.00 175.00 175.00 175.00 175.00 175.00 175.00 175.00 175.00 175.00 175.00 175.00 175.00 175.00 175.00 175.00 175.00 175.00 175.00 175.00 175.00
EvdW_6 =   -0.219447
EvdW_8 =   -0.319260

-------- Electronic minimization -----------
	FillingsUpdate:  mu: +0.350295393  nElectrons: 646.000000  magneticMoment: [ Abs: 0.00222  Tot: -0.00003 ]
ElecMinimize: Iter:   0  F: -6857.757590488494316  |grad|_K:  1.909e-04  alpha:  1.000e+00
	FillingsUpdate:  mu: +0.415533436  nElectrons: 646.000000  magneticMoment: [ Abs: 0.00222  Tot: -0.00003 ]
	SubspaceRotationAdjust: set factor to 0.765
ElecMinimize: Iter:   1  F: -6858.613519808208366  |grad|_K:  1.965e-04  alpha:  1.838e-02  linmin: -5.847e-04  t[s]:   4459.92
	FillingsUpdate:  mu: +0.281287194  nElectrons: 646.000000  magneticMoment: [ Abs: 0.00217  Tot: -0.00004 ]
	SubspaceRotationAdjust: set factor to 0.379
ElecMinimize: Iter:   2  F: -6860.179737240795475  |grad|_K:  1.416e-04  alpha:  3.240e-02  linmin:  1.283e-04  t[s]:   4664.88
	FillingsUpdate:  mu: +0.077844093  nElectrons: 646.000000  magneticMoment: [ Abs: 0.00212  Tot: -0.00004 ]
	SubspaceRotationAdjust: set factor to 0.23
ElecMinimize: Iter:   3  F: -6860.442492458046218  |grad|_K:  6.532e-05  alpha:  1.500e-02  linmin:  2.530e-05  t[s]:   4868.96
ElecMinimize: 	Predicted alpha/alphaT>3.000000, increasing alphaT to 4.500271e-02.
ElecMinimize: 	Predicted alpha/alphaT>3.000000, increasing alphaT to 1.350081e-01.
	FillingsUpdate:  mu: +0.060759239  nElectrons: 646.000000  magneticMoment: [ Abs: 0.00168  Tot: -0.00002 ]
	SubspaceRotationAdjust: set factor to 0.223
ElecMinimize: Iter:   4  F: -6861.262063409732036  |grad|_K:  8.766e-05  alpha:  2.037e-01  linmin: -2.599e-05  t[s]:   5175.40
	FillingsUpdate:  mu: +0.232218487  nElectrons: 646.000000  magneticMoment: [ Abs: 0.00128  Tot: -0.00004 ]
	SubspaceRotationAdjust: set factor to 0.165
ElecMinimize: Iter:   5  F: -6862.189091287248630  |grad|_K:  6.386e-05  alpha:  1.251e-01  linmin:  3.003e-06  t[s]:   5380.09
	FillingsUpdate:  mu: +0.135881295  nElectrons: 646.000000  magneticMoment: [ Abs: 0.00116  Tot: -0.00004 ]
	SubspaceRotationAdjust: set factor to 0.107
	SubspaceRotationAdjust: resetting CG because factor has changed by 0.106954
ElecMinimize: 	State modified externally: resetting search direction.
ElecMinimize: Iter:   6  F: -6862.410823465774229  |grad|_K:  3.570e-05  alpha:  5.972e-02
	FillingsUpdate:  mu: +0.108319385  nElectrons: 646.000000  magneticMoment: [ Abs: 0.00110  Tot: -0.00004 ]
	SubspaceRotationAdjust: set factor to 0.154
ElecMinimize: Iter:   7  F: -6862.566738066110702  |grad|_K:  2.529e-05  alpha:  1.304e-01  linmin: -5.077e-06  t[s]:   5887.54
	FillingsUpdate:  mu: +0.089423151  nElectrons: 646.000000  magneticMoment: [ Abs: 0.00106  Tot: -0.00003 ]
	SubspaceRotationAdjust: set factor to 0.174
ElecMinimize: Iter:   8  F: -6862.682335583079293  |grad|_K:  1.537e-05  alpha:  1.922e-01  linmin: -1.984e-05  t[s]:   6092.02
	FillingsUpdate:  mu: +0.097820231  nElectrons: 646.000000  magneticMoment: [ Abs: 0.00092  Tot: -0.00003 ]
	SubspaceRotationAdjust: set factor to 0.194
ElecMinimize: Iter:   9  F: -6862.736600043832368  |grad|_K:  2.021e-05  alpha:  2.433e-01  linmin: -4.502e-06  t[s]:   6297.29
	FillingsUpdate:  mu: +0.108398293  nElectrons: 646.000000  magneticMoment: [ Abs: 0.00077  Tot: -0.00002 ]
	SubspaceRotationAdjust: set factor to 0.167
ElecMinimize: Iter:  10  F: -6862.812520240485355  |grad|_K:  2.029e-05  alpha:  1.982e-01  linmin: -5.108e-06  t[s]:   6502.15
	FillingsUpdate:  mu: +0.097059256  nElectrons: 646.000000  magneticMoment: [ Abs: 0.00070  Tot: -0.00002 ]
	SubspaceRotationAdjust: set factor to 0.125
ElecMinimize: Iter:  11  F: -6862.861456081739561  |grad|_K:  1.903e-05  alpha:  1.283e-01  linmin:  6.225e-07  t[s]:   6706.55
	FillingsUpdate:  mu: +0.100235891  nElectrons: 646.000000  magneticMoment: [ Abs: 0.00063  Tot: -0.00000 ]
	SubspaceRotationAdjust: set factor to 0.132
ElecMinimize: Iter:  12  F: -6862.947554561510515  |grad|_K:  1.517e-05  alpha:  2.512e-01  linmin: -8.927e-06  t[s]:   6910.87
	FillingsUpdate:  mu: +0.100930378  nElectrons: 646.000000  magneticMoment: [ Abs: 0.00064  Tot: +0.00001 ]
	SubspaceRotationAdjust: set factor to 0.134
ElecMinimize: Iter:  13  F: -6862.984629510285231  |grad|_K:  1.279e-05  alpha:  1.680e-01  linmin:  3.223e-08  t[s]:   7116.02
	FillingsUpdate:  mu: +0.102257533  nElectrons: 646.000000  magneticMoment: [ Abs: 0.00063  Tot: +0.00002 ]
	SubspaceRotationAdjust: set factor to 0.136
ElecMinimize: Iter:  14  F: -6863.016202107193749  |grad|_K:  7.695e-06  alpha:  2.058e-01  linmin: -9.902e-08  t[s]:   7321.18
	FillingsUpdate:  mu: +0.103015766  nElectrons: 646.000000  magneticMoment: [ Abs: 0.00058  Tot: +0.00002 ]
	SubspaceRotationAdjust: set factor to 0.141
ElecMinimize: Iter:  15  F: -6863.024993276837449  |grad|_K:  6.271e-06  alpha:  1.583e-01  linmin: -9.432e-08  t[s]:   7525.65
	FillingsUpdate:  mu: +0.098047051  nElectrons: 646.000000  magneticMoment: [ Abs: 0.00050  Tot: +0.00002 ]
	SubspaceRotationAdjust: set factor to 0.144
ElecMinimize: Iter:  16  F: -6863.033374930675564  |grad|_K:  5.211e-06  alpha:  2.273e-01  linmin:  1.584e-07  t[s]:   7730.06
	FillingsUpdate:  mu: +0.097738256  nElectrons: 646.000000  magneticMoment: [ Abs: 0.00045  Tot: +0.00002 ]
	SubspaceRotationAdjust: set factor to 0.153
ElecMinimize: Iter:  17  F: -6863.036950305913706  |grad|_K:  3.837e-06  alpha:  1.404e-01  linmin: -2.160e-08  t[s]:   7935.20
	FillingsUpdate:  mu: +0.100442356  nElectrons: 646.000000  magneticMoment: [ Abs: 0.00038  Tot: +0.00002 ]
	SubspaceRotationAdjust: set factor to 0.16
ElecMinimize: Iter:  18  F: -6863.040490093255357  |grad|_K:  3.694e-06  alpha:  2.564e-01  linmin: -1.669e-07  t[s]:   8139.55
	FillingsUpdate:  mu: +0.099719349  nElectrons: 646.000000  magneticMoment: [ Abs: 0.00035  Tot: +0.00002 ]
	SubspaceRotationAdjust: set factor to 0.18
ElecMinimize: Iter:  19  F: -6863.042134571835049  |grad|_K:  2.164e-06  alpha:  1.284e-01  linmin: -5.129e-08  t[s]:   8345.51
	FillingsUpdate:  mu: +0.098604847  nElectrons: 646.000000  magneticMoment: [ Abs: 0.00031  Tot: +0.00002 ]
	SubspaceRotationAdjust: set factor to 0.209
ElecMinimize: Iter:  20  F: -6863.043185208745854  |grad|_K:  2.079e-06  alpha:  2.392e-01  linmin:  1.034e-07  t[s]:   8550.96
	FillingsUpdate:  mu: +0.098254404  nElectrons: 646.000000  magneticMoment: [ Abs: 0.00028  Tot: +0.00001 ]
	SubspaceRotationAdjust: set factor to 0.252
ElecMinimize: Iter:  21  F: -6863.043832358735017  |grad|_K:  1.746e-06  alpha:  1.596e-01  linmin: -7.444e-09  t[s]:   8755.51
	FillingsUpdate:  mu: +0.097519978  nElectrons: 646.000000  magneticMoment: [ Abs: 0.00024  Tot: +0.00001 ]
	SubspaceRotationAdjust: set factor to 0.271
ElecMinimize: Iter:  22  F: -6863.044583963306650  |grad|_K:  2.054e-06  alpha:  2.630e-01  linmin:  1.796e-07  t[s]:   8960.39
	FillingsUpdate:  mu: +0.096857300  nElectrons: 646.000000  magneticMoment: [ Abs: 0.00022  Tot: +0.00001 ]
	SubspaceRotationAdjust: set factor to 0.229
ElecMinimize: Iter:  23  F: -6863.045083594583048  |grad|_K:  1.789e-06  alpha:  1.262e-01  linmin: -2.345e-07  t[s]:   9165.21
	FillingsUpdate:  mu: +0.095746043  nElectrons: 646.000000  magneticMoment: [ Abs: 0.00020  Tot: +0.00001 ]
	SubspaceRotationAdjust: set factor to 0.179
ElecMinimize: Iter:  24  F: -6863.045422559182953  |grad|_K:  1.700e-06  alpha:  1.128e-01  linmin:  1.257e-07  t[s]:   9370.12
	FillingsUpdate:  mu: +0.092956294  nElectrons: 646.000000  magneticMoment: [ Abs: 0.00017  Tot: +0.00001 ]
	SubspaceRotationAdjust: set factor to 0.188
ElecMinimize: Iter:  25  F: -6863.045954879739838  |grad|_K:  1.344e-06  alpha:  1.970e-01  linmin:  6.123e-07  t[s]:   9576.22
	FillingsUpdate:  mu: +0.092079266  nElectrons: 646.000000  magneticMoment: [ Abs: 0.00015  Tot: +0.00001 ]
	SubspaceRotationAdjust: set factor to 0.199
ElecMinimize: Iter:  26  F: -6863.046174642194273  |grad|_K:  9.836e-07  alpha:  1.303e-01  linmin: -2.068e-09  t[s]:   9781.00
	FillingsUpdate:  mu: +0.092651464  nElectrons: 646.000000  magneticMoment: [ Abs: 0.00013  Tot: +0.00001 ]
	SubspaceRotationAdjust: set factor to 0.176
ElecMinimize: Iter:  27  F: -6863.046358361309103  |grad|_K:  1.101e-06  alpha:  2.025e-01  linmin:  9.945e-08  t[s]:   9985.49
	FillingsUpdate:  mu: +0.093079318  nElectrons: 646.000000  magneticMoment: [ Abs: 0.00011  Tot: +0.00001 ]
	SubspaceRotationAdjust: set factor to 0.147
ElecMinimize: Iter:  28  F: -6863.046491908662574  |grad|_K:  6.912e-07  alpha:  1.175e-01  linmin: -1.815e-08  t[s]:  10190.50
	FillingsUpdate:  mu: +0.092804117  nElectrons: 646.000000  magneticMoment: [ Abs: 0.00009  Tot: +0.00001 ]
	SubspaceRotationAdjust: set factor to 0.157
ElecMinimize: Iter:  29  F: -6863.046577747719311  |grad|_K:  6.885e-07  alpha:  1.916e-01  linmin:  3.461e-08  t[s]:  10396.39
	FillingsUpdate:  mu: +0.092672976  nElectrons: 646.000000  magneticMoment: [ Abs: 0.00007  Tot: +0.00001 ]
	SubspaceRotationAdjust: set factor to 0.16
ElecMinimize: Iter:  30  F: -6863.046645334891764  |grad|_K:  4.734e-07  alpha:  1.521e-01  linmin:  3.112e-09  t[s]:  10600.82
	FillingsUpdate:  mu: +0.093068252  nElectrons: 646.000000  magneticMoment: [ Abs: 0.00006  Tot: +0.00001 ]
	SubspaceRotationAdjust: set factor to 0.155
ElecMinimize: Iter:  31  F: -6863.046674920422447  |grad|_K:  3.802e-07  alpha:  1.408e-01  linmin:  4.786e-09  t[s]:  10806.38
	FillingsUpdate:  mu: +0.093580657  nElectrons: 646.000000  magneticMoment: [ Abs: 0.00005  Tot: +0.00001 ]
	SubspaceRotationAdjust: set factor to 0.17
ElecMinimize: Iter:  32  F: -6863.046699937878657  |grad|_K:  2.940e-07  alpha:  1.846e-01  linmin:  6.460e-08  t[s]:  11010.89
	FillingsUpdate:  mu: +0.093569294  nElectrons: 646.000000  magneticMoment: [ Abs: 0.00004  Tot: +0.00001 ]
	SubspaceRotationAdjust: set factor to 0.193
ElecMinimize: Iter:  33  F: -6863.046711926927856  |grad|_K:  2.557e-07  alpha:  1.479e-01  linmin:  6.679e-08  t[s]:  11216.15
	FillingsUpdate:  mu: +0.093369532  nElectrons: 646.000000  magneticMoment: [ Abs: 0.00004  Tot: +0.00001 ]
	SubspaceRotationAdjust: set factor to 0.199
ElecMinimize: Iter:  34  F: -6863.046723540727726  |grad|_K:  2.289e-07  alpha:  1.893e-01  linmin: -1.043e-07  t[s]:  11420.46
	FillingsUpdate:  mu: +0.093426887  nElectrons: 646.000000  magneticMoment: [ Abs: 0.00004  Tot: +0.00001 ]
	SubspaceRotationAdjust: set factor to 0.212
ElecMinimize: Iter:  35  F: -6863.046730192763789  |grad|_K:  1.830e-07  alpha:  1.354e-01  linmin: -1.184e-07  t[s]:  11625.40
	FillingsUpdate:  mu: +0.093809531  nElectrons: 646.000000  magneticMoment: [ Abs: 0.00004  Tot: +0.00001 ]
	SubspaceRotationAdjust: set factor to 0.217
ElecMinimize: Iter:  36  F: -6863.046736929680264  |grad|_K:  1.907e-07  alpha:  2.148e-01  linmin:  4.107e-07  t[s]:  11830.52
	FillingsUpdate:  mu: +0.094030505  nElectrons: 646.000000  magneticMoment: [ Abs: 0.00004  Tot: +0.00000 ]
	SubspaceRotationAdjust: set factor to 0.241
ElecMinimize: Iter:  37  F: -6863.046741522415687  |grad|_K:  1.375e-07  alpha:  1.349e-01  linmin:  1.807e-07  t[s]:  12034.83
	FillingsUpdate:  mu: +0.094001399  nElectrons: 646.000000  magneticMoment: [ Abs: 0.00003  Tot: +0.00000 ]
	SubspaceRotationAdjust: set factor to 0.252
ElecMinimize: Iter:  38  F: -6863.046745109852054  |grad|_K:  1.368e-07  alpha:  2.022e-01  linmin: -4.129e-08  t[s]:  12240.11
	FillingsUpdate:  mu: +0.094037198  nElectrons: 646.000000  magneticMoment: [ Abs: 0.00003  Tot: +0.00000 ]
	SubspaceRotationAdjust: set factor to 0.28
ElecMinimize: Iter:  39  F: -6863.046747979129577  |grad|_K:  1.016e-07  alpha:  1.633e-01  linmin: -1.264e-07  t[s]:  12445.52
	FillingsUpdate:  mu: +0.094225729  nElectrons: 646.000000  magneticMoment: [ Abs: 0.00003  Tot: +0.00000 ]
	SubspaceRotationAdjust: set factor to 0.302
ElecMinimize: Iter:  40  F: -6863.046749480780818  |grad|_K:  8.572e-08  alpha:  1.551e-01  linmin: -4.006e-07  t[s]:  12649.72
	FillingsUpdate:  mu: +0.094342714  nElectrons: 646.000000  magneticMoment: [ Abs: 0.00002  Tot: +0.00000 ]
	SubspaceRotationAdjust: set factor to 0.343
ElecMinimize: Iter:  41  F: -6863.046750669337598  |grad|_K:  7.381e-08  alpha:  1.722e-01  linmin:  2.099e-07  t[s]:  12855.33
	FillingsUpdate:  mu: +0.094227864  nElectrons: 646.000000  magneticMoment: [ Abs: 0.00002  Tot: +0.00000 ]
	SubspaceRotationAdjust: set factor to 0.346
ElecMinimize: Iter:  42  F: -6863.046751521947044  |grad|_K:  7.547e-08  alpha:  1.671e-01  linmin:  1.606e-07  t[s]:  13060.27
	FillingsUpdate:  mu: +0.094167300  nElectrons: 646.000000  magneticMoment: [ Abs: 0.00002  Tot: +0.00000 ]
	SubspaceRotationAdjust: set factor to 0.277
ElecMinimize: Iter:  43  F: -6863.046752067419220  |grad|_K:  8.186e-08  alpha:  1.021e-01  linmin: -3.256e-08  t[s]:  13265.21
	FillingsUpdate:  mu: +0.094183122  nElectrons: 646.000000  magneticMoment: [ Abs: 0.00001  Tot: +0.00000 ]
	SubspaceRotationAdjust: set factor to 0.248
ElecMinimize: Iter:  44  F: -6863.046752605925576  |grad|_K:  5.587e-08  alpha:  8.583e-02  linmin: -2.186e-07  t[s]:  13470.14
	FillingsUpdate:  mu: +0.094280710  nElectrons: 646.000000  magneticMoment: [ Abs: 0.00001  Tot: +0.00000 ]
	SubspaceRotationAdjust: set factor to 0.276
ElecMinimize: Iter:  45  F: -6863.046753021368204  |grad|_K:  4.188e-08  alpha:  1.420e-01  linmin:  1.765e-07  t[s]:  13675.04
	FillingsUpdate:  mu: +0.094301069  nElectrons: 646.000000  magneticMoment: [ Abs: 0.00001  Tot: +0.00000 ]
	SubspaceRotationAdjust: set factor to 0.293
ElecMinimize: Iter:  46  F: -6863.046753286246712  |grad|_K:  4.191e-08  alpha:  1.620e-01  linmin:  1.529e-06  t[s]:  13878.86
	FillingsUpdate:  mu: +0.094260275  nElectrons: 646.000000  magneticMoment: [ Abs: 0.00001  Tot: +0.00000 ]
	SubspaceRotationAdjust: set factor to 0.235
ElecMinimize: Iter:  47  F: -6863.046753452828852  |grad|_K:  3.867e-08  alpha:  1.021e-01  linmin: -8.403e-08  t[s]:  14084.33
	FillingsUpdate:  mu: +0.094203560  nElectrons: 646.000000  magneticMoment: [ Abs: 0.00001  Tot: +0.00000 ]
	SubspaceRotationAdjust: set factor to 0.203
ElecMinimize: Iter:  48  F: -6863.046753601545788  |grad|_K:  2.899e-08  alpha:  1.058e-01  linmin: -7.201e-07  t[s]:  14288.67
	FillingsUpdate:  mu: +0.094196184  nElectrons: 646.000000  magneticMoment: [ Abs: 0.00001  Tot: +0.00000 ]
	SubspaceRotationAdjust: set factor to 0.243
ElecMinimize: Iter:  49  F: -6863.046753740220993  |grad|_K:  2.643e-08  alpha:  1.756e-01  linmin:  1.082e-07  t[s]:  14493.11
	FillingsUpdate:  mu: +0.094219157  nElectrons: 646.000000  magneticMoment: [ Abs: 0.00001  Tot: +0.00000 ]
	SubspaceRotationAdjust: set factor to 0.23
ElecMinimize: Iter:  50  F: -6863.046753834762058  |grad|_K:  2.162e-08  alpha:  1.449e-01  linmin:  9.946e-07  t[s]:  14698.58
	FillingsUpdate:  mu: +0.094222527  nElectrons: 646.000000  magneticMoment: [ Abs: 0.00001  Tot: +0.00000 ]
	SubspaceRotationAdjust: set factor to 0.182
ElecMinimize: Iter:  51  F: -6863.046753882138546  |grad|_K:  1.925e-08  alpha:  1.108e-01  linmin:  2.647e-07  t[s]:  14903.57
ElecMinimize: Converged (|Delta F|<1.000000e-07 for 2 iters).
Setting wave functions to eigenvectors of Hamiltonian
Converging empty states (this may take a while): |deigs|: 1.955e-02

Computing DFT-D3 correction:
# coordination-number Cu 6.829 9.125 5.330 6.839 9.150 9.160 9.161 9.156 9.160 9.161 9.160 9.151 9.161 9.159 9.149 6.833 7.625 9.149 9.159 7.625 9.151 9.160 9.161 9.156 9.161 9.161 9.160 9.149 6.838 9.160 9.124 6.830 6.833 5.330
# diagonal-C6 Cu 175.00 175.00 175.00 175.00 175.00 175.00 175.00 175.00 175.00 175.00 175.00 175.00 175.00 175.00 175.00 175.00 175.00 175.00 175.00 175.00 175.00 175.00 175.00 175.00 175.00 175.00 175.00 175.00 175.00 175.00 175.00 175.00 175.00 175.00
EvdW_6 =   -0.219447
EvdW_8 =   -0.319260

# Ionic positions in cartesian coordinates:
ion Cu   0.000000000000000  11.560753999999998   1.226214000000000 1
ion Cu   0.000000000000000  15.028989999999999   4.496115999999999 1
ion Cu   0.000000000000000   0.000000000000000  27.385186000000001 1
ion Cu   0.000000000000000   3.468236000000000   2.861165000000000 1
ion Cu   0.000000000000000   6.936451999999999   6.130983999999999 1
ion Cu   0.000000000000000  10.404687999999998   9.400886999999999 1
ion Cu   0.000000000000000  17.341140999999997  15.940609999999996 1
ion Cu   0.000000000000000  18.497205999999995   7.765935999999999 1
ion Cu   0.000000000000000   2.312151000000000  11.035838999999999 1
ion Cu   0.000000000000000   5.780386999999998  14.305741999999999 1
ion Cu   0.000000000000000   9.248602999999997  17.575560999999997 1
ion Cu   0.000000000000000  12.716838999999998  20.845463999999996 1
ion Cu   0.000000000000000  13.872904999999996  12.670789999999998 1
ion Cu   0.000000000000000   1.156085000000000  19.210512999999995 1
ion Cu   0.000000000000000   4.624301999999999  22.480414999999997 1
ion Cu   0.000000000000000   8.092537999999998  25.750317999999996 1
ion Cu   0.000000000000000  16.185055999999996  24.115366999999996 1
ion Cu   2.383311000000000  10.982730999999998   5.313509000000000 1
ion Cu   2.383311000000000  14.450946999999996   8.583411999999999 1
ion Cu   2.383311000000000  19.075248999999996   3.678640999999999 1
ion Cu   2.383311000000000   2.890193000000000   6.948459999999999 1
ion Cu   2.383311000000000   6.358409999999999  10.218362999999998 1
ion Cu   2.383311000000000   9.826645999999998  13.488265999999998 1
ion Cu   2.383311000000000  16.763097999999996  20.027988000000001 1
ion Cu   2.383311000000000  17.919182999999997  11.853315000000000 1
ion Cu   2.383311000000000   1.734108000000000  15.123216999999999 1
ion Cu   2.383311000000000   5.202343999999999  18.393036999999996 1
ion Cu   2.383311000000000   8.670560999999998  21.662939999999999 1
ion Cu   2.383311000000000  12.138796999999999  24.932842999999998 1
ion Cu   2.383311000000000  13.294881999999998  16.758085000000001 1
ion Cu   2.383311000000000   0.578043000000000  23.297890999999996 1
ion Cu   2.383311000000000   4.046258999999999  26.567710999999996 1
ion Cu   2.383311000000000   7.514494999999999   2.043689000000000 1
ion Cu   2.383311000000000  15.607032999999998   0.408738000000000 1

# Forces in Cartesian coordinates:
force Cu  -0.000001632218520  -0.000401804021285  -0.002400220093638 1
force Cu  -0.000001803880879   0.003114609910535  -0.001255394666985 1
force Cu   0.000001376082487   0.001467924813279  -0.005452852646278 1
force Cu  -0.000001221271905  -0.000692176996626  -0.001380166932981 1
force Cu   0.000000609296204  -0.000003358821911   0.001970007796625 1
force Cu   0.000000610344959  -0.000720574150871   0.000533015716093 1
force Cu  -0.000000659243373   0.000036602597704   0.000206410726360 1
force Cu  -0.000001528029761  -0.000489799622175   0.001953602717382 1
force Cu   0.000000625167247  -0.000363164893853   0.000228875231205 1
force Cu   0.000001349884485   0.000209517339517  -0.000110284272893 1
force Cu  -0.000000229337378   0.000206104559012   0.000244411849418 1
force Cu   0.000000185115921   0.000677648951264  -0.001250318968973 1
force Cu   0.000000127575732  -0.000084551724389  -0.000148605672206 1
force Cu  -0.000000640835307   0.000460371634822   0.000096860708187 1
force Cu   0.000000704002040   0.000483297573584  -0.002412807660982 1
force Cu   0.000005317242193   0.000274107431108   0.001241860769068 1
force Cu  -0.000000915196339  -0.002264572493831   0.005410455132205 1
force Cu  -0.000001948077549  -0.000307169344927   0.002527406644521 1
force Cu  -0.000000066664695  -0.000295440926266   0.000011871543391 1
force Cu  -0.000000398965639   0.002400766643009  -0.005295813974226 1
force Cu  -0.000001601212383  -0.000533417254768   0.001376133918091 1
force Cu  -0.000000667537991  -0.000087336087630  -0.000084036054780 1
force Cu   0.000000130388518  -0.000170937974250   0.000294618539894 1
force Cu   0.000002806040044   0.000291989425989  -0.001834135807232 1
force Cu   0.000003342778526   0.000054478535917  -0.000086275150765 1
force Cu   0.000000156820639   0.000069158431496   0.000271065138330 1
force Cu  -0.000001100068744   0.000567140484136  -0.000378408397808 1
force Cu   0.000000320398180  -0.000175228907436  -0.001867703484432 1
force Cu   0.000003450459368   0.000596362464089   0.001513220586036 1
force Cu  -0.000000362317959   0.000236063452970  -0.000088358062942 1
force Cu   0.000001129790981  -0.003239649481098   0.001343030523607 1
force Cu   0.000000535835764   0.000389976756469   0.002526839100371 1
force Cu  -0.000001187290743  -0.000163824114088  -0.001149135512436 1
force Cu  -0.000000308674126  -0.001478961338098   0.005631562039935 1

# Energy components:
   Eewald =    82423.0177314409811515
       EH =    88697.2147478127881186
     Eloc =  -179271.3392130438005552
      Enl =     1245.1596231460030140
     EvdW =       -0.5387067686339196
      Exc =     -659.8911899162487771
 Exc_core =        1.5969607206831944
       KE =      701.7345041699684316
-------------------------------------
     Etot =    -6863.0455424382453202
       TS =        0.0012114438929899
-------------------------------------
        F =    -6863.0467538821385460


Dumping 'jdft.fillings' ... done
Dumping 'jdft.wfns' ... done
Dumping 'jdft.ionpos' ... done
Dumping 'jdft.lattice' ... done
Dumping 'jdft.eigenvals' ... done
Dumping 'jdft.eigStats' ... 
	eMin: -4.045430 at state 0 ( [ +0.000000 +0.000000 +0.000000 ] spin 1 )
	HOMO: +0.093314 at state 44 ( [ +0.166667 -0.333333 +0.000000 ] spin -1 )
	mu  : +0.094223
	LUMO: +0.094473 at state 58 ( [ -0.416667 +0.333333 +0.000000 ] spin -1 )
	eMax: +0.474688 at state 18 ( [ +0.500000 +0.000000 +0.000000 ] spin 1 )
	HOMO-LUMO gap: +0.001159
	Optical gap  : +0.003015 at state 66 ( [ -0.166667 +0.000000 +0.000000 ] spin -1 )
Dumping 'jdft.Ecomponents' ... done
IonicMinimize: Iter:   0  F: -6863.046753882138546  |grad|_K:  1.441e-03  t[s]:  15945.11

#--- Lowdin population analysis ---
# oxidation-state Cu +0.087 +0.041 +0.185 +0.116 +0.062 +0.075 +0.077 +0.071 +0.075 +0.078 +0.075 +0.066 +0.077 +0.076 +0.063 +0.109 +0.065 +0.062 +0.075 +0.064 +0.065 +0.075 +0.078 +0.071 +0.077 +0.077 +0.075 +0.063 +0.117 +0.075 +0.042 +0.089 +0.108 +0.184
# magnetic-moments Cu +0.000 +0.000 +0.000 +0.000 +0.000 +0.000 +0.000 +0.000 +0.000 +0.000 +0.000 +0.000 +0.000 +0.000 +0.000 +0.000 +0.000 +0.000 +0.000 +0.000 +0.000 +0.000 +0.000 +0.000 +0.000 +0.000 +0.000 +0.000 +0.000 +0.000 -0.000 +0.000 +0.000 +0.000


Computing DFT-D3 correction:
# coordination-number Cu 6.824 9.124 5.346 6.837 9.147 9.164 9.163 9.151 9.163 9.161 9.164 9.147 9.161 9.158 9.141 6.827 7.622 9.141 9.158 7.622 9.147 9.163 9.162 9.151 9.163 9.161 9.164 9.147 6.837 9.163 9.124 6.824 6.827 5.346
# diagonal-C6 Cu 175.00 175.00 175.00 175.00 175.00 175.00 175.00 175.00 175.00 175.00 175.00 175.00 175.00 175.00 175.00 175.00 175.00 175.00 175.00 175.00 175.00 175.00 175.00 175.00 175.00 175.00 175.00 175.00 175.00 175.00 175.00 175.00 175.00 175.00
EvdW_6 =   -0.219450
EvdW_8 =   -0.319259

-------- Electronic minimization -----------
	FillingsUpdate:  mu: +0.093601539  nElectrons: 646.000000  magneticMoment: [ Abs: 0.00000  Tot: +0.00000 ]
ElecMinimize: Iter:   0  F: -6863.046850877318320  |grad|_K:  9.574e-07  alpha:  1.000e+00
	FillingsUpdate:  mu: +0.093818164  nElectrons: 646.000000  magneticMoment: [ Abs: 0.00000  Tot: +0.00000 ]
	SubspaceRotationAdjust: set factor to 0.102
ElecMinimize: Iter:   1  F: -6863.046901800005799  |grad|_K:  2.497e-07  alpha:  5.908e-02  linmin: -1.247e-04  t[s]:  16325.15
ElecMinimize: 	Predicted alpha/alphaT>3.000000, increasing alphaT to 1.772371e-01.
	FillingsUpdate:  mu: +0.094406687  nElectrons: 646.000000  magneticMoment: [ Abs: 0.00000  Tot: +0.00000 ]
	SubspaceRotationAdjust: set factor to 0.106
ElecMinimize: Iter:   2  F: -6863.046914924020712  |grad|_K:  2.438e-07  alpha:  2.239e-01  linmin:  1.383e-06  t[s]:  16580.57
	FillingsUpdate:  mu: +0.094606646  nElectrons: 646.000000  magneticMoment: [ Abs: 0.00000  Tot: +0.00000 ]
	SubspaceRotationAdjust: set factor to 0.129
ElecMinimize: Iter:   3  F: -6863.046924752494306  |grad|_K:  1.692e-07  alpha:  1.763e-01  linmin:  1.387e-06  t[s]:  16785.76
	FillingsUpdate:  mu: +0.094253448  nElectrons: 646.000000  magneticMoment: [ Abs: 0.00000  Tot: +0.00000 ]
	SubspaceRotationAdjust: set factor to 0.164
ElecMinimize: Iter:   4  F: -6863.046931551264606  |grad|_K:  1.275e-07  alpha:  2.533e-01  linmin: -7.564e-06  t[s]:  16991.80
	FillingsUpdate:  mu: +0.094016331  nElectrons: 646.000000  magneticMoment: [ Abs: 0.00000  Tot: +0.00000 ]
	SubspaceRotationAdjust: set factor to 0.189
ElecMinimize: Iter:   5  F: -6863.046934471929490  |grad|_K:  1.333e-07  alpha:  1.917e-01  linmin: -3.019e-06  t[s]:  17196.61
	FillingsUpdate:  mu: +0.093934740  nElectrons: 646.000000  magneticMoment: [ Abs: 0.00000  Tot: +0.00000 ]
	SubspaceRotationAdjust: set factor to 0.224
ElecMinimize: Iter:   6  F: -6863.046940488091423  |grad|_K:  1.525e-07  alpha:  3.610e-01  linmin:  7.363e-06  t[s]:  17402.72
	FillingsUpdate:  mu: +0.094140211  nElectrons: 646.000000  magneticMoment: [ Abs: 0.00000  Tot: +0.00000 ]
	SubspaceRotationAdjust: set factor to 0.235
ElecMinimize: Iter:   7  F: -6863.046944103075475  |grad|_K:  1.400e-07  alpha:  1.661e-01  linmin:  7.324e-07  t[s]:  17607.57
	FillingsUpdate:  mu: +0.094372956  nElectrons: 646.000000  magneticMoment: [ Abs: 0.00000  Tot: +0.00000 ]
	SubspaceRotationAdjust: set factor to 0.2
ElecMinimize: Iter:   8  F: -6863.046947470314080  |grad|_K:  1.444e-07  alpha:  1.833e-01  linmin:  5.744e-07  t[s]:  17812.71
	FillingsUpdate:  mu: +0.094364350  nElectrons: 646.000000  magneticMoment: [ Abs: 0.00000  Tot: +0.00000 ]
	SubspaceRotationAdjust: set factor to 0.168
ElecMinimize: Iter:   9  F: -6863.046949977738223  |grad|_K:  1.272e-07  alpha:  1.283e-01  linmin: -7.039e-07  t[s]:  18017.95
	FillingsUpdate:  mu: +0.094124159  nElectrons: 646.000000  magneticMoment: [ Abs: 0.00000  Tot: +0.00000 ]
	SubspaceRotationAdjust: set factor to 0.156
ElecMinimize: Iter:  10  F: -6863.046953080899584  |grad|_K:  1.218e-07  alpha:  2.042e-01  linmin: -2.125e-06  t[s]:  18223.72
	FillingsUpdate:  mu: +0.094015830  nElectrons: 646.000000  magneticMoment: [ Abs: 0.00000  Tot: +0.00000 ]
	SubspaceRotationAdjust: set factor to 0.176
ElecMinimize: Iter:  11  F: -6863.046954964495853  |grad|_K:  7.081e-08  alpha:  1.355e-01  linmin:  5.001e-07  t[s]:  18429.87
	FillingsUpdate:  mu: +0.094116108  nElectrons: 646.000000  magneticMoment: [ Abs: 0.00000  Tot: +0.00000 ]
	SubspaceRotationAdjust: set factor to 0.163
ElecMinimize: Iter:  12  F: -6863.046955877898654  |grad|_K:  7.812e-08  alpha:  1.936e-01  linmin: -1.149e-05  t[s]:  18634.98
	FillingsUpdate:  mu: +0.094241312  nElectrons: 646.000000  magneticMoment: [ Abs: 0.00000  Tot: +0.00000 ]
	SubspaceRotationAdjust: set factor to 0.124
ElecMinimize: Iter:  13  F: -6863.046956824418885  |grad|_K:  5.745e-08  alpha:  1.652e-01  linmin:  5.702e-06  t[s]:  18840.21
	FillingsUpdate:  mu: +0.094201883  nElectrons: 646.000000  magneticMoment: [ Abs: 0.00000  Tot: +0.00000 ]
	SubspaceRotationAdjust: set factor to 0.132
ElecMinimize: Iter:  14  F: -6863.046957286165707  |grad|_K:  3.893e-08  alpha:  1.491e-01  linmin: -6.756e-06  t[s]:  19045.57
	FillingsUpdate:  mu: +0.094153010  nElectrons: 646.000000  magneticMoment: [ Abs: 0.00000  Tot: +0.00000 ]
	SubspaceRotationAdjust: set factor to 0.135
ElecMinimize: Iter:  15  F: -6863.046957484418272  |grad|_K:  2.840e-08  alpha:  1.390e-01  linmin: -1.026e-05  t[s]:  19250.56
	FillingsUpdate:  mu: +0.094131709  nElectrons: 646.000000  magneticMoment: [ Abs: 0.00000  Tot: +0.00000 ]
	SubspaceRotationAdjust: set factor to 0.127
ElecMinimize: Iter:  16  F: -6863.046957617102635  |grad|_K:  2.509e-08  alpha:  1.757e-01  linmin: -1.337e-04  t[s]:  19455.65
	FillingsUpdate:  mu: +0.094143903  nElectrons: 646.000000  magneticMoment: [ Abs: 0.00000  Tot: +0.00000 ]
	SubspaceRotationAdjust: set factor to 0.141
ElecMinimize: Iter:  17  F: -6863.046957719979218  |grad|_K:  1.690e-08  alpha:  1.711e-01  linmin:  3.434e-04  t[s]:  19660.45
	FillingsUpdate:  mu: +0.094161777  nElectrons: 646.000000  magneticMoment: [ Abs: 0.00000  Tot: +0.00000 ]
	SubspaceRotationAdjust: set factor to 0.149
ElecMinimize: Iter:  18  F: -6863.046957763413047  |grad|_K:  1.477e-08  alpha:  1.681e-01  linmin: -3.229e-04  t[s]:  19864.82
	FillingsUpdate:  mu: +0.094173620  nElectrons: 646.000000  magneticMoment: [ Abs: 0.00000  Tot: +0.00000 ]
	SubspaceRotationAdjust: set factor to 0.16
ElecMinimize: Iter:  19  F: -6863.046957797205323  |grad|_K:  1.059e-08  alpha:  1.652e-01  linmin: -2.590e-04  t[s]:  20069.54
ElecMinimize: Converged (|Delta F|<1.000000e-07 for 2 iters).
Setting wave functions to eigenvectors of Hamiltonian
Converging empty states (this may take a while): |deigs|: 4.630e-09

Computing DFT-D3 correction:
# coordination-number Cu 6.824 9.124 5.346 6.837 9.147 9.164 9.163 9.151 9.163 9.161 9.164 9.147 9.161 9.158 9.141 6.827 7.622 9.141 9.158 7.622 9.147 9.163 9.162 9.151 9.163 9.161 9.164 9.147 6.837 9.163 9.124 6.824 6.827 5.346
# diagonal-C6 Cu 175.00 175.00 175.00 175.00 175.00 175.00 175.00 175.00 175.00 175.00 175.00 175.00 175.00 175.00 175.00 175.00 175.00 175.00 175.00 175.00 175.00 175.00 175.00 175.00 175.00 175.00 175.00 175.00 175.00 175.00 175.00 175.00 175.00 175.00
EvdW_6 =   -0.219450
EvdW_8 =   -0.319259
IonicMinimize: 	Wolfe criterion not satisfied: alpha: 1  (E-E0)/|gdotd0|: -0.96273  gdotd/gdotd0: 0.909369 (taking cubic step)

Computing DFT-D3 correction:
# coordination-number Cu 6.814 9.122 5.376 6.834 9.143 9.171 9.167 9.141 9.167 9.162 9.170 9.140 9.160 9.156 9.124 6.816 7.615 9.124 9.157 7.615 9.140 9.170 9.163 9.141 9.167 9.161 9.172 9.143 6.834 9.168 9.122 6.813 6.815 5.376
# diagonal-C6 Cu 175.00 175.00 175.00 175.00 175.00 175.00 175.00 175.00 175.00 175.00 175.00 175.00 175.00 175.00 175.00 175.00 175.00 175.00 175.00 175.00 175.00 175.00 175.00 175.00 175.00 175.00 175.00 175.00 175.00 175.00 175.00 175.00 175.00 175.00
EvdW_6 =   -0.219456
EvdW_8 =   -0.319257

-------- Electronic minimization -----------
	FillingsUpdate:  mu: +0.093790032  nElectrons: 646.000000  magneticMoment: [ Abs: 0.00000  Tot: +0.00000 ]
ElecMinimize: Iter:   0  F: -6863.047055237530003  |grad|_K:  7.065e-07  alpha:  1.000e+00
	FillingsUpdate:  mu: +0.094040011  nElectrons: 646.000000  magneticMoment: [ Abs: 0.00000  Tot: +0.00000 ]
	SubspaceRotationAdjust: set factor to 0.154
ElecMinimize: Iter:   1  F: -6863.047111053001572  |grad|_K:  4.856e-07  alpha:  1.192e-01  linmin: -1.426e-05  t[s]:  20666.55
	FillingsUpdate:  mu: +0.094378896  nElectrons: 646.000000  magneticMoment: [ Abs: 0.00000  Tot: +0.00000 ]
	SubspaceRotationAdjust: set factor to 0.143
ElecMinimize: Iter:   2  F: -6863.047171316568893  |grad|_K:  4.393e-07  alpha:  2.724e-01  linmin: -4.334e-06  t[s]:  20871.22
	FillingsUpdate:  mu: +0.094270589  nElectrons: 646.000000  magneticMoment: [ Abs: 0.00000  Tot: +0.00000 ]
	SubspaceRotationAdjust: set factor to 0.132
ElecMinimize: Iter:   3  F: -6863.047198421138091  |grad|_K:  3.328e-07  alpha:  1.498e-01  linmin: -7.502e-07  t[s]:  21075.93
	FillingsUpdate:  mu: +0.094010875  nElectrons: 646.000000  magneticMoment: [ Abs: 0.00000  Tot: +0.00000 ]
	SubspaceRotationAdjust: set factor to 0.163
ElecMinimize: Iter:   4  F: -6863.047218327469636  |grad|_K:  2.355e-07  alpha:  1.917e-01  linmin: -8.871e-07  t[s]:  21280.73
	FillingsUpdate:  mu: +0.093973186  nElectrons: 646.000000  magneticMoment: [ Abs: 0.00000  Tot: +0.00000 ]
	SubspaceRotationAdjust: set factor to 0.179
ElecMinimize: Iter:   5  F: -6863.047235827429176  |grad|_K:  3.505e-07  alpha:  3.364e-01  linmin:  3.299e-07  t[s]:  21485.12
	FillingsUpdate:  mu: +0.094146577  nElectrons: 646.000000  magneticMoment: [ Abs: 0.00000  Tot: +0.00000 ]
	SubspaceRotationAdjust: set factor to 0.2
ElecMinimize: Iter:   6  F: -6863.047260884787647  |grad|_K:  2.346e-07  alpha:  2.175e-01  linmin:  1.998e-07  t[s]:  21689.32
	FillingsUpdate:  mu: +0.094181612  nElectrons: 646.000000  magneticMoment: [ Abs: 0.00000  Tot: +0.00000 ]
	SubspaceRotationAdjust: set factor to 0.204
ElecMinimize: Iter:   7  F: -6863.047270312937144  |grad|_K:  2.637e-07  alpha:  1.828e-01  linmin: -1.062e-06  t[s]:  21893.93
	FillingsUpdate:  mu: +0.094191623  nElectrons: 646.000000  magneticMoment: [ Abs: 0.00000  Tot: +0.00000 ]
	SubspaceRotationAdjust: set factor to 0.176
ElecMinimize: Iter:   8  F: -6863.047287683256400  |grad|_K:  3.025e-07  alpha:  2.662e-01  linmin: -1.324e-07  t[s]:  22098.27
	FillingsUpdate:  mu: +0.094180193  nElectrons: 646.000000  magneticMoment: [ Abs: 0.00000  Tot: +0.00000 ]
	SubspaceRotationAdjust: set factor to 0.128
ElecMinimize: Iter:   9  F: -6863.047297188660195  |grad|_K:  1.870e-07  alpha:  1.107e-01  linmin: -2.987e-08  t[s]:  22302.68
	FillingsUpdate:  mu: +0.094118341  nElectrons: 646.000000  magneticMoment: [ Abs: 0.00000  Tot: +0.00000 ]
	SubspaceRotationAdjust: set factor to 0.122
ElecMinimize: Iter:  10  F: -6863.047304632935266  |grad|_K:  1.681e-07  alpha:  2.268e-01  linmin: -3.936e-06  t[s]:  22507.43
	FillingsUpdate:  mu: +0.094042453  nElectrons: 646.000000  magneticMoment: [ Abs: 0.00000  Tot: +0.00000 ]
	SubspaceRotationAdjust: set factor to 0.128
ElecMinimize: Iter:  11  F: -6863.047308755810263  |grad|_K:  1.451e-07  alpha:  1.553e-01  linmin: -5.902e-07  t[s]:  22712.92
	FillingsUpdate:  mu: +0.093978774  nElectrons: 646.000000  magneticMoment: [ Abs: 0.00000  Tot: +0.00000 ]
	SubspaceRotationAdjust: set factor to 0.118
ElecMinimize: Iter:  12  F: -6863.047312740432972  |grad|_K:  1.175e-07  alpha:  2.018e-01  linmin: -6.053e-06  t[s]:  22917.83
	FillingsUpdate:  mu: +0.094021294  nElectrons: 646.000000  magneticMoment: [ Abs: 0.00000  Tot: +0.00000 ]
	SubspaceRotationAdjust: set factor to 0.122
ElecMinimize: Iter:  13  F: -6863.047314487245785  |grad|_K:  6.483e-08  alpha:  1.346e-01  linmin: -1.464e-06  t[s]:  23121.99
	FillingsUpdate:  mu: +0.094123038  nElectrons: 646.000000  magneticMoment: [ Abs: 0.00000  Tot: +0.00000 ]
	SubspaceRotationAdjust: set factor to 0.122
ElecMinimize: Iter:  14  F: -6863.047315367282863  |grad|_K:  6.464e-08  alpha:  2.218e-01  linmin: -6.790e-05  t[s]:  23326.39
	FillingsUpdate:  mu: +0.094168206  nElectrons: 646.000000  magneticMoment: [ Abs: 0.00000  Tot: +0.00000 ]
	SubspaceRotationAdjust: set factor to 0.116
ElecMinimize: Iter:  15  F: -6863.047315909203462  |grad|_K:  3.735e-08  alpha:  1.380e-01  linmin: -1.535e-05  t[s]:  23531.70
	FillingsUpdate:  mu: +0.094106287  nElectrons: 646.000000  magneticMoment: [ Abs: 0.00000  Tot: +0.00000 ]
	SubspaceRotationAdjust: set factor to 0.121
ElecMinimize: Iter:  16  F: -6863.047316213971499  |grad|_K:  3.684e-08  alpha:  2.349e-01  linmin:  3.182e-04  t[s]:  23735.85
	FillingsUpdate:  mu: +0.094069175  nElectrons: 646.000000  magneticMoment: [ Abs: 0.00000  Tot: +0.00000 ]
	SubspaceRotationAdjust: set factor to 0.119
ElecMinimize: Iter:  17  F: -6863.047316375224000  |grad|_K:  2.153e-08  alpha:  1.301e-01  linmin: -1.613e-04  t[s]:  23940.95
	FillingsUpdate:  mu: +0.094086697  nElectrons: 646.000000  magneticMoment: [ Abs: 0.00000  Tot: +0.00000 ]
	SubspaceRotationAdjust: set factor to 0.13
ElecMinimize: Iter:  18  F: -6863.047316456908447  |grad|_K:  1.877e-08  alpha:  1.814e-01  linmin: -5.119e-04  t[s]:  24145.52
	FillingsUpdate:  mu: +0.094114415  nElectrons: 646.000000  magneticMoment: [ Abs: 0.00000  Tot: +0.00000 ]
	SubspaceRotationAdjust: set factor to 0.136
ElecMinimize: Iter:  19  F: -6863.047316514001068  |grad|_K:  1.203e-08  alpha:  1.649e-01  linmin: -3.458e-04  t[s]:  24350.16
ElecMinimize: Converged (|Delta F|<1.000000e-07 for 2 iters).
Setting wave functions to eigenvectors of Hamiltonian
Converging empty states (this may take a while): |deigs|: 2.045e-08

Computing DFT-D3 correction:
# coordination-number Cu 6.814 9.122 5.376 6.834 9.143 9.171 9.167 9.141 9.167 9.162 9.170 9.140 9.160 9.156 9.124 6.816 7.615 9.124 9.157 7.615 9.140 9.170 9.163 9.141 9.167 9.161 9.172 9.143 6.834 9.168 9.122 6.813 6.815 5.376
# diagonal-C6 Cu 175.00 175.00 175.00 175.00 175.00 175.00 175.00 175.00 175.00 175.00 175.00 175.00 175.00 175.00 175.00 175.00 175.00 175.00 175.00 175.00 175.00 175.00 175.00 175.00 175.00 175.00 175.00 175.00 175.00 175.00 175.00 175.00 175.00 175.00
EvdW_6 =   -0.219456
EvdW_8 =   -0.319257

# Ionic positions in cartesian coordinates:
ion Cu  -0.000005470749678  11.559542927390432   1.218820392837808 1
ion Cu  -0.000005985736755  15.038328169185892   4.492156869117765 1
ion Cu   0.000003554153345   0.004398113894125  27.368634495179887 1
ion Cu  -0.000004237909832   3.466153808464409   2.856831552319776 1
ion Cu   0.000001253794493   6.936436262988557   6.136701076508596 1
ion Cu   0.000001256940759  10.402520617001672   9.402293100267000 1
ion Cu  -0.000002551824236  17.341245147247399  15.941036285297798 1
ion Cu  -0.000005158183400  18.495730940587759   7.771603861270865 1
ion Cu   0.000001301407624   2.311055844772728  11.036332678812334 1
ion Cu   0.000003475559339   5.781009891472838  14.305218200300040 1
ion Cu  -0.000001262106253   9.249215653131321  17.576101288666973 1
ion Cu  -0.000000018746356  12.718866286308078  20.841520096211802 1
ion Cu  -0.000000191366920  13.872645684281116  12.670151236102098 1
ion Cu  -0.000002496600037   1.157460454358753  19.210610635243277 1
ion Cu   0.000001537912004   4.625746232175040  22.472983630135772 1
ion Cu   0.000015377632461   8.093354661747611  25.753850635425920 1
ion Cu  -0.000003319683134  16.178256621972793  24.131405418515332 1
ion Cu   2.383304581673236  10.981803831419503   5.320898273052282 1
ion Cu   2.383310225911797  14.450055016675485   8.583254667748895 1
ion Cu   2.383309229008964  19.082445639383312   3.662560611196043 1
ion Cu   2.383305622268733   2.888587087689983   6.952395454872994 1
ion Cu   2.383308423291910   6.358142331191399  10.217917944954381 1
ion Cu   2.383310817071437   9.826127525531536  13.488956908738402 1
ion Cu   2.383318844026014  16.763968307732252  20.022292645697025 1
ion Cu   2.383320454241461  17.919340775062036  11.852863227666425 1
ion Cu   2.383310896367798   1.734309814748776  15.123837248533711 1
ion Cu   2.383307125699651   5.204039760906695  18.391708827925296 1
ion Cu   2.383311387100422   8.670029652731978  21.657143942665417 1
ion Cu   2.383320777283987  12.140580426846554  24.937189714876830 1
ion Cu   2.383309338952004  13.295584529813196  16.757626978929896 1
ion Cu   2.383313815278826   0.568318391010994  23.301727144689533 1
ion Cu   2.383312033413174   4.047423269723694  26.575098570419833 1
ion Cu   2.383306864033653   7.513997867112023   2.040048646581412 1
ion Cu   2.383309499883503  15.602590455439994   0.425439739238526 1

# Forces in Cartesian coordinates:
force Cu  -0.000002067572018  -0.000644070262852  -0.001783623910913 1
force Cu   0.000000708506234   0.002409972128807  -0.000463151804680 1
force Cu   0.000001499208531   0.001252064388613  -0.004265976904747 1
force Cu  -0.000001242344325  -0.000256095114437  -0.001174329335179 1
force Cu  -0.000000106866230  -0.000200711468370   0.001192532967713 1
force Cu   0.000000441907773  -0.000500442353976   0.000645287629288 1
force Cu  -0.000000372257580   0.000094688668034  -0.000090741399473 1
force Cu  -0.000001768870177  -0.000332449198317   0.000945154767697 1
force Cu   0.000000742245673  -0.000242718259597   0.000309509636586 1
force Cu   0.000001104071775   0.000126731940896  -0.000197791381142 1
force Cu  -0.000000137205957   0.000273860358358  -0.000093506475813 1
force Cu  -0.000001385715015   0.000686296654169  -0.000740314085548 1
force Cu   0.000000282465038  -0.000105274410117  -0.000164629155291 1
force Cu  -0.000000601582531   0.000356993783634   0.000205766976942 1
force Cu   0.000000969181910   0.000117880956017  -0.001532390430790 1
force Cu   0.000005022864835   0.000155541745362   0.000798204004378 1
force Cu  -0.000001009675475  -0.002207141257004   0.004251144797024 1
force Cu  -0.000001637101936   0.000000787509022   0.001561759674613 1
force Cu   0.000000011797805  -0.000246078557436  -0.000177010172642 1
force Cu   0.000000216329514   0.002304654525398  -0.004225524139180 1
force Cu  -0.000000390815421  -0.000597421907654   0.000778595382840 1
force Cu  -0.000000460217709  -0.000198115426623   0.000137898507874 1
force Cu   0.000000075392445  -0.000113131397567   0.000227000272037 1
force Cu   0.000001241197496   0.000219563715277  -0.000951376058299 1
force Cu   0.000002883269769  -0.000050332277674   0.000094851322549 1
force Cu   0.000000191817250   0.000078947036589   0.000162834865792 1
force Cu  -0.000000961645725   0.000417153204307  -0.000639584632609 1
force Cu   0.000000526790852   0.000096005495858  -0.001194492991970 1
force Cu   0.000003067366477   0.000179140813864   0.001169933555652 1
force Cu  -0.000000285382228   0.000163846994001  -0.000304984785012 1
force Cu   0.000000754016995  -0.002512941099488   0.000465434222114 1
force Cu   0.000000547150399   0.000614279382117   0.001773898318154 1
force Cu  -0.000001129240312  -0.000101515930272  -0.000798410636415 1
force Cu  -0.000001611091351  -0.001250871398297   0.004304666625897 1

# Energy components:
   Eewald =    82422.6433408591110492
       EH =    88696.7827209021634189
     Eloc =  -179270.5286420999327675
      Enl =     1245.1586283416795595
     EvdW =       -0.5387131354997196
      Exc =     -659.8894360219749160
 Exc_core =        1.5969605039989323
       KE =      701.7290314827441762
-------------------------------------
     Etot =    -6863.0461091677098011
       TS =        0.0012073462913283
-------------------------------------
        F =    -6863.0473165140010678


Dumping 'jdft.fillings' ... done
Dumping 'jdft.wfns' ... done
Dumping 'jdft.ionpos' ... done
Dumping 'jdft.lattice' ... done
Dumping 'jdft.eigenvals' ... done
Dumping 'jdft.eigStats' ... 
	eMin: -4.045486 at state 36 ( [ +0.000000 +0.000000 +0.000000 ] spin -1 )
	HOMO: +0.093170 at state 60 ( [ -0.333333 +0.000000 +0.000000 ] spin -1 )
	mu  : +0.094114
	LUMO: +0.094448 at state 22 ( [ -0.416667 +0.333333 +0.000000 ] spin 1 )
	eMax: +0.474722 at state 54 ( [ +0.500000 +0.000000 +0.000000 ] spin -1 )
	HOMO-LUMO gap: +0.001278
	Optical gap  : +0.003011 at state 6 ( [ +0.166667 +0.000000 +0.000000 ] spin 1 )
Dumping 'jdft.Ecomponents' ... done
IonicMinimize: Iter:   1  F: -6863.047316514001068  |grad|_K:  1.101e-03  alpha:  3.000e+00  linmin: -9.865e-01  t[s]:  24570.99

#--- Lowdin population analysis ---
# oxidation-state Cu +0.089 +0.041 +0.183 +0.116 +0.063 +0.074 +0.076 +0.072 +0.075 +0.078 +0.075 +0.066 +0.077 +0.076 +0.063 +0.109 +0.065 +0.063 +0.076 +0.065 +0.066 +0.075 +0.078 +0.072 +0.076 +0.077 +0.075 +0.063 +0.116 +0.075 +0.041 +0.089 +0.109 +0.183
# magnetic-moments Cu -0.000 +0.000 +0.000 -0.000 -0.000 -0.000 +0.000 +0.000 -0.000 +0.000 +0.000 -0.000 -0.000 +0.000 -0.000 +0.000 +0.000 +0.000 +0.000 +0.000 +0.000 +0.000 +0.000 -0.000 +0.000 +0.000 +0.000 -0.000 -0.000 -0.000 -0.000 +0.000 +0.000 -0.000


Computing DFT-D3 correction:
# coordination-number Cu 6.757 9.109 5.512 6.853 9.086 9.183 9.173 9.070 9.180 9.201 9.191 9.098 9.174 9.156 9.019 6.793 7.565 9.019 9.159 7.564 9.098 9.192 9.203 9.069 9.176 9.174 9.183 9.088 6.854 9.181 9.108 6.758 6.791 5.510
# diagonal-C6 Cu 175.00 175.00 175.00 175.00 175.00 175.00 175.00 175.00 175.00 175.00 175.00 175.00 175.00 175.00 175.00 175.00 175.00 175.00 175.00 175.00 175.00 175.00 175.00 175.00 175.00 175.00 175.00 175.00 175.00 175.00 175.00 175.00 175.00 175.00
EvdW_6 =   -0.219469
EvdW_8 =   -0.319213

-------- Electronic minimization -----------
	FillingsUpdate:  mu: +0.097974084  nElectrons: 646.000000  magneticMoment: [ Abs: 0.00000  Tot: +0.00000 ]
ElecMinimize: Iter:   0  F: -6862.039229068526765  |grad|_K:  5.676e-05  alpha:  1.000e+00
	FillingsUpdate:  mu: +0.117806679  nElectrons: 646.000000  magneticMoment: [ Abs: 0.00000  Tot: +0.00000 ]
	SubspaceRotationAdjust: set factor to 0.137
ElecMinimize: Iter:   1  F: -6862.470698282506419  |grad|_K:  5.374e-05  alpha:  1.704e-01  linmin:  4.426e-03  t[s]:  24938.30
	FillingsUpdate:  mu: +0.086800620  nElectrons: 646.000000  magneticMoment: [ Abs: 0.00000  Tot: -0.00000 ]
	SubspaceRotationAdjust: set factor to 0.139
ElecMinimize: Iter:   2  F: -6862.895765279497937  |grad|_K:  2.182e-05  alpha:  1.849e-01  linmin:  2.251e-04  t[s]:  25143.47
	FillingsUpdate:  mu: +0.086726117  nElectrons: 646.000000  magneticMoment: [ Abs: 0.00000  Tot: -0.00000 ]
	SubspaceRotationAdjust: set factor to 0.151
ElecMinimize: Iter:   3  F: -6862.941952612379282  |grad|_K:  1.256e-05  alpha:  1.041e-01  linmin:  8.141e-06  t[s]:  25348.15
	FillingsUpdate:  mu: +0.089983255  nElectrons: 646.000000  magneticMoment: [ Abs: 0.00000  Tot: -0.00000 ]
	SubspaceRotationAdjust: set factor to 0.173
ElecMinimize: Iter:   4  F: -6862.972771136443953  |grad|_K:  9.066e-06  alpha:  2.082e-01  linmin: -1.515e-05  t[s]:  25552.29
	FillingsUpdate:  mu: +0.091317274  nElectrons: 646.000000  magneticMoment: [ Abs: 0.00000  Tot: -0.00000 ]
	SubspaceRotationAdjust: set factor to 0.21
ElecMinimize: Iter:   5  F: -6862.984017257550477  |grad|_K:  7.196e-06  alpha:  1.455e-01  linmin:  7.485e-07  t[s]:  25756.92
	FillingsUpdate:  mu: +0.094786786  nElectrons: 646.000000  magneticMoment: [ Abs: 0.00000  Tot: -0.00000 ]
	SubspaceRotationAdjust: set factor to 0.284
ElecMinimize: Iter:   6  F: -6862.993210627774715  |grad|_K:  5.745e-06  alpha:  1.893e-01  linmin: -6.214e-06  t[s]:  25961.12
	FillingsUpdate:  mu: +0.096929002  nElectrons: 646.000000  magneticMoment: [ Abs: 0.00000  Tot: -0.00000 ]
	SubspaceRotationAdjust: set factor to 0.332
ElecMinimize: Iter:   7  F: -6863.001059879087734  |grad|_K:  8.030e-06  alpha:  2.526e-01  linmin: -6.977e-06  t[s]:  26165.42
	FillingsUpdate:  mu: +0.098560378  nElectrons: 646.000000  magneticMoment: [ Abs: 0.00000  Tot: -0.00000 ]
	SubspaceRotationAdjust: set factor to 0.357
ElecMinimize: Iter:   8  F: -6863.019685024523824  |grad|_K:  9.547e-06  alpha:  3.075e-01  linmin:  1.378e-05  t[s]:  26370.04
	FillingsUpdate:  mu: +0.095989506  nElectrons: 646.000000  magneticMoment: [ Abs: 0.00000  Tot: -0.00000 ]
	SubspaceRotationAdjust: set factor to 0.399
ElecMinimize: Iter:   9  F: -6863.030692587111844  |grad|_K:  6.730e-06  alpha:  1.310e-01  linmin: -5.694e-06  t[s]:  26574.07
	FillingsUpdate:  mu: +0.092125700  nElectrons: 646.000000  magneticMoment: [ Abs: 0.00000  Tot: -0.00000 ]
	SubspaceRotationAdjust: set factor to 0.401
ElecMinimize: Iter:  10  F: -6863.039371328046400  |grad|_K:  6.622e-06  alpha:  2.017e-01  linmin: -1.513e-05  t[s]:  26777.80
	FillingsUpdate:  mu: +0.094028556  nElectrons: 646.000000  magneticMoment: [ Abs: 0.00000  Tot: -0.00000 ]
	SubspaceRotationAdjust: set factor to 0.326
ElecMinimize: Iter:  11  F: -6863.043469847216329  |grad|_K:  4.480e-06  alpha:  9.636e-02  linmin: -1.830e-05  t[s]:  26982.40
	FillingsUpdate:  mu: +0.093759872  nElectrons: 646.000000  magneticMoment: [ Abs: 0.00000  Tot: -0.00000 ]
	SubspaceRotationAdjust: set factor to 0.21
ElecMinimize: Iter:  12  F: -6863.044435481536311  |grad|_K:  3.350e-06  alpha:  5.076e-02  linmin: -1.150e-06  t[s]:  27186.60
	FillingsUpdate:  mu: +0.092706662  nElectrons: 646.000000  magneticMoment: [ Abs: 0.00000  Tot: -0.00000 ]
	SubspaceRotationAdjust: set factor to 0.254
ElecMinimize: Iter:  13  F: -6863.045944614174005  |grad|_K:  2.836e-06  alpha:  1.432e-01  linmin: -2.617e-06  t[s]:  27390.55
[...]
ion Cu  -0.000010935002978  13.869149437286170  12.668445049806769 1
ion Cu  -0.000034405184284   1.166006979702523  19.206605667367477 1
ion Cu   0.000017222331557   4.614059637510633  22.456868452262359 1
ion Cu   0.000206770904683   8.087264237586131  25.761052985831434 1
ion Cu   0.000099347884822  16.102095739809982  24.245140663392768 1
ion Cu   2.383258801178965  10.995774484620265   5.337381099619854 1
ion Cu   2.383291557549455  14.442788824732407   8.587683564886804 1
ion Cu   2.383238530215758  19.157926490605167   3.549274071491101 1
ion Cu   2.383229122557016   2.875114203667301   6.942996888283742 1
ion Cu   2.383286373004485   6.338709435761278  10.222994134259164 1
ion Cu   2.383274478615702   9.825009624345574  13.494161849306952 1
ion Cu   2.383363489527699  16.757724293624030  20.038300810912911 1
ion Cu   2.383354451659951  17.913204730311147  11.851008331977617 1
ion Cu   2.383300080354292   1.737751310306948  15.125233517266897 1
ion Cu   2.383297280561060   5.220304237437073  18.377848275125597 1
ion Cu   2.383360367254149   8.673453212396366  21.642376996779891 1
ion Cu   2.383413641233632  12.100175661227134  24.975084561928522 1
ion Cu   2.383287052012657  13.308832139101494  16.753572435266360 1
ion Cu   2.383385836725724   0.509914079893853  23.269450139609383 1
ion Cu   2.383401919784104   4.085102268739853  26.588308056578001 1
ion Cu   2.383225589615210   7.521460405808964   2.033098054763629 1
ion Cu   2.383235294862635  15.538091975952874   0.531946020214215 1

# Forces in Cartesian coordinates:
force Cu  -0.000002009801805   0.000112769462668   0.000108250601250 1
force Cu   0.000000831750472   0.000119908895371  -0.000203224610294 1
force Cu   0.000002060360895  -0.000018802368932  -0.000065870786744 1
force Cu  -0.000000814629401   0.000057057557328  -0.000146380047270 1
force Cu   0.000000079723447   0.000140634998968   0.000119559827995 1
force Cu  -0.000000179674719  -0.000023493216471   0.000292662737601 1
force Cu   0.000000665854408   0.000010462325672   0.000171334496715 1
force Cu  -0.000001067641374   0.000105150726469   0.000143901775400 1
force Cu  -0.000000182788200  -0.000001122628196  -0.000269390095250 1
force Cu  -0.000000059443655   0.000102472620774   0.000064379415775 1
force Cu   0.000000304019390  -0.000098430359860   0.000007821673586 1
force Cu  -0.000001013123355  -0.000119001751465  -0.000066791457910 1
force Cu   0.000000103802210  -0.000040776636312   0.000107665575777 1
force Cu   0.000001561147005  -0.000127632773467  -0.000301181099191 1
force Cu   0.000001221422103  -0.000096703353808  -0.000273930465177 1
force Cu  -0.000000147113925   0.000071485416600   0.000012961754016 1
force Cu   0.000001379497909   0.000279753747920   0.000087978082708 1
force Cu  -0.000000396066165   0.000069225244464   0.000328470702590 1
force Cu  -0.000000892898045   0.000135486217998   0.000368664113727 1
force Cu   0.000000188157859  -0.000309696803172  -0.000055154322710 1
force Cu   0.000000627981014   0.000128178695805   0.000084180012570 1
force Cu   0.000000130935507   0.000117336774712   0.000037941185531 1
force Cu   0.000000182828780  -0.000087661942554   0.000005069346253 1
force Cu   0.000001381211426  -0.000114832599827  -0.000111214153190 1
force Cu  -0.000000470211831  -0.000007930558424  -0.000106030818807 1
force Cu   0.000000266293550   0.000031183176819  -0.000048735739110 1
force Cu  -0.000000634461811   0.000017507407961  -0.000249881818402 1
force Cu   0.000000715323258  -0.000139362482863  -0.000111546553088 1
force Cu   0.000002005709673  -0.000028100341910   0.000182605415602 1
force Cu   0.000000816575048  -0.000000874392537   0.000324912832046 1
force Cu   0.000002375457964  -0.000124598091179   0.000199812884320 1
force Cu   0.000001160507384  -0.000108881593105  -0.000076580192722 1
force Cu   0.000000126359093  -0.000105417661091   0.000043340712685 1
force Cu  -0.000000666474314  -0.000006910182738   0.000105506765757 1

# Energy components:
   Eewald =    82419.4235589591553435
       EH =    88693.1789338964881608
     Eloc =  -179263.6930401225108653
      Enl =     1245.1500605220714988
     EvdW =       -0.5387184337856308
      Exc =     -659.8889642276570839
 Exc_core =        1.5969536443573187
       KE =      701.7236310735719371
-------------------------------------
     Etot =    -6863.0475846883246049
       TS =        0.0012106432809210
-------------------------------------
        F =    -6863.0487953316051062


Dumping 'jdft.fillings' ... done
Dumping 'jdft.wfns' ... done
Dumping 'jdft.ionpos' ... done
Dumping 'jdft.lattice' ... done
Dumping 'jdft.eigenvals' ... done
Dumping 'jdft.eigStats' ... 
	eMin: -4.046155 at state 36 ( [ +0.000000 +0.000000 +0.000000 ] spin -1 )
	HOMO: +0.092387 at state 12 ( [ +0.333333 +0.000000 +0.000000 ] spin 1 )
	mu  : +0.093397
	LUMO: +0.093868 at state 50 ( [ +0.333333 -0.333333 +0.000000 ] spin -1 )
	eMax: +0.475095 at state 18 ( [ +0.500000 +0.000000 +0.000000 ] spin 1 )
	HOMO-LUMO gap: +0.001481
	Optical gap  : +0.002885 at state 42 ( [ +0.166667 +0.000000 +0.000000 ] spin -1 )
Dumping 'jdft.Ecomponents' ... done
IonicMinimize: Iter:   5  F: -6863.048795331605106  |grad|_K:  1.201e-04  alpha:  1.000e+00  linmin: -4.545e-01  t[s]:  51538.59

#--- Lowdin population analysis ---
# oxidation-state Cu +0.090 +0.039 +0.176 +0.112 +0.064 +0.074 +0.077 +0.074 +0.075 +0.078 +0.074 +0.068 +0.077 +0.074 +0.067 +0.106 +0.070 +0.067 +0.074 +0.070 +0.067 +0.074 +0.078 +0.074 +0.076 +0.077 +0.075 +0.065 +0.112 +0.075 +0.040 +0.091 +0.106 +0.176
# magnetic-moments Cu +0.000 +0.000 +0.000 +0.000 -0.000 +0.000 +0.000 -0.000 +0.000 -0.000 +0.000 -0.000 +0.000 -0.000 +0.000 -0.000 +0.000 -0.000 -0.000 -0.000 -0.000 +0.000 -0.000 +0.000 +0.000 -0.000 -0.000 +0.000 -0.000 -0.000 -0.000 -0.000 +0.000 -0.000


Computing DFT-D3 correction:
# coordination-number Cu 6.813 9.103 5.560 6.877 9.101 9.179 9.153 9.042 9.170 9.189 9.189 9.089 9.170 9.162 9.029 6.865 7.493 9.027 9.163 7.494 9.087 9.187 9.190 9.040 9.155 9.172 9.180 9.104 6.880 9.172 9.098 6.809 6.863 5.563
# diagonal-C6 Cu 175.00 175.00 175.00 175.00 175.00 175.00 175.00 175.00 175.00 175.00 175.00 175.00 175.00 175.00 175.00 175.00 175.00 175.00 175.00 175.00 175.00 175.00 175.00 175.00 175.00 175.00 175.00 175.00 175.00 175.00 175.00 175.00 175.00 175.00
EvdW_6 =   -0.219472
EvdW_8 =   -0.319266

-------- Electronic minimization -----------
	FillingsUpdate:  mu: +0.092943631  nElectrons: 646.000000  magneticMoment: [ Abs: 0.00000  Tot: -0.00000 ]
ElecMinimize: Iter:   0  F: -6863.048738857321041  |grad|_K:  4.286e-07  alpha:  1.000e+00
	FillingsUpdate:  mu: +0.093224577  nElectrons: 646.000000  magneticMoment: [ Abs: 0.00000  Tot: -0.00000 ]
	SubspaceRotationAdjust: set factor to 0.0953
ElecMinimize: Iter:   1  F: -6863.048758797385744  |grad|_K:  2.474e-07  alpha:  1.157e-01  linmin: -1.467e-05  t[s]:  51917.36
	FillingsUpdate:  mu: +0.093655528  nElectrons: 646.000000  magneticMoment: [ Abs: 0.00000  Tot: -0.00000 ]
	SubspaceRotationAdjust: set factor to 0.102
ElecMinimize: Iter:   2  F: -6863.048774235284327  |grad|_K:  2.012e-07  alpha:  2.688e-01  linmin: -5.882e-06  t[s]:  52122.93
	FillingsUpdate:  mu: +0.093657372  nElectrons: 646.000000  magneticMoment: [ Abs: 0.00000  Tot: -0.00000 ]
	SubspaceRotationAdjust: set factor to 0.118
ElecMinimize: Iter:   3  F: -6863.048780726349833  |grad|_K:  1.542e-07  alpha:  1.709e-01  linmin:  6.254e-07  t[s]:  52328.05
	FillingsUpdate:  mu: +0.093469512  nElectrons: 646.000000  magneticMoment: [ Abs: 0.00000  Tot: -0.00000 ]
	SubspaceRotationAdjust: set factor to 0.155
ElecMinimize: Iter:   4  F: -6863.048784619639264  |grad|_K:  1.003e-07  alpha:  1.746e-01  linmin:  5.346e-07  t[s]:  52533.18
	FillingsUpdate:  mu: +0.093265200  nElectrons: 646.000000  magneticMoment: [ Abs: 0.00000  Tot: -0.00000 ]
	SubspaceRotationAdjust: set factor to 0.164
ElecMinimize: Iter:   5  F: -6863.048787382887895  |grad|_K:  1.379e-07  alpha:  2.934e-01  linmin:  2.477e-05  t[s]:  52738.40
	FillingsUpdate:  mu: +0.093167434  nElectrons: 646.000000  magneticMoment: [ Abs: 0.00000  Tot: -0.00000 ]
	SubspaceRotationAdjust: set factor to 0.192
ElecMinimize: Iter:   6  F: -6863.048791152198646  |grad|_K:  1.102e-07  alpha:  2.119e-01  linmin: -7.519e-07  t[s]:  52943.72
	FillingsUpdate:  mu: +0.093412952  nElectrons: 646.000000  magneticMoment: [ Abs: 0.00000  Tot: -0.00000 ]
	SubspaceRotationAdjust: set factor to 0.213
ElecMinimize: Iter:   7  F: -6863.048793754239341  |grad|_K:  1.256e-07  alpha:  2.288e-01  linmin: -5.501e-07  t[s]:  53148.70
	FillingsUpdate:  mu: +0.093694158  nElectrons: 646.000000  magneticMoment: [ Abs: 0.00000  Tot: -0.00000 ]
	SubspaceRotationAdjust: set factor to 0.242
ElecMinimize: Iter:   8  F: -6863.048796985172885  |grad|_K:  1.162e-07  alpha:  2.182e-01  linmin:  2.571e-06  t[s]:  53353.95
	FillingsUpdate:  mu: +0.093424112  nElectrons: 646.000000  magneticMoment: [ Abs: 0.00000  Tot: -0.00000 ]
	SubspaceRotationAdjust: set factor to 0.242
ElecMinimize: Iter:   9  F: -6863.048800155979734  |grad|_K:  1.313e-07  alpha:  2.507e-01  linmin: -2.850e-06  t[s]:  53559.20
	FillingsUpdate:  mu: +0.093255814  nElectrons: 646.000000  magneticMoment: [ Abs: 0.00000  Tot: -0.00000 ]
	SubspaceRotationAdjust: set factor to 0.169
ElecMinimize: Iter:  10  F: -6863.048802020867697  |grad|_K:  1.039e-07  alpha:  1.153e-01  linmin:  3.190e-07  t[s]:  53764.10
	FillingsUpdate:  mu: +0.093299306  nElectrons: 646.000000  magneticMoment: [ Abs: 0.00000  Tot: -0.00000 ]
	SubspaceRotationAdjust: set factor to 0.139
ElecMinimize: Iter:  11  F: -6863.048803171066538  |grad|_K:  8.035e-08  alpha:  1.138e-01  linmin:  8.292e-06  t[s]:  53969.41
	FillingsUpdate:  mu: +0.093445451  nElectrons: 646.000000  magneticMoment: [ Abs: 0.00000  Tot: -0.00000 ]
	SubspaceRotationAdjust: set factor to 0.148
ElecMinimize: Iter:  12  F: -6863.048804307916726  |grad|_K:  7.399e-08  alpha:  1.886e-01  linmin:  1.266e-05  t[s]:  54174.62
	FillingsUpdate:  mu: +0.093489082  nElectrons: 646.000000  magneticMoment: [ Abs: 0.00000  Tot: -0.00000 ]
	SubspaceRotationAdjust: set factor to 0.137
ElecMinimize: Iter:  13  F: -6863.048805122607519  |grad|_K:  5.817e-08  alpha:  1.590e-01  linmin: -1.422e-06  t[s]:  54379.73
	FillingsUpdate:  mu: +0.093430828  nElectrons: 646.000000  magneticMoment: [ Abs: 0.00000  Tot: -0.00000 ]
	SubspaceRotationAdjust: set factor to 0.134
ElecMinimize: Iter:  14  F: -6863.048805569509568  |grad|_K:  3.617e-08  alpha:  1.408e-01  linmin: -2.178e-05  t[s]:  54585.60
	FillingsUpdate:  mu: +0.093383159  nElectrons: 646.000000  magneticMoment: [ Abs: 0.00000  Tot: -0.00000 ]
	SubspaceRotationAdjust: set factor to 0.136
ElecMinimize: Iter:  15  F: -6863.048805753845045  |grad|_K:  2.980e-08  alpha:  1.514e-01  linmin:  1.118e-04  t[s]:  54790.10
	FillingsUpdate:  mu: +0.093364636  nElectrons: 646.000000  magneticMoment: [ Abs: 0.00000  Tot: -0.00000 ]
	SubspaceRotationAdjust: set factor to 0.139
ElecMinimize: Iter:  16  F: -6863.048805915857884  |grad|_K:  2.580e-08  alpha:  1.975e-01  linmin:  1.369e-04  t[s]:  54995.10
	FillingsUpdate:  mu: +0.093376477  nElectrons: 646.000000  magneticMoment: [ Abs: 0.00000  Tot: -0.00000 ]
	SubspaceRotationAdjust: set factor to 0.155
ElecMinimize: Iter:  17  F: -6863.048805989381435  |grad|_K:  1.746e-08  alpha:  1.192e-01  linmin: -1.151e-04  t[s]:  55201.26
	FillingsUpdate:  mu: +0.093406446  nElectrons: 646.000000  magneticMoment: [ Abs: 0.00000  Tot: -0.00000 ]
	SubspaceRotationAdjust: set factor to 0.164
ElecMinimize: Iter:  18  F: -6863.048806052902364  |grad|_K:  1.598e-08  alpha:  2.376e-01  linmin:  1.557e-03  t[s]:  55406.42
ElecMinimize: Converged (|Delta F|<1.000000e-07 for 2 iters).
Setting wave functions to eigenvectors of Hamiltonian
Converging empty states (this may take a while): |deigs|: 6.891e-09

Computing DFT-D3 correction:
# coordination-number Cu 6.813 9.103 5.560 6.877 9.101 9.179 9.153 9.042 9.170 9.189 9.189 9.089 9.170 9.162 9.029 6.865 7.493 9.027 9.163 7.494 9.087 9.187 9.190 9.040 9.155 9.172 9.180 9.104 6.880 9.172 9.098 6.809 6.863 5.563
# diagonal-C6 Cu 175.00 175.00 175.00 175.00 175.00 175.00 175.00 175.00 175.00 175.00 175.00 175.00 175.00 175.00 175.00 175.00 175.00 175.00 175.00 175.00 175.00 175.00 175.00 175.00 175.00 175.00 175.00 175.00 175.00 175.00 175.00 175.00 175.00 175.00
EvdW_6 =   -0.219472
EvdW_8 =   -0.319266

# Ionic positions in cartesian coordinates:
ion Cu  -0.000029669941717  11.523857889655519   1.208239478039793 1
ion Cu  -0.000069415673910  15.097553847694632   4.522903538712908 1
ion Cu   0.000064010180737   0.066505130901365  27.262828545138987 1
ion Cu  -0.000083962444577   3.505871490147793   2.816612767834358 1
ion Cu  -0.000067964048473   6.934417022158684   6.151084700103487 1
ion Cu  -0.000046278063101  10.385636353001223   9.419307787305476 1
ion Cu  -0.000014290950143  17.348250654333341  15.944417649952189 1
ion Cu  -0.000079193272667  18.503450488043601   7.755190842304548 1
ion Cu  -0.000003543199765   2.297008306815680  11.035910054213341 1
ion Cu   0.000002029325178   5.783607249006598  14.300853265769009 1
ion Cu  -0.000024455244598   9.268685740641615  17.571045182243338 1
ion Cu   0.000080828650673  12.730875751413190  20.852296685145703 1
ion Cu  -0.000014424431252  13.868501401741744  12.670288267404155 1
ion Cu  -0.000016217463912   1.164130325102710  19.202185013022284 1
ion Cu   0.000030142919104   4.612147703850288  22.453942775778266 1
ion Cu   0.000200362553986   8.087478447750010  25.760493306333633 1
ion Cu   0.000118817671553  16.105821424101478  24.244548805516011 1
ion Cu   2.383250340406486  10.997391207909027   5.340514068490931 1
ion Cu   2.383274385052331  14.444744277150086   8.592475726029496 1
ion Cu   2.383235622961102  19.153703144058596   3.549743755967301 1
ion Cu   2.383232896860533   2.877359107068336   6.942148882866431 1
ion Cu   2.383284341572144   6.339767680012620  10.223608036718192 1
ion Cu   2.383272027249454   9.823966962570783  13.493687079602882 1
ion Cu   2.383381966334101  16.755813700554913  20.038289602615500 1
ion Cu   2.383341811861052  17.912960753976353  11.849664836601503 1
ion Cu   2.383298800380978   1.738353357215662  15.123571058402522 1
ion Cu   2.383281770406144   5.220372338823441  18.374296583578545 1
ion Cu   2.383369156384633   8.671528941286590  21.641831969800652 1
ion Cu   2.383439015913490  12.099048495035492  24.976957236432415 1
ion Cu   2.383295576578005  13.308747087765667  16.757954871792464 1
ion Cu   2.383420042125680   0.509470381258569  23.270468383411309 1
ion Cu   2.383416321718367   4.084051579105413  26.585274427343577 1
ion Cu   2.383223530715673   7.520861683274465   2.033849674356320 1
ion Cu   2.383222616912706  15.537372076574453   0.530727141172433 1

# Forces in Cartesian coordinates:
force Cu  -0.000001026161342  -0.000046323101085   0.000107805924873 1
force Cu  -0.000000101102307  -0.000005318414702   0.000123554232370 1
force Cu   0.000001938594755   0.000056425945666  -0.000054517755158 1
force Cu  -0.000000379252167  -0.000160794229222  -0.000052101403428 1
force Cu   0.000000394066830   0.000121196681037   0.000085210559215 1
force Cu  -0.000000281124307   0.000090396372428  -0.000003049387267 1
force Cu   0.000000541739023  -0.000055062417895  -0.000112184954492 1
force Cu  -0.000000530597783  -0.000007153627159  -0.000002583757167 1
force Cu  -0.000000083667665   0.000046328817821  -0.000021413094056 1
force Cu  -0.000000005106252  -0.000080848092140  -0.000205149162797 1
force Cu   0.000000259108504  -0.000004586734288   0.000005607804451 1
force Cu  -0.000000380102332  -0.000065894801289   0.000126717191545 1
force Cu  -0.000000006796956   0.000020380529918   0.000247341680125 1
force Cu   0.000002088728693  -0.000035791538292  -0.000015363496552 1
force Cu   0.000000908964729  -0.000055296047924  -0.000291462869825 1
force Cu   0.000000682899532  -0.000089742547859  -0.000060301869578 1
force Cu   0.000001652053638  -0.000117875648916   0.000070522000808 1
force Cu  -0.000000247964009   0.000077423999207   0.000260786032448 1
force Cu  -0.000001085866048   0.000059252435558  -0.000043521325273 1
force Cu  -0.000000669774581   0.000144000006968  -0.000095074365268 1
force Cu  -0.000000509618227   0.000075658936897  -0.000153084236367 1
force Cu  -0.000000294919256   0.000007852982959  -0.000069328025454 1
force Cu   0.000000081403846   0.000075094533606   0.000130707641244 1
force Cu   0.000000995580437   0.000006863454803  -0.000032725067347 1
force Cu  -0.000000366712608   0.000061740838807   0.000060351789613 1
force Cu   0.000000435494725  -0.000034199430176  -0.000297988072339 1
force Cu   0.000000155910141  -0.000091152960153  -0.000043591395812 1
force Cu   0.000000359992293  -0.000134226172926  -0.000077537797344 1
force Cu   0.000001216247579   0.000113104216167   0.000012289517525 1
force Cu   0.000000478509770  -0.000041128547779  -0.000032557709974 1
force Cu   0.000001780052168  -0.000027700691275  -0.000119030096814 1
force Cu   0.000001097604928  -0.000003209750989  -0.000120643822625 1
force Cu  -0.000000471418355   0.000089431247312   0.000029074934678 1
force Cu  -0.000000617254728  -0.000058846473399   0.000008738679300 1

# Energy components:
   Eewald =    82423.7962897393590538
       EH =    88697.5530608744302299
     Eloc =  -179272.4400732200301718
      Enl =     1245.1497436486156403
     EvdW =       -0.5387381874345698
      Exc =     -659.8891777733396111
 Exc_core =        1.5969520698710700
       KE =      701.7243491031945268
-------------------------------------
     Etot =    -6863.0475937453484221
       TS =        0.0012123075539891
-------------------------------------
        F =    -6863.0488060529023642


Dumping 'jdft.fillings' ... done
Dumping 'jdft.wfns' ... done
Dumping 'jdft.ionpos' ... done
Dumping 'jdft.lattice' ... done
Dumping 'jdft.eigenvals' ... done
Dumping 'jdft.eigStats' ... 
	eMin: -4.046132 at state 36 ( [ +0.000000 +0.000000 +0.000000 ] spin -1 )
	HOMO: +0.092405 at state 12 ( [ +0.333333 +0.000000 +0.000000 ] spin 1 )
	mu  : +0.093406
	LUMO: +0.093864 at state 61 ( [ -0.333333 +0.333333 +0.000000 ] spin -1 )
	eMax: +0.475103 at state 18 ( [ +0.500000 +0.000000 +0.000000 ] spin 1 )
	HOMO-LUMO gap: +0.001459
	Optical gap  : +0.002890 at state 42 ( [ +0.166667 +0.000000 +0.000000 ] spin -1 )
Dumping 'jdft.Ecomponents' ... done
IonicMinimize: Iter:   6  F: -6863.048806052902364  |grad|_K:  8.327e-05  alpha:  1.000e+00  linmin: -1.658e-01  t[s]:  55627.98
IonicMinimize: Converged (|grad|_K<1.000000e-04).

#--- Lowdin population analysis ---
# oxidation-state Cu +0.090 +0.040 +0.176 +0.113 +0.065 +0.074 +0.077 +0.074 +0.075 +0.078 +0.074 +0.067 +0.077 +0.074 +0.067 +0.106 +0.070 +0.067 +0.075 +0.070 +0.068 +0.074 +0.078 +0.074 +0.077 +0.076 +0.074 +0.065 +0.112 +0.075 +0.039 +0.090 +0.106 +0.176
# magnetic-moments Cu -0.000 +0.000 +0.000 +0.000 -0.000 +0.000 -0.000 +0.000 +0.000 -0.000 -0.000 -0.000 +0.000 +0.000 +0.000 -0.000 +0.000 -0.000 +0.000 -0.000 -0.000 +0.000 -0.000 +0.000 -0.000 -0.000 -0.000 +0.000 -0.000 -0.000 +0.000 -0.000 +0.000 -0.000


Dumping 'jdft.n_up' ... done
Dumping 'jdft.n_dn' ... done
Dumping 'jdft.tau_up' ... done
Dumping 'jdft.tau_dn' ... done
Dumping 'jdft.eigenvals' ... done
Dumping 'jdft.eigStats' ... 
	eMin: -4.046132 at state 36 ( [ +0.000000 +0.000000 +0.000000 ] spin -1 )
	HOMO: +0.092405 at state 12 ( [ +0.333333 +0.000000 +0.000000 ] spin 1 )
	mu  : +0.093406
	LUMO: +0.093864 at state 61 ( [ -0.333333 +0.333333 +0.000000 ] spin -1 )
	eMax: +0.475103 at state 18 ( [ +0.500000 +0.000000 +0.000000 ] spin 1 )
	HOMO-LUMO gap: +0.001459
	Optical gap  : +0.002890 at state 42 ( [ +0.166667 +0.000000 +0.000000 ] spin -1 )
Dumping 'jdft.kPts' ... done
Dumping 'jdft.dosUp' ... done.
Dumping 'jdft.dosDn' ... done.
End date and time: Tue Dec  7 03:29:16 2021  (Duration: 0-15:29:09.03)
Done!
