
*************** JDFTx 1.6.0  ***************

Start date and time: Mon Dec  6 16:44:50 2021
Executable /projects/musgravc/apps/jdftx-1.6.1/build/jdftx with command-line: -i in
Running on hosts (process indices):  shas0532.rc.int.colorado.edu (0-23)
Divided in process groups (process indices):  0 (0)  1 (1)  2 (2)  3 (3)  4 (4)  5 (5)  6 (6)  7 (7)  8 (8)  9 (9)  10 (10)  11 (11)  12 (12)  13 (13)  14 (14)  15 (15)  16 (16)  17 (17)  18 (18)  19 (19)  20 (20)  21 (21)  22 (22)  23 (23)
Resource initialization completed at t[s]:      0.00
Run totals: 24 processes, 24 threads, 0 GPUs


Input parsed successfully to the following command list (including defaults):

basis kpoint-dependent
converge-empty-states yes
coords-type Cartesian
core-overlap-check none
coulomb-interaction Periodic
davidson-band-ratio 1.1
density-of-states Etol 1.000000e-06 Esigma 1.000000e-03 \
		Complete \
	Total \
	OrthoOrbital Pt 1   s \
	OrthoOrbital Pt 1   p \
	OrthoOrbital Pt 1   px \
	OrthoOrbital Pt 1   py \
	OrthoOrbital Pt 1   pz \
	OrthoOrbital Pt 1   d \
	OrthoOrbital Pt 1   dxy \
	OrthoOrbital Pt 1   dyz \
	OrthoOrbital Pt 1   dz2 \
	OrthoOrbital Pt 1   dxz \
	OrthoOrbital Pt 1   dx2-y2 \
	OrthoOrbital Pt 2   s \
	OrthoOrbital Pt 2   p \
	OrthoOrbital Pt 2   px \
	OrthoOrbital Pt 2   py \
	OrthoOrbital Pt 2   pz \
	OrthoOrbital Pt 2   d \
	OrthoOrbital Pt 2   dxy \
	OrthoOrbital Pt 2   dyz \
	OrthoOrbital Pt 2   dz2 \
	OrthoOrbital Pt 2   dxz \
	OrthoOrbital Pt 2   dx2-y2 \
	OrthoOrbital Pt 3   s \
	OrthoOrbital Pt 3   p \
	OrthoOrbital Pt 3   px \
	OrthoOrbital Pt 3   py \
	OrthoOrbital Pt 3   pz \
	OrthoOrbital Pt 3   d \
	OrthoOrbital Pt 3   dxy \
	OrthoOrbital Pt 3   dyz \
	OrthoOrbital Pt 3   dz2 \
	OrthoOrbital Pt 3   dxz \
	OrthoOrbital Pt 3   dx2-y2 \
	OrthoOrbital Pt 4   s \
	OrthoOrbital Pt 4   p \
	OrthoOrbital Pt 4   px \
	OrthoOrbital Pt 4   py \
	OrthoOrbital Pt 4   pz \
	OrthoOrbital Pt 4   d \
	OrthoOrbital Pt 4   dxy \
	OrthoOrbital Pt 4   dyz \
	OrthoOrbital Pt 4   dz2 \
	OrthoOrbital Pt 4   dxz \
	OrthoOrbital Pt 4   dx2-y2 \
	OrthoOrbital Pt 5   s \
	OrthoOrbital Pt 5   p \
	OrthoOrbital Pt 5   px \
	OrthoOrbital Pt 5   py \
	OrthoOrbital Pt 5   pz \
	OrthoOrbital Pt 5   d \
	OrthoOrbital Pt 5   dxy \
	OrthoOrbital Pt 5   dyz \
	OrthoOrbital Pt 5   dz2 \
	OrthoOrbital Pt 5   dxz \
	OrthoOrbital Pt 5   dx2-y2 \
	OrthoOrbital Pt 6   s \
	OrthoOrbital Pt 6   p \
	OrthoOrbital Pt 6   px \
	OrthoOrbital Pt 6   py \
	OrthoOrbital Pt 6   pz \
	OrthoOrbital Pt 6   d \
	OrthoOrbital Pt 6   dxy \
	OrthoOrbital Pt 6   dyz \
	OrthoOrbital Pt 6   dz2 \
	OrthoOrbital Pt 6   dxz \
	OrthoOrbital Pt 6   dx2-y2 \
	OrthoOrbital Pt 7   s \
	OrthoOrbital Pt 7   p \
	OrthoOrbital Pt 7   px \
	OrthoOrbital Pt 7   py \
	OrthoOrbital Pt 7   pz \
	OrthoOrbital Pt 7   d \
	OrthoOrbital Pt 7   dxy \
	OrthoOrbital Pt 7   dyz \
	OrthoOrbital Pt 7   dz2 \
	OrthoOrbital Pt 7   dxz \
	OrthoOrbital Pt 7   dx2-y2 \
	OrthoOrbital Pt 8   s \
	OrthoOrbital Pt 8   p \
	OrthoOrbital Pt 8   px \
	OrthoOrbital Pt 8   py \
	OrthoOrbital Pt 8   pz \
	OrthoOrbital Pt 8   d \
	OrthoOrbital Pt 8   dxy \
	OrthoOrbital Pt 8   dyz \
	OrthoOrbital Pt 8   dz2 \
	OrthoOrbital Pt 8   dxz \
	OrthoOrbital Pt 8   dx2-y2
dump End ElecDensity KEdensity BandEigs EigStats RhoAtom DOS Kpoints
dump Ionic State IonicPositions Lattice EigStats Ecomponents
dump 
dump 
dump 
dump 
dump 
dump 
dump 
dump 
dump-name jdft.$VAR
elec-cutoff 20
elec-eigen-algo Davidson
elec-ex-corr gga-PBE
elec-initial-magnetization 0.000000 no
elec-n-bands 77
elec-smearing Fermi 0.001
electronic-minimize  \
	dirUpdateScheme      FletcherReeves \
	linminMethod         DirUpdateRecommended \
	nIterations          100 \
	history              15 \
	knormThreshold       0 \
	energyDiffThreshold  1e-07 \
	nEnergyDiff          2 \
	alphaTstart          1 \
	alphaTmin            1e-10 \
	updateTestStepSize   yes \
	alphaTreduceFactor   0.1 \
	alphaTincreaseFactor 3 \
	nAlphaAdjustMax      3 \
	wolfeEnergy          0.0001 \
	wolfeGradient        0.9 \
	fdTest               no
exchange-regularization WignerSeitzTruncated
fluid LinearPCM 298.000000 1.013250
fluid-anion F- 0.5 MeanFieldLJ \
	epsBulk 1 \
	pMol 0 \
	epsInf 1 \
	Pvap 0 \
	sigmaBulk 0 \
	Rvdw 2.24877 \
	Res 0 \
	tauNuc 343133
fluid-cation Na+ 0.5 MeanFieldLJ \
	epsBulk 1 \
	pMol 0 \
	epsInf 1 \
	Pvap 0 \
	sigmaBulk 0 \
	Rvdw 2.19208 \
	Res 0 \
	tauNuc 343133
fluid-ex-corr lda-TF lda-PZ
fluid-gummel-loop 10 1.000000e-05
fluid-minimize  \
	dirUpdateScheme      PolakRibiere \
	linminMethod         DirUpdateRecommended \
	nIterations          400 \
	history              15 \
	knormThreshold       1e-11 \
	energyDiffThreshold  0 \
	nEnergyDiff          2 \
	alphaTstart          1 \
	alphaTmin            1e-10 \
	updateTestStepSize   yes \
	alphaTreduceFactor   0.1 \
	alphaTincreaseFactor 3 \
	nAlphaAdjustMax      6 \
	wolfeEnergy          0.0001 \
	wolfeGradient        0.9 \
	fdTest               no
fluid-solvent H2O 55.338 ScalarEOS \
	epsBulk 78.4 \
	pMol 0.92466 \
	epsInf 1.77 \
	Pvap 1.06736e-10 \
	sigmaBulk 4.62e-05 \
	Rvdw 2.61727 \
	Res 1.42 \
	tauNuc 343133 \
	poleEl 15 7 1
forces-output-coords Positions
ion Pt   0.000000000000000   7.399158000000000  48.395955000000001 1
ion Pt   0.000000000000000   0.000000000000000  43.163959999999996 1
ion Pt   2.615997999999999   3.699579000000000  51.011952999999998 1
ion Pt   2.615997999999999   3.699579000000000  45.779957999999993 1
ion Pt   5.231995999999999   0.000000000000000  37.931964999999998 1
ion Pt   0.000000000000000   0.000000000000000  32.699970000000000 1
ion Pt   2.615997999999999   3.699579000000000  40.547961999999991 1
ion Pt   2.615997999999999   3.699579000000000  35.315967000000001 1
ion-species /projects/musgravc/apps/jdftx-1.6.0/build/pseudopotentials/GBRV_v1.5/$ID_pbe_v1.uspp
ion-species /projects/musgravc/apps/jdftx-1.6.0/build/pseudopotentials/GBRV_v1.5/$ID_pbe_v1.2.uspp
ion-species /projects/musgravc/apps/jdftx-1.6.0/build/pseudopotentials/GBRV_v1.5/$ID_pbe_v1.4.uspp
ion-species /projects/musgravc/apps/jdftx-1.6.0/build/pseudopotentials/GBRV_v1.5/$ID_pbe_v1.5.uspp
ion-width Ecut
ionic-minimize  \
	dirUpdateScheme      L-BFGS \
	linminMethod         DirUpdateRecommended \
	nIterations          100 \
	history              15 \
	knormThreshold       0.0001 \
	energyDiffThreshold  1e-06 \
	nEnergyDiff          2 \
	alphaTstart          1 \
	alphaTmin            1e-10 \
	updateTestStepSize   yes \
	alphaTreduceFactor   0.1 \
	alphaTincreaseFactor 3 \
	nAlphaAdjustMax      3 \
	wolfeEnergy          0.0001 \
	wolfeGradient        0.9 \
	fdTest               no
kpoint   0.000000000000   0.000000000000   0.000000000000  1.00000000000000
kpoint-folding 12 8 1 
latt-move-scale 0 0 0
latt-scale 1 1 1 
lattice  \
	   5.231996000000000    0.000000000000000    0.000000000000000  \
	   0.000000000000000    7.399158000000000    0.000000000000000  \
	  -0.000000000000000    0.000000000000000   52.319952000000001 
lattice-minimize  \
	dirUpdateScheme      L-BFGS \
	linminMethod         DirUpdateRecommended \
	nIterations          0 \
	history              15 \
	knormThreshold       0 \
	energyDiffThreshold  1e-06 \
	nEnergyDiff          2 \
	alphaTstart          1 \
	alphaTmin            1e-10 \
	updateTestStepSize   yes \
	alphaTreduceFactor   0.1 \
	alphaTincreaseFactor 3 \
	nAlphaAdjustMax      3 \
	wolfeEnergy          0.0001 \
	wolfeGradient        0.9 \
	fdTest               no
lcao-params 30 1e-06 0.001
pcm-variant CANDLE
spintype z-spin
subspace-rotation-factor 1 yes
symmetries none
symmetry-threshold 0.0001
target-mu -0.0978 no

van-der-waals D3


Applied RMS atom displacement 0 bohrs to make symmetries exact.

---------- Initializing the Grid ----------
R = 
[        5.232            0            0  ]
[            0      7.39916            0  ]
[            0            0        52.32  ]
unit cell volume = 2025.43
G =
[    1.20092          0          0  ]
[         -0   0.849176          0  ]
[          0         -0   0.120092  ]
Minimum fftbox size, Smin = [  24  32  212  ]
Chosen fftbox size, S = [  24  32  216  ]

---------- Exchange Correlation functional ----------
Initalized PBE GGA exchange.
Initalized PBE GGA correlation.

---------- Setting up pseudopotentials ----------
Width of ionic core gaussian charges (only for fluid interactions / plotting) set to 0.397384

Reading pseudopotential file '/projects/musgravc/apps/jdftx-1.6.0/build/pseudopotentials/GBRV_v1.5/pt_pbe_v1.4.uspp':
  Title: Pt.  Created by USPP 7.3.6 on 31-3-15
  Reference state energy: -105.002503.  16 valence electrons in orbitals:
    |510>  occupation: 6  eigenvalue: -2.158104
    |520>  occupation: 9.5  eigenvalue: -0.335376
    |600>  occupation: 0  eigenvalue: -0.319640
    |610>  occupation: 0  eigenvalue: -0.122947
  lMax: 2  lLocal: 3  QijEcut: 5.5
  6 projectors sampled on a log grid with 745 points:
    l: 0  eig: -0.319640  rCut: 2.45
    l: 0  eig: 1.500000  rCut: 2.45
    l: 1  eig: -2.158104  rCut: 1.6
    l: 1  eig: -0.122947  rCut: 1.6
    l: 2  eig: -0.500000  rCut: 1.6
    l: 2  eig: -0.335375  rCut: 1.6
  Partial core density with radius 1.1
  Transforming core density to a uniform radial grid of dG=0.02 with 1189 points.
  Transforming local potential to a uniform radial grid of dG=0.02 with 1189 points.
  Transforming nonlocal projectors to a uniform radial grid of dG=0.02 with 432 points.
  Transforming density augmentations to a uniform radial grid of dG=0.02 with 1189 points.
  Transforming atomic orbitals to a uniform radial grid of dG=0.02 with 432 points.
  Core radius for overlap checks: 2.45 bohrs.

Initialized 1 species with 8 total atoms.

Folded 1 k-points by 12x8x1 to 96 k-points.

---------- Setting up k-points, bands, fillings ----------
No reducable k-points. 
Computing the number of bands and number of electrons
Calculating initial fillings.
nElectrons: 128.000000   nBands: 77   nStates: 192

----- Setting up reduced wavefunction bases (one per k-point) -----
average nbasis = 8653.510 , ideal nbasis = 8652.787

----- Initializing Supercell corresponding to k-point mesh -----
Lattice vector linear combinations in supercell:
[  12   0   0  ]
[   0   8   0  ]
[   0   0   1  ]
Supercell lattice vectors:
[  62.784  0  0  ]
[  0  59.1933  0  ]
[  0  0  52.32  ]

Initializing DFT-D3 calculator:
	Parameters set for gga-PBE functional
	s6:  1.000  s_r6:  1.217
	s8:  0.722  s_r8:  1.000
	Per-atom parameters loaded for:
	Pt:  sqrtQ[a0]:  5.888  Rcov[a0]:  2.116  CN: [ 0.00 1.92 6.67 ]

Initializing DFT-D2 calculator for fluid / solvation:
	Pt:  C6:  815.23 Eh-a0^6  R0: 3.326 a0 (WARNING: beyond Grimme's data set)

---------- Setting up ewald sum ----------
Optimum gaussian width for ewald sums = 3.569171 bohr.
Real space sum over 1105 unit cells with max indices [  8  6  2  ]
Reciprocal space sum over 4851 terms with max indices [  4  5  24  ]

Computing DFT-D3 correction:
# coordination-number Pt 8.717 9.559 5.590 9.548 9.548 5.590 9.559 8.717
# diagonal-C6 Pt 336.87 336.87 336.87 336.87 336.87 336.87 336.87 336.87
EvdW_6 =   -0.066597
EvdW_8 =   -0.110042

---------- Allocating electronic variables ----------
Initializing wave functions:  linear combination of atomic orbitals
Pt pseudo-atom occupations:   s ( 0 )  p ( 6 0 )  d ( 10 )
	FillingsUpdate:  mu: -0.097800000  nElectrons: 128.000000  magneticMoment: [ Abs: 0.00181  Tot: +0.00043 ]
LCAOMinimize: Iter:   0  G: -695.0631278157620727  |grad|_K:  1.134e-02  alpha:  1.000e+00
LCAOMinimize: 	Step increased G by 9.297825e+01, reducing alpha to 2.301486e-02.
	FillingsUpdate:  mu: -0.097800000  nElectrons: 128.000000  magneticMoment: [ Abs: 0.00132  Tot: +0.00006 ]
LCAOMinimize: Iter:   1  G: -698.1325001586642429  |grad|_K:  2.736e-03  alpha:  2.301e-02  linmin:  6.716e-02  cgtest: -3.122e-01  t[s]:     32.41
LCAOMinimize: 	Predicted alpha/alphaT>3.000000, increasing alphaT to 6.904458e-02.
	FillingsUpdate:  mu: -0.097800000  nElectrons: 128.000000  magneticMoment: [ Abs: 0.00105  Tot: +0.00009 ]
LCAOMinimize: Iter:   2  G: -698.5471750872183065  |grad|_K:  3.717e-03  alpha:  7.727e-02  linmin:  3.599e-03  cgtest:  5.493e-01  t[s]:     45.58
	FillingsUpdate:  mu: -0.097800000  nElectrons: 128.000000  magneticMoment: [ Abs: 0.00098  Tot: +0.00010 ]
LCAOMinimize: Iter:   3  G: -698.7821321871156215  |grad|_K:  1.412e-03  alpha:  1.981e-02  linmin:  5.501e-02  cgtest: -2.852e-01  t[s]:     55.79
LCAOMinimize: 	Predicted alpha/alphaT>3.000000, increasing alphaT to 5.943677e-02.
	FillingsUpdate:  mu: -0.097800000  nElectrons: 128.000000  magneticMoment: [ Abs: 0.00079  Tot: +0.00005 ]
LCAOMinimize: Iter:   4  G: -698.9486195886483983  |grad|_K:  2.802e-03  alpha:  1.219e-01  linmin: -3.974e-03  cgtest:  2.688e-01  t[s]:     68.87
	FillingsUpdate:  mu: -0.097800000  nElectrons: 128.000000  magneticMoment: [ Abs: 0.00072  Tot: +0.00007 ]
LCAOMinimize: Iter:   5  G: -698.9785373301729123  |grad|_K:  3.244e-03  alpha:  1.420e-02  linmin:  3.245e-02  cgtest: -8.561e-01  t[s]:     79.12
LCAOMinimize: 	Bad step direction: g.d > 0.
LCAOMinimize: 	Undoing step.
LCAOMinimize: 	Step failed: resetting search direction.
	FillingsUpdate:  mu: -0.097800000  nElectrons: 128.000000  magneticMoment: [ Abs: 0.00072  Tot: +0.00007 ]
LCAOMinimize: Iter:   6  G: -698.9785373301729123  |grad|_K:  3.244e-03  alpha:  0.000e+00
	FillingsUpdate:  mu: -0.097800000  nElectrons: 128.000000  magneticMoment: [ Abs: 0.00071  Tot: +0.00007 ]
LCAOMinimize: Iter:   7  G: -699.0299797039574514  |grad|_K:  4.263e-04  alpha:  5.353e-03  linmin: -1.930e-02  cgtest:  4.629e-02  t[s]:     96.69
LCAOMinimize: 	Predicted alpha/alphaT>3.000000, increasing alphaT to 1.605919e-02.
LCAOMinimize: 	Predicted alpha/alphaT>3.000000, increasing alphaT to 4.817758e-02.
	FillingsUpdate:  mu: -0.097800000  nElectrons: 128.000000  magneticMoment: [ Abs: 0.00069  Tot: +0.00006 ]
LCAOMinimize: Iter:   8  G: -699.0459665730513734  |grad|_K:  7.077e-04  alpha:  9.805e-02  linmin:  2.156e-03  cgtest: -6.556e-03  t[s]:    112.80
	FillingsUpdate:  mu: -0.097800000  nElectrons: 128.000000  magneticMoment: [ Abs: 0.00067  Tot: +0.00005 ]
LCAOMinimize: Iter:   9  G: -699.0602957129910919  |grad|_K:  8.753e-04  alpha:  3.286e-02  linmin:  7.883e-04  cgtest:  8.152e-02  t[s]:    123.00
	FillingsUpdate:  mu: -0.097800000  nElectrons: 128.000000  magneticMoment: [ Abs: 0.00066  Tot: +0.00004 ]
LCAOMinimize: Iter:  10  G: -699.0652098146010758  |grad|_K:  3.531e-04  alpha:  7.311e-03  linmin:  1.380e-03  cgtest:  2.826e-02  t[s]:    134.65
LCAOMinimize: 	Predicted alpha/alphaT>3.000000, increasing alphaT to 2.193306e-02.
LCAOMinimize: 	Predicted alpha/alphaT>3.000000, increasing alphaT to 6.579918e-02.
	FillingsUpdate:  mu: -0.097800000  nElectrons: 128.000000  magneticMoment: [ Abs: 0.00061  Tot: +0.00002 ]
LCAOMinimize: Iter:  11  G: -699.0809513562610391  |grad|_K:  6.239e-04  alpha:  1.411e-01  linmin: -8.937e-05  cgtest:  1.016e-02  t[s]:    150.58
	FillingsUpdate:  mu: -0.097800000  nElectrons: 128.000000  magneticMoment: [ Abs: 0.00059  Tot: +0.00002 ]
LCAOMinimize: Iter:  12  G: -699.0852371843977835  |grad|_K:  4.670e-04  alpha:  1.105e-02  linmin: -4.679e-03  cgtest:  1.144e-01  t[s]:    160.98
	FillingsUpdate:  mu: -0.097800000  nElectrons: 128.000000  magneticMoment: [ Abs: 0.00059  Tot: +0.00002 ]
LCAOMinimize: Iter:  13  G: -699.0876504679417849  |grad|_K:  1.790e-04  alpha:  1.132e-02  linmin:  8.751e-04  cgtest: -3.091e-01  t[s]:    171.30
	FillingsUpdate:  mu: -0.097800000  nElectrons: 128.000000  magneticMoment: [ Abs: 0.00059  Tot: +0.00003 ]
LCAOMinimize: Iter:  14  G: -699.0881402473577282  |grad|_K:  1.965e-04  alpha:  1.712e-02  linmin:  3.384e-04  cgtest:  4.970e-02  t[s]:    181.58
	FillingsUpdate:  mu: -0.097800000  nElectrons: 128.000000  magneticMoment: [ Abs: 0.00058  Tot: +0.00003 ]
LCAOMinimize: Iter:  15  G: -699.0892704193588543  |grad|_K:  1.914e-04  alpha:  3.239e-02  linmin: -5.346e-04  cgtest: -7.841e-03  t[s]:    191.92
	FillingsUpdate:  mu: -0.097800000  nElectrons: 128.000000  magneticMoment: [ Abs: 0.00058  Tot: +0.00003 ]
LCAOMinimize: Iter:  16  G: -699.0895794624079826  |grad|_K:  9.745e-05  alpha:  9.294e-03  linmin: -2.566e-04  cgtest: -1.558e-02  t[s]:    202.13
	FillingsUpdate:  mu: -0.097800000  nElectrons: 128.000000  magneticMoment: [ Abs: 0.00058  Tot: +0.00003 ]
LCAOMinimize: Iter:  17  G: -699.0896952886694180  |grad|_K:  6.112e-05  alpha:  1.334e-02  linmin: -4.604e-03  cgtest:  4.439e-02  t[s]:    212.38
	FillingsUpdate:  mu: -0.097800000  nElectrons: 128.000000  magneticMoment: [ Abs: 0.00058  Tot: +0.00003 ]
LCAOMinimize: Iter:  18  G: -699.0898123355023017  |grad|_K:  1.092e-04  alpha:  3.286e-02  linmin: -1.902e-03  cgtest: -5.997e-03  t[s]:    222.75
	FillingsUpdate:  mu: -0.097800000  nElectrons: 128.000000  magneticMoment: [ Abs: 0.00058  Tot: +0.00003 ]
LCAOMinimize: Iter:  19  G: -699.0900387182309714  |grad|_K:  8.652e-05  alpha:  2.020e-02  linmin: -3.303e-04  cgtest: -7.400e-02  t[s]:    232.99
	FillingsUpdate:  mu: -0.097800000  nElectrons: 128.000000  magneticMoment: [ Abs: 0.00058  Tot: +0.00003 ]
LCAOMinimize: Iter:  20  G: -699.0901405834231355  |grad|_K:  4.717e-05  alpha:  1.494e-02  linmin:  2.961e-04  cgtest:  6.278e-03  t[s]:    243.22
	FillingsUpdate:  mu: -0.097800000  nElectrons: 128.000000  magneticMoment: [ Abs: 0.00058  Tot: +0.00003 ]
LCAOMinimize: Iter:  21  G: -699.0901596482572131  |grad|_K:  2.897e-05  alpha:  9.443e-03  linmin:  1.494e-03  cgtest: -1.441e-02  t[s]:    253.62
	FillingsUpdate:  mu: -0.097800000  nElectrons: 128.000000  magneticMoment: [ Abs: 0.00058  Tot: +0.00003 ]
LCAOMinimize: Iter:  22  G: -699.0901759178308339  |grad|_K:  2.676e-05  alpha:  2.221e-02  linmin:  3.772e-03  cgtest: -1.968e-02  t[s]:    263.86
	FillingsUpdate:  mu: -0.097800000  nElectrons: 128.000000  magneticMoment: [ Abs: 0.00058  Tot: +0.00003 ]
LCAOMinimize: Iter:  23  G: -699.0901849695510464  |grad|_K:  2.045e-05  alpha:  1.472e-02  linmin: -2.155e-03  cgtest:  9.646e-02  t[s]:    274.09
	FillingsUpdate:  mu: -0.097800000  nElectrons: 128.000000  magneticMoment: [ Abs: 0.00058  Tot: +0.00003 ]
LCAOMinimize: Iter:  24  G: -699.0901890422799170  |grad|_K:  1.080e-05  alpha:  1.083e-02  linmin: -1.198e-02  cgtest:  5.254e-02  t[s]:    284.55
	FillingsUpdate:  mu: -0.097800000  nElectrons: 128.000000  magneticMoment: [ Abs: 0.00058  Tot: +0.00003 ]
LCAOMinimize: Iter:  25  G: -699.0901907067775483  |grad|_K:  9.422e-06  alpha:  1.425e-02  linmin: -2.693e-02  cgtest:  1.600e-01  t[s]:    294.71
	FillingsUpdate:  mu: -0.097800000  nElectrons: 128.000000  magneticMoment: [ Abs: 0.00058  Tot: +0.00003 ]
LCAOMinimize: Iter:  26  G: -699.0901928931124303  |grad|_K:  1.059e-05  alpha:  2.190e-02  linmin: -1.465e-02  cgtest: -7.809e-02  t[s]:    304.93
	FillingsUpdate:  mu: -0.097800000  nElectrons: 128.000000  magneticMoment: [ Abs: 0.00058  Tot: +0.00003 ]
LCAOMinimize: Iter:  27  G: -699.0901945614077704  |grad|_K:  5.333e-06  alpha:  1.398e-02  linmin: -8.194e-03  cgtest: -3.476e-01  t[s]:    315.18
	FillingsUpdate:  mu: -0.097800000  nElectrons: 128.000000  magneticMoment: [ Abs: 0.00058  Tot: +0.00003 ]
LCAOMinimize: Iter:  28  G: -699.0901948298768502  |grad|_K:  2.224e-06  alpha:  9.840e-03  linmin: -3.052e-02  cgtest:  2.354e-01  t[s]:    325.39
	FillingsUpdate:  mu: -0.097800000  nElectrons: 128.000000  magneticMoment: [ Abs: 0.00058  Tot: +0.00003 ]
LCAOMinimize: Iter:  29  G: -699.0901948740611260  |grad|_K:  1.999e-06  alpha:  9.546e-03  linmin: -1.248e-01  cgtest:  9.205e-01  t[s]:    335.58
LCAOMinimize: Encountered beta<0, resetting CG.
LCAOMinimize: Converged (|Delta G|<1.000000e-06 for 2 iters).
----- createFluidSolver() ----- (Fluid-side solver setup)
   Initializing fluid molecule 'H2O'
     Initializing site 'O'
       Electron density: proportional to exp(-r/0.36935)*erfc((r-0.51523)/0.36823) with norm 6.826
       Charge density: gaussian nuclear width 0.478731 with net site charge 0.826
       Polarizability: cuspless exponential with width 0.32 and norm 3.73
       Hard sphere radius: 2.57003 bohrs
       Positions in reference frame:
         [ +0.000000 +0.000000 +0.000000 ]
     Initializing site 'H'
       Electron density: proportional to exp(-r/0.34641)*erfc((r-0)/0.390882) with norm 0.587
       Charge density: gaussian nuclear width 0.377945 with net site charge -0.413
       Polarizability: cuspless exponential with width 0.39 and norm 3.3
       Positions in reference frame:
         [ +0.000000 -1.441945 +1.122523 ]
         [ +0.000000 +1.441945 +1.122523 ]
     Net charge: 0   dipole magnitude: 0.927204
     Initializing spherical shell mfKernel with radius 2.61727 Bohr
     deltaS corrections:
       site 'O': -7.54299
       site 'H': -6.83917
   Initializing fluid molecule 'Na+'
     Initializing site 'Na'
       Electron density: proportional to exp(-r/0.19682)*erfc((r-0.71491)/0.41314) with norm 8.1383
       Charge density: gaussian nuclear width 0.365347 with net site charge -1
       Hard sphere radius: 1.86327 bohrs
       Positions in reference frame:
         [ +0.000000 +0.000000 +0.000000 ]
     Net charge: -1   dipole magnitude: 0
     Initializing gaussian mfKernel with width: 1.55004 Bohr
     deltaS corrections:
       site 'Na': -22.3555
   Initializing fluid molecule 'F-'
     Initializing site 'F'
       Electron density: proportional to exp(-r/0.38886)*erfc((r-0)/0.438782) with norm 8
       Charge density: gaussian nuclear width 0.374796 with net site charge 1
       Hard sphere radius: 2.39995 bohrs
       Positions in reference frame:
         [ +0.000000 +0.000000 +0.000000 ]
     Net charge: 1   dipole magnitude: 0
     Initializing gaussian mfKernel with width: 1.59012 Bohr
     deltaS corrections:
       site 'F': -9.04335

Correction to mu due to finite nuclear width = -0.0627036
   Cavity determined by nc: 0.00142 and sigma: 0.707107
   Nonlocal vdW cavity from gaussian model electron density with norm = 8 and sigma = 0.993594 bohr
   Charge asymmetry in cavity with sensitivity pCavity = 36.5 e-bohr/Eh
   Electrostatic cavity expanded by eta = 1.46 bohrs
   Weighted density cavitation model constrained by Nbulk: 0.0049383 bohr^-3, Pvap: 3.14029 kPa, Rvdw: 2.61727 bohr and sigmaBulk: 4.62e-05 Eh/bohr^2 at T: 298 K.
   Weighted density dispersion model using vdW pair potentials with single solvent site with sqrtC6eff: 0.77 SI.


---- Citations for features of the code used in this run ----

   Software package:
      R. Sundararaman, K. Letchworth-Weaver, K.A. Schwarz, D. Gunceler, Y. Ozhabes and T.A. Arias, 'JDFTx: software for joint density-functional theory', SoftwareX 6, 278 (2017)

   gga-PBE exchange-correlation functional:
      J.P. Perdew, K. Burke and M. Ernzerhof, Phys. Rev. Lett. 77, 3865 (1996)

   Pseudopotentials:
      KF Garrity, JW Bennett, KM Rabe and D Vanderbilt, Comput. Mater. Sci. 81, 446 (2014)

   DFT-D3 dispersion correction:
      S. Grimme, J. Antony, S. Ehrlich and H. Krieg, J. Chem. Phys. 132, 154104 (2010)

   DFT-D2 dispersion correction:
      S. Grimme, J. Comput. Chem. 27, 1787 (2006)

   Charge-asymmetric nonlocally-determined local-electric (CANDLE) solvation model:
      R. Sundararaman and W.A. Goddard III, J. Chem. Phys. 142, 064107 (2015)

   Total energy minimization with Auxiliary Hamiltonian:
      C. Freysoldt, S. Boeck, and J. Neugebauer, Phys. Rev. B 79, 241103(R) (2009)

   Grand-canonical (fixed-potential) DFT:
      R. Sundararaman, W. A. Goddard III and T. A. Arias, J. Chem. Phys. 146, 114104 (2017)

   Linear-tetrahedron sampling for density of states:
      G. Lehmann and M. Taut, Phys. status solidi (b) 54, 469 (1972)

This list may not be complete. Please suggest additional citations or
report any other bugs at https://github.com/shankar1729/jdftx/issues

Initialization completed successfully at t[s]:    339.60


Computing DFT-D3 correction:
# coordination-number Pt 8.717 9.559 5.590 9.548 9.548 5.590 9.559 8.717
# diagonal-C6 Pt 336.87 336.87 336.87 336.87 336.87 336.87 336.87 336.87
EvdW_6 =   -0.066597
EvdW_8 =   -0.110042
Fluid solver invoked on fresh (random / LCAO) wavefunctions
Running a vacuum solve first:

-------- Initial electronic minimization -----------
	FillingsUpdate:  mu: +0.205082463  nElectrons: 128.000000  magneticMoment: [ Abs: 0.00058  Tot: +0.00003 ]
ElecMinimize: Iter:   0  G: -699.091911477257213  |grad|_K:  3.899e-05  alpha:  1.000e+00
	FillingsUpdate:  mu: +0.235331589  nElectrons: 128.000000  magneticMoment: [ Abs: 0.00047  Tot: +0.00003 ]
	SubspaceRotationAdjust: set factor to 1
ElecMinimize: Iter:   1  G: -699.176724080369922  |grad|_K:  2.201e-05  alpha:  4.357e-01  linmin:  2.396e-05  t[s]:    361.07
	FillingsUpdate:  mu: +0.213346621  nElectrons: 128.000000  magneticMoment: [ Abs: 0.00044  Tot: +0.00003 ]
	SubspaceRotationAdjust: set factor to 0.566
ElecMinimize: Iter:   2  G: -699.183097634112073  |grad|_K:  4.726e-05  alpha:  1.004e-01  linmin: -8.472e-05  t[s]:    374.23
	FillingsUpdate:  mu: +0.219552654  nElectrons: 128.000000  magneticMoment: [ Abs: 0.00043  Tot: +0.00003 ]
	SubspaceRotationAdjust: set factor to 0.305
ElecMinimize: Iter:   3  G: -699.188346662838626  |grad|_K:  4.923e-05  alpha:  1.846e-02  linmin:  1.194e-04  t[s]:    387.34
	FillingsUpdate:  mu: +0.203219157  nElectrons: 128.000000  magneticMoment: [ Abs: 0.00042  Tot: +0.00004 ]
	SubspaceRotationAdjust: set factor to 0.411
ElecMinimize: Iter:   4  G: -699.197332688338406  |grad|_K:  1.211e-05  alpha:  2.957e-02  linmin: -2.954e-05  t[s]:    400.50
	FillingsUpdate:  mu: +0.216424299  nElectrons: 128.000000  magneticMoment: [ Abs: 0.00040  Tot: +0.00004 ]
	SubspaceRotationAdjust: set factor to 0.232
ElecMinimize: Iter:   5  G: -699.198775406109007  |grad|_K:  2.466e-05  alpha:  7.624e-02  linmin: -4.005e-06  t[s]:    413.69
	FillingsUpdate:  mu: +0.215830860  nElectrons: 128.000000  magneticMoment: [ Abs: 0.00038  Tot: +0.00004 ]
	SubspaceRotationAdjust: set factor to 0.314
ElecMinimize: Iter:   6  G: -699.202550461043074  |grad|_K:  6.565e-06  alpha:  4.846e-02  linmin:  4.547e-06  t[s]:    427.37
ElecMinimize: 	Predicted alpha/alphaT>3.000000, increasing alphaT to 1.453816e-01.
	FillingsUpdate:  mu: +0.208843106  nElectrons: 128.000000  magneticMoment: [ Abs: 0.00036  Tot: +0.00005 ]
	SubspaceRotationAdjust: set factor to 0.19
ElecMinimize: Iter:   7  G: -699.203467110376664  |grad|_K:  1.017e-05  alpha:  1.656e-01  linmin:  8.326e-07  t[s]:    444.52
	FillingsUpdate:  mu: +0.207948705  nElectrons: 128.000000  magneticMoment: [ Abs: 0.00035  Tot: +0.00005 ]
	SubspaceRotationAdjust: set factor to 0.137
ElecMinimize: Iter:   8  G: -699.203889117169410  |grad|_K:  6.710e-06  alpha:  3.179e-02  linmin:  1.043e-05  t[s]:    457.69
ElecMinimize: 	Predicted alpha/alphaT>3.000000, increasing alphaT to 9.536673e-02.
	FillingsUpdate:  mu: +0.214588030  nElectrons: 128.000000  magneticMoment: [ Abs: 0.00033  Tot: +0.00005 ]
	SubspaceRotationAdjust: set factor to 0.184
ElecMinimize: Iter:   9  G: -699.204564176826921  |grad|_K:  3.695e-06  alpha:  1.168e-01  linmin: -1.424e-05  t[s]:    474.36
	FillingsUpdate:  mu: +0.215320763  nElectrons: 128.000000  magneticMoment: [ Abs: 0.00032  Tot: +0.00005 ]
	SubspaceRotationAdjust: set factor to 0.125
	SubspaceRotationAdjust: resetting CG because factor has changed by 0.125005
ElecMinimize: 	State modified externally: resetting search direction.
ElecMinimize: Iter:  10  G: -699.204727553678254  |grad|_K:  4.319e-06  alpha:  9.299e-02
	FillingsUpdate:  mu: +0.213748566  nElectrons: 128.000000  magneticMoment: [ Abs: 0.00032  Tot: +0.00005 ]
	SubspaceRotationAdjust: set factor to 0.14
ElecMinimize: Iter:  11  G: -699.204864327637779  |grad|_K:  2.786e-06  alpha:  5.705e-02  linmin:  2.336e-06  t[s]:    507.59
ElecMinimize: 	Predicted alpha/alphaT>3.000000, increasing alphaT to 1.711529e-01.
	FillingsUpdate:  mu: +0.210485074  nElectrons: 128.000000  magneticMoment: [ Abs: 0.00030  Tot: +0.00005 ]
	SubspaceRotationAdjust: set factor to 0.112
ElecMinimize: Iter:  12  G: -699.205064615033166  |grad|_K:  1.918e-06  alpha:  2.008e-01  linmin:  4.196e-05  t[s]:    524.39
	FillingsUpdate:  mu: +0.214267172  nElectrons: 128.000000  magneticMoment: [ Abs: 0.00028  Tot: +0.00005 ]
	SubspaceRotationAdjust: set factor to 0.0787
ElecMinimize: Iter:  13  G: -699.205190752016961  |grad|_K:  1.570e-06  alpha:  2.669e-01  linmin: -1.429e-05  t[s]:    537.52
	FillingsUpdate:  mu: +0.213668530  nElectrons: 128.000000  magneticMoment: [ Abs: 0.00026  Tot: +0.00005 ]
	SubspaceRotationAdjust: set factor to 0.0867
ElecMinimize: Iter:  14  G: -699.205323867341235  |grad|_K:  1.171e-06  alpha:  4.205e-01  linmin:  1.953e-05  t[s]:    550.68
	FillingsUpdate:  mu: +0.213365007  nElectrons: 128.000000  magneticMoment: [ Abs: 0.00026  Tot: +0.00005 ]
	SubspaceRotationAdjust: set factor to 0.0638
ElecMinimize: Iter:  15  G: -699.205352667814736  |grad|_K:  1.343e-06  alpha:  1.636e-01  linmin: -2.636e-06  t[s]:    563.88
	FillingsUpdate:  mu: +0.213274915  nElectrons: 128.000000  magneticMoment: [ Abs: 0.00024  Tot: +0.00005 ]
	SubspaceRotationAdjust: set factor to 0.0498
ElecMinimize: Iter:  16  G: -699.205401589291569  |grad|_K:  7.213e-07  alpha:  2.111e-01  linmin:  8.800e-06  t[s]:    576.95
	FillingsUpdate:  mu: +0.214900846  nElectrons: 128.000000  magneticMoment: [ Abs: 0.00024  Tot: +0.00005 ]
	SubspaceRotationAdjust: set factor to 0.0392
ElecMinimize: Iter:  17  G: -699.205427187271084  |grad|_K:  5.682e-07  alpha:  3.831e-01  linmin: -6.184e-06  t[s]:    590.21
	FillingsUpdate:  mu: +0.214742451  nElectrons: 128.000000  magneticMoment: [ Abs: 0.00023  Tot: +0.00005 ]
	SubspaceRotationAdjust: set factor to 0.033
ElecMinimize: Iter:  18  G: -699.205440754243000  |grad|_K:  5.426e-07  alpha:  3.268e-01  linmin:  1.968e-06  t[s]:    603.31
	FillingsUpdate:  mu: +0.214189100  nElectrons: 128.000000  magneticMoment: [ Abs: 0.00023  Tot: +0.00005 ]
	SubspaceRotationAdjust: set factor to 0.0271
ElecMinimize: Iter:  19  G: -699.205450565824890  |grad|_K:  3.583e-07  alpha:  2.593e-01  linmin:  2.720e-06  t[s]:    616.48
	FillingsUpdate:  mu: +0.214120354  nElectrons: 128.000000  magneticMoment: [ Abs: 0.00022  Tot: +0.00005 ]
	SubspaceRotationAdjust: set factor to 0.0322
ElecMinimize: Iter:  20  G: -699.205459500708912  |grad|_K:  3.676e-07  alpha:  5.418e-01  linmin:  5.945e-06  t[s]:    629.55
	FillingsUpdate:  mu: +0.214440762  nElectrons: 128.000000  magneticMoment: [ Abs: 0.00020  Tot: +0.00005 ]
	SubspaceRotationAdjust: set factor to 0.0309
ElecMinimize: Iter:  21  G: -699.205469930190930  |grad|_K:  4.157e-07  alpha:  6.011e-01  linmin:  4.289e-07  t[s]:    642.76
	FillingsUpdate:  mu: +0.214390599  nElectrons: 128.000000  magneticMoment: [ Abs: 0.00019  Tot: +0.00005 ]
	SubspaceRotationAdjust: set factor to 0.0244
ElecMinimize: Iter:  22  G: -699.205476836051730  |grad|_K:  3.431e-07  alpha:  3.111e-01  linmin:  2.676e-07  t[s]:    655.82
	FillingsUpdate:  mu: +0.214120352  nElectrons: 128.000000  magneticMoment: [ Abs: 0.00018  Tot: +0.00005 ]
	SubspaceRotationAdjust: set factor to 0.0264
ElecMinimize: Iter:  23  G: -699.205484395026815  |grad|_K:  3.033e-07  alpha:  4.997e-01  linmin: -1.628e-06  t[s]:    668.90
	FillingsUpdate:  mu: +0.214625736  nElectrons: 128.000000  magneticMoment: [ Abs: 0.00015  Tot: +0.00005 ]
	SubspaceRotationAdjust: set factor to 0.0265
ElecMinimize: Iter:  24  G: -699.205492628628917  |grad|_K:  3.586e-07  alpha:  6.959e-01  linmin: -1.205e-05  t[s]:    682.07
	FillingsUpdate:  mu: +0.214891780  nElectrons: 128.000000  magneticMoment: [ Abs: 0.00013  Tot: +0.00005 ]
	SubspaceRotationAdjust: set factor to 0.0214
ElecMinimize: Iter:  25  G: -699.205499290742409  |grad|_K:  3.195e-07  alpha:  4.029e-01  linmin:  1.888e-06  t[s]:    695.21
	FillingsUpdate:  mu: +0.214692029  nElectrons: 128.000000  magneticMoment: [ Abs: 0.00011  Tot: +0.00005 ]
	SubspaceRotationAdjust: set factor to 0.0206
ElecMinimize: Iter:  26  G: -699.205505183772402  |grad|_K:  2.519e-07  alpha:  4.493e-01  linmin: -4.438e-06  t[s]:    708.54
	FillingsUpdate:  mu: +0.214640739  nElectrons: 128.000000  magneticMoment: [ Abs: 0.00010  Tot: +0.00005 ]
	SubspaceRotationAdjust: set factor to 0.0219
ElecMinimize: Iter:  27  G: -699.205509187690382  |grad|_K:  2.054e-07  alpha:  4.907e-01  linmin: -3.389e-06  t[s]:    721.66
	FillingsUpdate:  mu: +0.214744646  nElectrons: 128.000000  magneticMoment: [ Abs: 0.00009  Tot: +0.00006 ]
	SubspaceRotationAdjust: set factor to 0.0189
ElecMinimize: Iter:  28  G: -699.205511479928532  |grad|_K:  1.578e-07  alpha:  4.226e-01  linmin: -1.653e-06  t[s]:    736.05
	FillingsUpdate:  mu: +0.214756518  nElectrons: 128.000000  magneticMoment: [ Abs: 0.00009  Tot: +0.00006 ]
	SubspaceRotationAdjust: set factor to 0.0177
ElecMinimize: Iter:  29  G: -699.205512834907836  |grad|_K:  1.263e-07  alpha:  4.232e-01  linmin: -3.300e-07  t[s]:    749.20
	FillingsUpdate:  mu: +0.214721032  nElectrons: 128.000000  magneticMoment: [ Abs: 0.00008  Tot: +0.00006 ]
	SubspaceRotationAdjust: set factor to 0.0194
ElecMinimize: Iter:  30  G: -699.205513891314808  |grad|_K:  9.916e-08  alpha:  5.155e-01  linmin: -2.762e-06  t[s]:    762.39
	FillingsUpdate:  mu: +0.214742333  nElectrons: 128.000000  magneticMoment: [ Abs: 0.00008  Tot: +0.00006 ]
	SubspaceRotationAdjust: set factor to 0.018
ElecMinimize: Iter:  31  G: -699.205514432000541  |grad|_K:  7.320e-08  alpha:  4.278e-01  linmin: -3.039e-07  t[s]:    775.42
	FillingsUpdate:  mu: +0.214747533  nElectrons: 128.000000  magneticMoment: [ Abs: 0.00008  Tot: +0.00006 ]
	SubspaceRotationAdjust: set factor to 0.0179
ElecMinimize: Iter:  32  G: -699.205514722737917  |grad|_K:  5.608e-08  alpha:  4.221e-01  linmin:  7.956e-07  t[s]:    788.45
	FillingsUpdate:  mu: +0.214726376  nElectrons: 128.000000  magneticMoment: [ Abs: 0.00008  Tot: +0.00006 ]
	SubspaceRotationAdjust: set factor to 0.0205
ElecMinimize: Iter:  33  G: -699.205514941323486  |grad|_K:  4.898e-08  alpha:  5.408e-01  linmin: -3.718e-06  t[s]:    801.65
	FillingsUpdate:  mu: +0.214723812  nElectrons: 128.000000  magneticMoment: [ Abs: 0.00008  Tot: +0.00006 ]
	SubspaceRotationAdjust: set factor to 0.0206
ElecMinimize: Iter:  34  G: -699.205515106596067  |grad|_K:  4.651e-08  alpha:  5.358e-01  linmin: -6.733e-07  t[s]:    814.68
	FillingsUpdate:  mu: +0.214727157  nElectrons: 128.000000  magneticMoment: [ Abs: 0.00008  Tot: +0.00006 ]
	SubspaceRotationAdjust: set factor to 0.0206
ElecMinimize: Iter:  35  G: -699.205515246593791  |grad|_K:  4.361e-08  alpha:  5.035e-01  linmin: -2.716e-07  t[s]:    827.93
	FillingsUpdate:  mu: +0.214725790  nElectrons: 128.000000  magneticMoment: [ Abs: 0.00008  Tot: +0.00006 ]
	SubspaceRotationAdjust: set factor to 0.0234
ElecMinimize: Iter:  36  G: -699.205515397517274  |grad|_K:  4.250e-08  alpha:  6.178e-01  linmin: -4.962e-07  t[s]:    841.01
	FillingsUpdate:  mu: +0.214722733  nElectrons: 128.000000  magneticMoment: [ Abs: 0.00008  Tot: +0.00006 ]
	SubspaceRotationAdjust: set factor to 0.0241
ElecMinimize: Iter:  37  G: -699.205515546860397  |grad|_K:  4.801e-08  alpha:  6.431e-01  linmin:  8.228e-08  t[s]:    854.15
	FillingsUpdate:  mu: +0.214695333  nElectrons: 128.000000  magneticMoment: [ Abs: 0.00008  Tot: +0.00006 ]
	SubspaceRotationAdjust: set factor to 0.0217
ElecMinimize: Iter:  38  G: -699.205515706839719  |grad|_K:  5.169e-08  alpha:  5.400e-01  linmin:  5.792e-07  t[s]:    867.32
	FillingsUpdate:  mu: +0.214651626  nElectrons: 128.000000  magneticMoment: [ Abs: 0.00007  Tot: +0.00006 ]
	SubspaceRotationAdjust: set factor to 0.0213
ElecMinimize: Iter:  39  G: -699.205515905902530  |grad|_K:  4.966e-08  alpha:  5.800e-01  linmin: -3.300e-07  t[s]:    880.44
	FillingsUpdate:  mu: +0.214646168  nElectrons: 128.000000  magneticMoment: [ Abs: 0.00007  Tot: +0.00006 ]
	SubspaceRotationAdjust: set factor to 0.0228
ElecMinimize: Iter:  40  G: -699.205516090125570  |grad|_K:  4.504e-08  alpha:  5.811e-01  linmin:  1.307e-06  t[s]:    893.59
	FillingsUpdate:  mu: +0.214647603  nElectrons: 128.000000  magneticMoment: [ Abs: 0.00007  Tot: +0.00006 ]
	SubspaceRotationAdjust: set factor to 0.0211
ElecMinimize: Iter:  41  G: -699.205516219980041  |grad|_K:  4.047e-08  alpha:  4.984e-01  linmin: -2.025e-07  t[s]:    906.70
	FillingsUpdate:  mu: +0.214645448  nElectrons: 128.000000  magneticMoment: [ Abs: 0.00007  Tot: +0.00006 ]
	SubspaceRotationAdjust: set factor to 0.0185
ElecMinimize: Iter:  42  G: -699.205516315817476  |grad|_K:  3.374e-08  alpha:  4.552e-01  linmin: -9.847e-08  t[s]:    919.96
	FillingsUpdate:  mu: +0.214649332  nElectrons: 128.000000  magneticMoment: [ Abs: 0.00007  Tot: +0.00006 ]
	SubspaceRotationAdjust: set factor to 0.0198
ElecMinimize: Iter:  43  G: -699.205516387722128  |grad|_K:  2.605e-08  alpha:  4.911e-01  linmin: -7.023e-08  t[s]:    932.99
ElecMinimize: Converged (|Delta G|<1.000000e-07 for 2 iters).
Setting wave functions to eigenvectors of Hamiltonian
Converging empty states (this may take a while): |deigs|: 2.881e-03
Vacuum energy after initial minimize, F = -699.205516387722128

Shifting auxilliary hamiltonian by -0.312449 to set nElectrons=128.000000

-------- Electronic minimization -----------
	Linear fluid (dielectric constant: 78.4, screening length: 8.12261 Bohr) occupying 0.432037 of unit cell:	Completed after 22 iterations at t[s]:    973.13
	FillingsUpdate:  mu: -0.097800000  nElectrons: 128.000000  magneticMoment: [ Abs: 0.00006  Tot: +0.00006 ]
ElecMinimize: Iter:   0  G: -699.207212841121873  |grad|_K:  1.902e-05  alpha:  1.000e+00
	Linear fluid (dielectric constant: 78.4, screening length: 8.12261 Bohr) occupying 0.507477 of unit cell:	Completed after 34 iterations at t[s]:    985.43
	Linear fluid (dielectric constant: 78.4, screening length: 8.12261 Bohr) occupying 0.439292 of unit cell:	Completed after 25 iterations at t[s]:    990.13
	FillingsUpdate:  mu: -0.097800000  nElectrons: 128.150348  magneticMoment: [ Abs: 0.00007  Tot: +0.00006 ]
	SubspaceRotationAdjust: set factor to 0.0105
ElecMinimize: Iter:   1  G: -699.211688073055598  |grad|_K:  1.163e-05  alpha:  1.492e-01  linmin:  1.073e-01  t[s]:    995.43
	Linear fluid (dielectric constant: 78.4, screening length: 8.12261 Bohr) occupying 0.440508 of unit cell:	Completed after 17 iterations at t[s]:   1000.77
	Linear fluid (dielectric constant: 78.4, screening length: 8.12261 Bohr) occupying 0.442754 of unit cell:	Completed after 18 iterations at t[s]:   1005.36
	FillingsUpdate:  mu: -0.097800000  nElectrons: 128.180378  magneticMoment: [ Abs: 0.00013  Tot: +0.00006 ]
	SubspaceRotationAdjust: set factor to 0.00608
ElecMinimize: Iter:   2  G: -699.216589813854284  |grad|_K:  5.717e-06  alpha:  4.082e-01  linmin:  1.530e-03  t[s]:   1010.67
	Linear fluid (dielectric constant: 78.4, screening length: 8.12261 Bohr) occupying 0.451050 of unit cell:	Completed after 17 iterations at t[s]:   1015.99
	Linear fluid (dielectric constant: 78.4, screening length: 8.12261 Bohr) occupying 0.453381 of unit cell:	Completed after 15 iterations at t[s]:   1020.34
	FillingsUpdate:  mu: -0.097800000  nElectrons: 128.256354  magneticMoment: [ Abs: 0.00017  Tot: +0.00006 ]
	SubspaceRotationAdjust: set factor to 0.00528
ElecMinimize: Iter:   3  G: -699.218753496762247  |grad|_K:  4.675e-06  alpha:  5.139e-01  linmin: -6.022e-03  t[s]:   1025.63
	Linear fluid (dielectric constant: 78.4, screening length: 8.12261 Bohr) occupying 0.457906 of unit cell:	Completed after 17 iterations at t[s]:   1031.96
	Linear fluid (dielectric constant: 78.4, screening length: 8.12261 Bohr) occupying 0.460751 of unit cell:	Completed after 16 iterations at t[s]:   1036.52
	FillingsUpdate:  mu: -0.097800000  nElectrons: 128.311111  magneticMoment: [ Abs: 0.00033  Tot: +0.00006 ]
	SubspaceRotationAdjust: set factor to 0.00511
ElecMinimize: Iter:   4  G: -699.221174187444603  |grad|_K:  4.347e-06  alpha:  8.479e-01  linmin:  1.197e-03  t[s]:   1041.82
	Linear fluid (dielectric constant: 78.4, screening length: 8.12261 Bohr) occupying 0.472151 of unit cell:	Completed after 23 iterations at t[s]:   1047.32
	Linear fluid (dielectric constant: 78.4, screening length: 8.12261 Bohr) occupying 0.469481 of unit cell:	Completed after 17 iterations at t[s]:   1051.75
	FillingsUpdate:  mu: -0.097800000  nElectrons: 128.379189  magneticMoment: [ Abs: 0.00045  Tot: +0.00006 ]
	SubspaceRotationAdjust: set factor to 0.00571
ElecMinimize: Iter:   5  G: -699.222704165631626  |grad|_K:  3.587e-06  alpha:  6.300e-01  linmin:  5.615e-04  t[s]:   1057.01
	Linear fluid (dielectric constant: 78.4, screening length: 8.12261 Bohr) occupying 0.474750 of unit cell:	Completed after 21 iterations at t[s]:   1062.43
	Linear fluid (dielectric constant: 78.4, screening length: 8.12261 Bohr) occupying 0.474810 of unit cell:	Completed after 10 iterations at t[s]:   1066.71
	FillingsUpdate:  mu: -0.097800000  nElectrons: 128.427721  magneticMoment: [ Abs: 0.00054  Tot: +0.00006 ]
	SubspaceRotationAdjust: set factor to 0.00693
ElecMinimize: Iter:   6  G: -699.223755875494021  |grad|_K:  2.972e-06  alpha:  6.379e-01  linmin:  9.776e-04  t[s]:   1071.97
	Linear fluid (dielectric constant: 78.4, screening length: 8.12261 Bohr) occupying 0.476437 of unit cell:	Completed after 20 iterations at t[s]:   1077.26
	Linear fluid (dielectric constant: 78.4, screening length: 8.12261 Bohr) occupying 0.477053 of unit cell:	Completed after 17 iterations at t[s]:   1081.68
	FillingsUpdate:  mu: -0.097800000  nElectrons: 128.453041  magneticMoment: [ Abs: 0.00062  Tot: +0.00006 ]
	SubspaceRotationAdjust: set factor to 0.00782
ElecMinimize: Iter:   7  G: -699.224765652368092  |grad|_K:  3.379e-06  alpha:  8.964e-01  linmin:  3.625e-04  t[s]:   1086.98
	Linear fluid (dielectric constant: 78.4, screening length: 8.12261 Bohr) occupying 0.479832 of unit cell:	Completed after 23 iterations at t[s]:   1092.50
	Linear fluid (dielectric constant: 78.4, screening length: 8.12261 Bohr) occupying 0.479898 of unit cell:	Completed after 10 iterations at t[s]:   1096.87
	FillingsUpdate:  mu: -0.097800000  nElectrons: 128.486788  magneticMoment: [ Abs: 0.00068  Tot: +0.00006 ]
	SubspaceRotationAdjust: set factor to 0.00856
ElecMinimize: Iter:   8  G: -699.226111785724243  |grad|_K:  3.595e-06  alpha:  9.198e-01  linmin: -3.172e-05  t[s]:   1102.16
	Linear fluid (dielectric constant: 78.4, screening length: 8.12261 Bohr) occupying 0.480799 of unit cell:	Completed after 20 iterations at t[s]:   1107.53
	Linear fluid (dielectric constant: 78.4, screening length: 8.12261 Bohr) occupying 0.480697 of unit cell:	Completed after 15 iterations at t[s]:   1111.89
	FillingsUpdate:  mu: -0.097800000  nElectrons: 128.501567  magneticMoment: [ Abs: 0.00071  Tot: +0.00006 ]
	SubspaceRotationAdjust: set factor to 0.00879
ElecMinimize: Iter:   9  G: -699.227431661768719  |grad|_K:  3.453e-06  alpha:  7.938e-01  linmin:  1.472e-04  t[s]:   1117.18
	Linear fluid (dielectric constant: 78.4, screening length: 8.12261 Bohr) occupying 0.483351 of unit cell:	Completed after 25 iterations at t[s]:   1122.71
	Linear fluid (dielectric constant: 78.4, screening length: 8.12261 Bohr) occupying 0.483286 of unit cell:	Completed after 12 iterations at t[s]:   1127.04
	FillingsUpdate:  mu: -0.097800000  nElectrons: 128.536300  magneticMoment: [ Abs: 0.00069  Tot: +0.00006 ]
	SubspaceRotationAdjust: set factor to 0.00923
ElecMinimize: Iter:  10  G: -699.228612423278491  |grad|_K:  3.484e-06  alpha:  7.722e-01  linmin: -9.175e-04  t[s]:   1132.34
	Linear fluid (dielectric constant: 78.4, screening length: 8.12261 Bohr) occupying 0.484299 of unit cell:	Completed after 24 iterations at t[s]:   1137.89
	Linear fluid (dielectric constant: 78.4, screening length: 8.12261 Bohr) occupying 0.484315 of unit cell:	Completed after 12 iterations at t[s]:   1142.12
	FillingsUpdate:  mu: -0.097800000  nElectrons: 128.556180  magneticMoment: [ Abs: 0.00066  Tot: +0.00006 ]
	SubspaceRotationAdjust: set factor to 0.00925
ElecMinimize: Iter:  11  G: -699.229851046729550  |grad|_K:  3.674e-06  alpha:  7.867e-01  linmin:  9.345e-04  t[s]:   1147.40
	Linear fluid (dielectric constant: 78.4, screening length: 8.12261 Bohr) occupying 0.488401 of unit cell:	Completed after 28 iterations at t[s]:   1153.08
	Linear fluid (dielectric constant: 78.4, screening length: 8.12261 Bohr) occupying 0.487500 of unit cell:	Completed after 21 iterations at t[s]:   1157.72
	FillingsUpdate:  mu: -0.097800000  nElectrons: 128.605957  magneticMoment: [ Abs: 0.00066  Tot: +0.00006 ]
	SubspaceRotationAdjust: set factor to 0.00891
ElecMinimize: Iter:  12  G: -699.230839498625755  |grad|_K:  3.197e-06  alpha:  5.867e-01  linmin: -2.754e-04  t[s]:   1163.02
	Linear fluid (dielectric constant: 78.4, screening length: 8.12261 Bohr) occupying 0.488086 of unit cell:	Completed after 24 iterations at t[s]:   1168.53
	Linear fluid (dielectric constant: 78.4, screening length: 8.12261 Bohr) occupying 0.488155 of unit cell:	Completed after 18 iterations at t[s]:   1173.02
	FillingsUpdate:  mu: -0.097800000  nElectrons: 128.623912  magneticMoment: [ Abs: 0.00066  Tot: +0.00006 ]
	SubspaceRotationAdjust: set factor to 0.00939
ElecMinimize: Iter:  13  G: -699.231722182873568  |grad|_K:  3.115e-06  alpha:  6.718e-01  linmin:  1.029e-03  t[s]:   1178.32
	Linear fluid (dielectric constant: 78.4, screening length: 8.12261 Bohr) occupying 0.489701 of unit cell:	Completed after 24 iterations at t[s]:   1183.84
	Linear fluid (dielectric constant: 78.4, screening length: 8.12261 Bohr) occupying 0.489796 of unit cell:	Completed after 15 iterations at t[s]:   1188.23
	FillingsUpdate:  mu: -0.097800000  nElectrons: 128.661997  magneticMoment: [ Abs: 0.00067  Tot: +0.00006 ]
	SubspaceRotationAdjust: set factor to 0.01
ElecMinimize: Iter:  14  G: -699.232607348304555  |grad|_K:  3.196e-06  alpha:  7.187e-01  linmin: -1.015e-03  t[s]:   1193.52
	Linear fluid (dielectric constant: 78.4, screening length: 8.12261 Bohr) occupying 0.489642 of unit cell:	Completed after 23 iterations at t[s]:   1199.03
	Linear fluid (dielectric constant: 78.4, screening length: 8.12261 Bohr) occupying 0.489584 of unit cell:	Completed after 18 iterations at t[s]:   1203.49
	FillingsUpdate:  mu: -0.097800000  nElectrons: 128.679842  magneticMoment: [ Abs: 0.00066  Tot: +0.00006 ]
	SubspaceRotationAdjust: set factor to 0.0105
ElecMinimize: Iter:  15  G: -699.233834289931565  |grad|_K:  3.808e-06  alpha:  9.217e-01  linmin:  2.448e-04  t[s]:   1208.78
	Linear fluid (dielectric constant: 78.4, screening length: 8.12261 Bohr) occupying 0.490478 of unit cell:	Completed after 25 iterations at t[s]:   1214.39
	Linear fluid (dielectric constant: 78.4, screening length: 8.12261 Bohr) occupying 0.490331 of unit cell:	Completed after 21 iterations at t[s]:   1218.95
	FillingsUpdate:  mu: -0.097800000  nElectrons: 128.723947  magneticMoment: [ Abs: 0.00066  Tot: +0.00006 ]
	SubspaceRotationAdjust: set factor to 0.0105
ElecMinimize: Iter:  16  G: -699.235221140899398  |grad|_K:  3.944e-06  alpha:  7.448e-01  linmin:  1.954e-04  t[s]:   1224.26
	Linear fluid (dielectric constant: 78.4, screening length: 8.12261 Bohr) occupying 0.489462 of unit cell:	Completed after 24 iterations at t[s]:   1229.80
	Linear fluid (dielectric constant: 78.4, screening length: 8.12261 Bohr) occupying 0.489471 of unit cell:	Completed after 10 iterations at t[s]:   1234.05
	FillingsUpdate:  mu: -0.097800000  nElectrons: 128.742295  magneticMoment: [ Abs: 0.00066  Tot: +0.00006 ]
	SubspaceRotationAdjust: set factor to 0.0101
ElecMinimize: Iter:  17  G: -699.236688783140266  |grad|_K:  3.962e-06  alpha:  7.373e-01  linmin: -1.148e-04  t[s]:   1239.38
	Linear fluid (dielectric constant: 78.4, screening length: 8.12261 Bohr) occupying 0.490253 of unit cell:	Completed after 26 iterations at t[s]:   1245.01
	Linear fluid (dielectric constant: 78.4, screening length: 8.12261 Bohr) occupying 0.490145 of unit cell:	Completed after 21 iterations at t[s]:   1249.62
	FillingsUpdate:  mu: -0.097800000  nElectrons: 128.789996  magneticMoment: [ Abs: 0.00065  Tot: +0.00006 ]
	SubspaceRotationAdjust: set factor to 0.00871
ElecMinimize: Iter:  18  G: -699.237913597456782  |grad|_K:  3.945e-06  alpha:  6.055e-01  linmin:  5.585e-05  t[s]:   1254.96
	Linear fluid (dielectric constant: 78.4, screening length: 8.12261 Bohr) occupying 0.488807 of unit cell:	Completed after 24 iterations at t[s]:   1260.51
	Linear fluid (dielectric constant: 78.4, screening length: 8.12261 Bohr) occupying 0.489012 of unit cell:	Completed after 19 iterations at t[s]:   1264.99
	FillingsUpdate:  mu: -0.097800000  nElectrons: 128.792196  magneticMoment: [ Abs: 0.00063  Tot: +0.00006 ]
	SubspaceRotationAdjust: set factor to 0.00722
ElecMinimize: Iter:  19  G: -699.238952879539852  |grad|_K:  3.230e-06  alpha:  5.183e-01  linmin:  3.814e-04  t[s]:   1270.42
	Linear fluid (dielectric constant: 78.4, screening length: 8.12261 Bohr) occupying 0.489068 of unit cell:	Completed after 23 iterations at t[s]:   1275.95
	Linear fluid (dielectric constant: 78.4, screening length: 8.12261 Bohr) occupying 0.489065 of unit cell:	Completed after 14 iterations at t[s]:   1280.32
	FillingsUpdate:  mu: -0.097800000  nElectrons: 128.815269  magneticMoment: [ Abs: 0.00059  Tot: +0.00006 ]
	SubspaceRotationAdjust: set factor to 0.00753
ElecMinimize: Iter:  20  G: -699.239723280896101  |grad|_K:  2.519e-06  alpha:  5.786e-01  linmin: -5.287e-04  t[s]:   1285.61
	Linear fluid (dielectric constant: 78.4, screening length: 8.12261 Bohr) occupying 0.488950 of unit cell:	Completed after 21 iterations at t[s]:   1291.02
	Linear fluid (dielectric constant: 78.4, screening length: 8.12261 Bohr) occupying 0.488955 of unit cell:	Completed after 4 iterations at t[s]:   1295.01
	FillingsUpdate:  mu: -0.097800000  nElectrons: 128.825281  magneticMoment: [ Abs: 0.00054  Tot: +0.00006 ]
	SubspaceRotationAdjust: set factor to 0.00853
ElecMinimize: Iter:  21  G: -699.240181631969904  |grad|_K:  1.937e-06  alpha:  5.583e-01  linmin: -2.983e-05  t[s]:   1300.41
	Linear fluid (dielectric constant: 78.4, screening length: 8.12261 Bohr) occupying 0.488654 of unit cell:	Completed after 20 iterations at t[s]:   1305.86
	Linear fluid (dielectric constant: 78.4, screening length: 8.12261 Bohr) occupying 0.488604 of unit cell:	Completed after 13 iterations at t[s]:   1310.15
	FillingsUpdate:  mu: -0.097800000  nElectrons: 128.824911  magneticMoment: [ Abs: 0.00049  Tot: +0.00006 ]
	SubspaceRotationAdjust: set factor to 0.0093
ElecMinimize: Iter:  22  G: -699.240492645518998  |grad|_K:  1.744e-06  alpha:  6.454e-01  linmin:  2.465e-04  t[s]:   1315.51
	Linear fluid (dielectric constant: 78.4, screening length: 8.12261 Bohr) occupying 0.488778 of unit cell:	Completed after 21 iterations at t[s]:   1320.96
	Linear fluid (dielectric constant: 78.4, screening length: 8.12261 Bohr) occupying 0.488765 of unit cell:	Completed after 13 iterations at t[s]:   1325.27
	FillingsUpdate:  mu: -0.097800000  nElectrons: 128.835286  magneticMoment: [ Abs: 0.00044  Tot: +0.00006 ]
	SubspaceRotationAdjust: set factor to 0.00986
ElecMinimize: Iter:  23  G: -699.240722319941710  |grad|_K:  1.696e-06  alpha:  5.896e-01  linmin: -1.205e-04  t[s]:   1332.23
	Linear fluid (dielectric constant: 78.4, screening length: 8.12261 Bohr) occupying 0.488423 of unit cell:	Completed after 20 iterations at t[s]:   1337.65
	Linear fluid (dielectric constant: 78.4, screening length: 8.12261 Bohr) occupying 0.488391 of unit cell:	Completed after 13 iterations at t[s]:   1341.96
	FillingsUpdate:  mu: -0.097800000  nElectrons: 128.832335  magneticMoment: [ Abs: 0.00042  Tot: +0.00006 ]
	SubspaceRotationAdjust: set factor to 0.0101
ElecMinimize: Iter:  24  G: -699.240959843091332  |grad|_K:  1.787e-06  alpha:  6.419e-01  linmin:  2.172e-04  t[s]:   1347.26
	Linear fluid (dielectric constant: 78.4, screening length: 8.12261 Bohr) occupying 0.488580 of unit cell:	Completed after 21 iterations at t[s]:   1352.72
	Linear fluid (dielectric constant: 78.4, screening length: 8.12261 Bohr) occupying 0.488594 of unit cell:	Completed after 12 iterations at t[s]:   1357.00
	FillingsUpdate:  mu: -0.097800000  nElectrons: 128.846088  magneticMoment: [ Abs: 0.00044  Tot: +0.00006 ]
	SubspaceRotationAdjust: set factor to 0.0106
ElecMinimize: Iter:  25  G: -699.241245180905935  |grad|_K:  1.875e-06  alpha:  6.981e-01  linmin: -2.822e-04  t[s]:   1362.44
	Linear fluid (dielectric constant: 78.4, screening length: 8.12261 Bohr) occupying 0.488360 of unit cell:	Completed after 20 iterations at t[s]:   1367.79
	Linear fluid (dielectric constant: 78.4, screening length: 8.12261 Bohr) occupying 0.488313 of unit cell:	Completed after 13 iterations at t[s]:   1372.09
	FillingsUpdate:  mu: -0.097800000  nElectrons: 128.850818  magneticMoment: [ Abs: 0.00049  Tot: +0.00006 ]
	SubspaceRotationAdjust: set factor to 0.0111
ElecMinimize: Iter:  26  G: -699.241616098601298  |grad|_K:  2.082e-06  alpha:  8.178e-01  linmin:  2.548e-04  t[s]:   1377.38
	Linear fluid (dielectric constant: 78.4, screening length: 8.12261 Bohr) occupying 0.488266 of unit cell:	Completed after 21 iterations at t[s]:   1382.70
	Linear fluid (dielectric constant: 78.4, screening length: 8.12261 Bohr) occupying 0.488273 of unit cell:	Completed after 10 iterations at t[s]:   1386.88
	FillingsUpdate:  mu: -0.097800000  nElectrons: 128.865600  magneticMoment: [ Abs: 0.00053  Tot: +0.00006 ]
	SubspaceRotationAdjust: set factor to 0.0113
ElecMinimize: Iter:  27  G: -699.242044755634424  |grad|_K:  2.099e-06  alpha:  7.747e-01  linmin: -1.821e-04  t[s]:   1392.31
	Linear fluid (dielectric constant: 78.4, screening length: 8.12261 Bohr) occupying 0.487713 of unit cell:	Completed after 21 iterations at t[s]:   1397.69
	Linear fluid (dielectric constant: 78.4, screening length: 8.12261 Bohr) occupying 0.487803 of unit cell:	Completed after 15 iterations at t[s]:   1402.04
	FillingsUpdate:  mu: -0.097800000  nElectrons: 128.867476  magneticMoment: [ Abs: 0.00053  Tot: +0.00006 ]
	SubspaceRotationAdjust: set factor to 0.0107
ElecMinimize: Iter:  28  G: -699.242421617872537  |grad|_K:  2.028e-06  alpha:  6.611e-01  linmin:  1.995e-04  t[s]:   1407.34
	Linear fluid (dielectric constant: 78.4, screening length: 8.12261 Bohr) occupying 0.488040 of unit cell:	Completed after 23 iterations at t[s]:   1412.85
	Linear fluid (dielectric constant: 78.4, screening length: 8.12261 Bohr) occupying 0.487998 of unit cell:	Completed after 15 iterations at t[s]:   1417.18
	FillingsUpdate:  mu: -0.097800000  nElectrons: 128.884579  magneticMoment: [ Abs: 0.00049  Tot: +0.00006 ]
	SubspaceRotationAdjust: set factor to 0.00855
ElecMinimize: Iter:  29  G: -699.242690239792296  |grad|_K:  1.776e-06  alpha:  5.141e-01  linmin: -1.800e-04  t[s]:   1422.62
	Linear fluid (dielectric constant: 78.4, screening length: 8.12261 Bohr) occupying 0.487513 of unit cell:	Completed after 23 iterations at t[s]:   1428.13
	Linear fluid (dielectric constant: 78.4, screening length: 8.12261 Bohr) occupying 0.487596 of unit cell:	Completed after 15 iterations at t[s]:   1432.53
	FillingsUpdate:  mu: -0.097800000  nElectrons: 128.880853  magneticMoment: [ Abs: 0.00042  Tot: +0.00006 ]
	SubspaceRotationAdjust: set factor to 0.00684
ElecMinimize: Iter:  30  G: -699.242865286528172  |grad|_K:  1.320e-06  alpha:  4.290e-01  linmin:  1.664e-04  t[s]:   1437.86
	Linear fluid (dielectric constant: 78.4, screening length: 8.12261 Bohr) occupying 0.487562 of unit cell:	Completed after 15 iterations at t[s]:   1443.12
	Linear fluid (dielectric constant: 78.4, screening length: 8.12261 Bohr) occupying 0.487554 of unit cell:	Completed after 12 iterations at t[s]:   1447.36
	FillingsUpdate:  mu: -0.097800000  nElectrons: 128.885100  magneticMoment: [ Abs: 0.00036  Tot: +0.00006 ]
	SubspaceRotationAdjust: set factor to 0.00722
ElecMinimize: Iter:  31  G: -699.242980470644397  |grad|_K:  9.386e-07  alpha:  5.156e-01  linmin: -1.532e-04  t[s]:   1452.82
	Linear fluid (dielectric constant: 78.4, screening length: 8.12261 Bohr) occupying 0.487544 of unit cell:	Completed after 15 iterations at t[s]:   1458.07
	Linear fluid (dielectric constant: 78.4, screening length: 8.12261 Bohr) occupying 0.487544 of unit cell:	Completed after 0 iterations at t[s]:   1461.84
	FillingsUpdate:  mu: -0.097800000  nElectrons: 128.887758  magneticMoment: [ Abs: 0.00031  Tot: +0.00006 ]
	SubspaceRotationAdjust: set factor to 0.00738
ElecMinimize: Iter:  32  G: -699.243039361246588  |grad|_K:  6.860e-07  alpha:  5.193e-01  linmin: -5.977e-05  t[s]:   1467.13
	Linear fluid (dielectric constant: 78.4, screening length: 8.12261 Bohr) occupying 0.487455 of unit cell:	Completed after 15 iterations at t[s]:   1472.30
	Linear fluid (dielectric constant: 78.4, screening length: 8.12261 Bohr) occupying 0.487456 of unit cell:	Completed after 2 iterations at t[s]:   1476.21
	FillingsUpdate:  mu: -0.097800000  nElectrons: 128.886866  magneticMoment: [ Abs: 0.00027  Tot: +0.00006 ]
	SubspaceRotationAdjust: set factor to 0.00728
ElecMinimize: Iter:  33  G: -699.243070486862507  |grad|_K:  5.073e-07  alpha:  5.144e-01  linmin:  6.898e-05  t[s]:   1481.67
	Linear fluid (dielectric constant: 78.4, screening length: 8.12261 Bohr) occupying 0.487483 of unit cell:	Completed after 15 iterations at t[s]:   1486.82
	Linear fluid (dielectric constant: 78.4, screening length: 8.12261 Bohr) occupying 0.487483 of unit cell:	Completed after 2 iterations at t[s]:   1490.70
	FillingsUpdate:  mu: -0.097800000  nElectrons: 128.888578  magneticMoment: [ Abs: 0.00025  Tot: +0.00006 ]
	SubspaceRotationAdjust: set factor to 0.00751
ElecMinimize: Iter:  34  G: -699.243087144152810  |grad|_K:  3.867e-07  alpha:  5.043e-01  linmin: -5.142e-06  t[s]:   1496.03
	Linear fluid (dielectric constant: 78.4, screening length: 8.12261 Bohr) occupying 0.487449 of unit cell:	Completed after 13 iterations at t[s]:   1501.22
	Linear fluid (dielectric constant: 78.4, screening length: 8.12261 Bohr) occupying 0.487447 of unit cell:	Completed after 2 iterations at t[s]:   1505.10
	FillingsUpdate:  mu: -0.097800000  nElectrons: 128.888120  magneticMoment: [ Abs: 0.00023  Tot: +0.00006 ]
	SubspaceRotationAdjust: set factor to 0.00885
ElecMinimize: Iter:  35  G: -699.243097402031026  |grad|_K:  3.095e-07  alpha:  5.339e-01  linmin: -3.478e-05  t[s]:   1510.53
	Linear fluid (dielectric constant: 78.4, screening length: 8.12261 Bohr) occupying 0.487422 of unit cell:	Completed after 12 iterations at t[s]:   1515.64
	Linear fluid (dielectric constant: 78.4, screening length: 8.12261 Bohr) occupying 0.487417 of unit cell:	Completed after 4 iterations at t[s]:   1519.62
	FillingsUpdate:  mu: -0.097800000  nElectrons: 128.887646  magneticMoment: [ Abs: 0.00022  Tot: +0.00006 ]
	SubspaceRotationAdjust: set factor to 0.0108
ElecMinimize: Iter:  36  G: -699.243105136049053  |grad|_K:  2.828e-07  alpha:  6.279e-01  linmin: -1.898e-05  t[s]:   1524.95
	Linear fluid (dielectric constant: 78.4, screening length: 8.12261 Bohr) occupying 0.487424 of unit cell:	Completed after 13 iterations at t[s]:   1530.10
	Linear fluid (dielectric constant: 78.4, screening length: 8.12261 Bohr) occupying 0.487424 of unit cell:	Completed after 7 iterations at t[s]:   1534.16
	FillingsUpdate:  mu: -0.097800000  nElectrons: 128.888083  magneticMoment: [ Abs: 0.00021  Tot: +0.00006 ]
	SubspaceRotationAdjust: set factor to 0.0123
ElecMinimize: Iter:  37  G: -699.243112069248127  |grad|_K:  3.149e-07  alpha:  6.742e-01  linmin:  2.049e-05  t[s]:   1539.46
	Linear fluid (dielectric constant: 78.4, screening length: 8.12261 Bohr) occupying 0.487331 of unit cell:	Completed after 15 iterations at t[s]:   1544.80
	Linear fluid (dielectric constant: 78.4, screening length: 8.12261 Bohr) occupying 0.487339 of unit cell:	Completed after 10 iterations at t[s]:   1549.00
	FillingsUpdate:  mu: -0.097800000  nElectrons: 128.885830  magneticMoment: [ Abs: 0.00020  Tot: +0.00006 ]
	SubspaceRotationAdjust: set factor to 0.0127
ElecMinimize: Iter:  38  G: -699.243119874976401  |grad|_K:  3.595e-07  alpha:  6.132e-01  linmin:  1.387e-05  t[s]:   1554.29
	Linear fluid (dielectric constant: 78.4, screening length: 8.12261 Bohr) occupying 0.487351 of unit cell:	Completed after 14 iterations at t[s]:   1559.50
	Linear fluid (dielectric constant: 78.4, screening length: 8.12261 Bohr) occupying 0.487351 of unit cell:	Completed after 0 iterations at t[s]:   1563.26
	FillingsUpdate:  mu: -0.097800000  nElectrons: 128.886338  magneticMoment: [ Abs: 0.00020  Tot: +0.00006 ]
	SubspaceRotationAdjust: set factor to 0.0126
ElecMinimize: Iter:  39  G: -699.243130036846424  |grad|_K:  4.030e-07  alpha:  6.123e-01  linmin: -2.462e-06  t[s]:   1568.57
	Linear fluid (dielectric constant: 78.4, screening length: 8.12261 Bohr) occupying 0.487248 of unit cell:	Completed after 15 iterations at t[s]:   1573.86
	Linear fluid (dielectric constant: 78.4, screening length: 8.12261 Bohr) occupying 0.487228 of unit cell:	Completed after 12 iterations at t[s]:   1578.11
	FillingsUpdate:  mu: -0.097800000  nElectrons: 128.883072  magneticMoment: [ Abs: 0.00021  Tot: +0.00006 ]
	SubspaceRotationAdjust: set factor to 0.0126
ElecMinimize: Iter:  40  G: -699.243145267088153  |grad|_K:  4.572e-07  alpha:  7.300e-01  linmin:  2.168e-05  t[s]:   1583.43
	Linear fluid (dielectric constant: 78.4, screening length: 8.12261 Bohr) occupying 0.487208 of unit cell:	Completed after 15 iterations at t[s]:   1588.56
	Linear fluid (dielectric constant: 78.4, screening length: 8.12261 Bohr) occupying 0.487209 of unit cell:	Completed after 2 iterations at t[s]:   1592.45
	FillingsUpdate:  mu: -0.097800000  nElectrons: 128.882862  magneticMoment: [ Abs: 0.00022  Tot: +0.00006 ]
	SubspaceRotationAdjust: set factor to 0.0123
ElecMinimize: Iter:  41  G: -699.243164653966573  |grad|_K:  5.175e-07  alpha:  7.232e-01  linmin: -2.095e-05  t[s]:   1597.75
	Linear fluid (dielectric constant: 78.4, screening length: 8.12261 Bohr) occupying 0.487018 of unit cell:	Completed after 20 iterations at t[s]:   1603.09
	Linear fluid (dielectric constant: 78.4, screening length: 8.12261 Bohr) occupying 0.487043 of unit cell:	Completed after 12 iterations at t[s]:   1607.35
	FillingsUpdate:  mu: -0.097800000  nElectrons: 128.878787  magneticMoment: [ Abs: 0.00023  Tot: +0.00006 ]
	SubspaceRotationAdjust: set factor to 0.0115
ElecMinimize: Iter:  42  G: -699.243186452872237  |grad|_K:  5.549e-07  alpha:  6.317e-01  linmin:  2.704e-05  t[s]:   1612.66
	Linear fluid (dielectric constant: 78.4, screening length: 8.12261 Bohr) occupying 0.487067 of unit cell:	Completed after 15 iterations at t[s]:   1617.86
	Linear fluid (dielectric constant: 78.4, screening length: 8.12261 Bohr) occupying 0.487063 of unit cell:	Completed after 13 iterations at t[s]:   1622.15
	FillingsUpdate:  mu: -0.097800000  nElectrons: 128.880005  magneticMoment: [ Abs: 0.00022  Tot: +0.00006 ]
	SubspaceRotationAdjust: set factor to 0.0105
ElecMinimize: Iter:  43  G: -699.243206928873860  |grad|_K:  5.393e-07  alpha:  5.195e-01  linmin: -2.370e-05  t[s]:   1627.46
	Linear fluid (dielectric constant: 78.4, screening length: 8.12261 Bohr) occupying 0.486942 of unit cell:	Completed after 15 iterations at t[s]:   1633.21
	Linear fluid (dielectric constant: 78.4, screening length: 8.12261 Bohr) occupying 0.486941 of unit cell:	Completed after 2 iterations at t[s]:   1637.66
	FillingsUpdate:  mu: -0.097800000  nElectrons: 128.877576  magneticMoment: [ Abs: 0.00020  Tot: +0.00006 ]
	SubspaceRotationAdjust: set factor to 0.0105
ElecMinimize: Iter:  44  G: -699.243226521393240  |grad|_K:  4.723e-07  alpha:  5.234e-01  linmin:  4.456e-05  t[s]:   1642.98
	Linear fluid (dielectric constant: 78.4, screening length: 8.12261 Bohr) occupying 0.486929 of unit cell:	Completed after 14 iterations at t[s]:   1648.16
	Linear fluid (dielectric constant: 78.4, screening length: 8.12261 Bohr) occupying 0.486927 of unit cell:	Completed after 9 iterations at t[s]:   1652.33
	FillingsUpdate:  mu: -0.097800000  nElectrons: 128.878359  magneticMoment: [ Abs: 0.00017  Tot: +0.00006 ]
	SubspaceRotationAdjust: set factor to 0.0116
ElecMinimize: Iter:  45  G: -699.243243524862351  |grad|_K:  4.125e-07  alpha:  5.946e-01  linmin: -1.556e-05  t[s]:   1657.63
	Linear fluid (dielectric constant: 78.4, screening length: 8.12261 Bohr) occupying 0.486883 of unit cell:	Completed after 12 iterations at t[s]:   1662.86
	Linear fluid (dielectric constant: 78.4, screening length: 8.12261 Bohr) occupying 0.486883 of unit cell:	Completed after 0 iterations at t[s]:   1666.66
	FillingsUpdate:  mu: -0.097800000  nElectrons: 128.878478  magneticMoment: [ Abs: 0.00014  Tot: +0.00006 ]
	SubspaceRotationAdjust: set factor to 0.0138
ElecMinimize: Iter:  46  G: -699.243256647966859  |grad|_K:  3.602e-07  alpha:  5.999e-01  linmin: -1.235e-05  t[s]:   1671.95
	Linear fluid (dielectric constant: 78.4, screening length: 8.12261 Bohr) occupying 0.486843 of unit cell:	Completed after 13 iterations at t[s]:   1677.00
	Linear fluid (dielectric constant: 78.4, screening length: 8.12261 Bohr) occupying 0.486842 of unit cell:	Completed after 2 iterations at t[s]:   1680.89
	FillingsUpdate:  mu: -0.097800000  nElectrons: 128.878797  magneticMoment: [ Abs: 0.00013  Tot: +0.00006 ]
	SubspaceRotationAdjust: set factor to 0.0162
ElecMinimize: Iter:  47  G: -699.243266955253489  |grad|_K:  3.395e-07  alpha:  6.178e-01  linmin: -1.490e-05  t[s]:   1686.20
	Linear fluid (dielectric constant: 78.4, screening length: 8.12261 Bohr) occupying 0.486912 of unit cell:	Completed after 15 iterations at t[s]:   1691.37
	Linear fluid (dielectric constant: 78.4, screening length: 8.12261 Bohr) occupying 0.486898 of unit cell:	Completed after 12 iterations at t[s]:   1695.67
	FillingsUpdate:  mu: -0.097800000  nElectrons: 128.881570  magneticMoment: [ Abs: 0.00013  Tot: +0.00006 ]
	SubspaceRotationAdjust: set factor to 0.0161
ElecMinimize: Iter:  48  G: -699.243274223660137  |grad|_K:  3.515e-07  alpha:  4.897e-01  linmin:  1.350e-05  t[s]:   1701.00
	Linear fluid (dielectric constant: 78.4, screening length: 8.12261 Bohr) occupying 0.486798 of unit cell:	Completed after 15 iterations at t[s]:   1706.10
	Linear fluid (dielectric constant: 78.4, screening length: 8.12261 Bohr) occupying 0.486830 of unit cell:	Completed after 13 iterations at t[s]:   1710.38
	FillingsUpdate:  mu: -0.097800000  nElectrons: 128.880799  magneticMoment: [ Abs: 0.00013  Tot: +0.00006 ]
	SubspaceRotationAdjust: set factor to 0.0137
ElecMinimize: Iter:  49  G: -699.243279534517228  |grad|_K:  3.004e-07  alpha:  3.352e-01  linmin:  1.607e-06  t[s]:   1715.68
	Linear fluid (dielectric constant: 78.4, screening length: 8.12261 Bohr) occupying 0.486859 of unit cell:	Completed after 13 iterations at t[s]:   1720.79
	Linear fluid (dielectric constant: 78.4, screening length: 8.12261 Bohr) occupying 0.486870 of unit cell:	Completed after 10 iterations at t[s]:   1725.03
	FillingsUpdate:  mu: -0.097800000  nElectrons: 128.883149  magneticMoment: [ Abs: 0.00014  Tot: +0.00006 ]
	SubspaceRotationAdjust: set factor to 0.0136
ElecMinimize: Iter:  50  G: -699.243284924592103  |grad|_K:  2.374e-07  alpha:  4.651e-01  linmin:  2.809e-05  t[s]:   1730.34
	Linear fluid (dielectric constant: 78.4, screening length: 8.12261 Bohr) occupying 0.486860 of unit cell:	Completed after 12 iterations at t[s]:   1735.38
	Linear fluid (dielectric constant: 78.4, screening length: 8.12261 Bohr) occupying 0.486858 of unit cell:	Completed after 6 iterations at t[s]:   1739.41
	FillingsUpdate:  mu: -0.097800000  nElectrons: 128.883840  magneticMoment: [ Abs: 0.00014  Tot: +0.00006 ]
	SubspaceRotationAdjust: set factor to 0.0147
ElecMinimize: Iter:  51  G: -699.243288918357052  |grad|_K:  1.963e-07  alpha:  5.524e-01  linmin: -2.671e-05  t[s]:   1744.68
	Linear fluid (dielectric constant: 78.4, screening length: 8.12261 Bohr) occupying 0.486868 of unit cell:	Completed after 10 iterations at t[s]:   1749.62
	Linear fluid (dielectric constant: 78.4, screening length: 8.12261 Bohr) occupying 0.486868 of unit cell:	Completed after 0 iterations at t[s]:   1753.59
	FillingsUpdate:  mu: -0.097800000  nElectrons: 128.884883  magneticMoment: [ Abs: 0.00014  Tot: +0.00006 ]
	SubspaceRotationAdjust: set factor to 0.0159
ElecMinimize: Iter:  52  G: -699.243291661570765  |grad|_K:  1.621e-07  alpha:  5.527e-01  linmin:  1.043e-05  t[s]:   1758.92
	Linear fluid (dielectric constant: 78.4, screening length: 8.12261 Bohr) occupying 0.486849 of unit cell:	Completed after 13 iterations at t[s]:   1764.06
	Linear fluid (dielectric constant: 78.4, screening length: 8.12261 Bohr) occupying 0.486850 of unit cell:	Completed after 2 iterations at t[s]:   1767.95
	FillingsUpdate:  mu: -0.097800000  nElectrons: 128.884872  magneticMoment: [ Abs: 0.00013  Tot: +0.00006 ]
	SubspaceRotationAdjust: set factor to 0.0163
ElecMinimize: Iter:  53  G: -699.243293451720547  |grad|_K:  1.466e-07  alpha:  5.308e-01  linmin:  1.499e-05  t[s]:   1773.23
	Linear fluid (dielectric constant: 78.4, screening length: 8.12261 Bohr) occupying 0.486889 of unit cell:	Completed after 14 iterations at t[s]:   1778.28
	Linear fluid (dielectric constant: 78.4, screening length: 8.12261 Bohr) occupying 0.486877 of unit cell:	Completed after 12 iterations at t[s]:   1782.58
	FillingsUpdate:  mu: -0.097800000  nElectrons: 128.885855  magneticMoment: [ Abs: 0.00012  Tot: +0.00006 ]
	SubspaceRotationAdjust: set factor to 0.0141
ElecMinimize: Iter:  54  G: -699.243294461148707  |grad|_K:  1.398e-07  alpha:  3.667e-01  linmin: -9.843e-06  t[s]:   1787.95
	Linear fluid (dielectric constant: 78.4, screening length: 8.12261 Bohr) occupying 0.486850 of unit cell:	Completed after 13 iterations at t[s]:   1793.00
	Linear fluid (dielectric constant: 78.4, screening length: 8.12261 Bohr) occupying 0.486851 of unit cell:	Completed after 1 iterations at t[s]:   1796.88
	FillingsUpdate:  mu: -0.097800000  nElectrons: 128.885312  magneticMoment: [ Abs: 0.00012  Tot: +0.00006 ]
	SubspaceRotationAdjust: set factor to 0.0129
ElecMinimize: Iter:  55  G: -699.243295352743303  |grad|_K:  1.090e-07  alpha:  3.547e-01  linmin:  7.390e-05  t[s]:   1802.18
	Linear fluid (dielectric constant: 78.4, screening length: 8.12261 Bohr) occupying 0.486855 of unit cell:	Completed after 10 iterations at t[s]:   1807.20
	Linear fluid (dielectric constant: 78.4, screening length: 8.12261 Bohr) occupying 0.486856 of unit cell:	Completed after 8 iterations at t[s]:   1811.32
	FillingsUpdate:  mu: -0.097800000  nElectrons: 128.885557  magneticMoment: [ Abs: 0.00011  Tot: +0.00006 ]
	SubspaceRotationAdjust: set factor to 0.0156
ElecMinimize: Iter:  56  G: -699.243296180251377  |grad|_K:  9.350e-08  alpha:  5.440e-01  linmin: -5.660e-05  t[s]:   1816.64
	Linear fluid (dielectric constant: 78.4, screening length: 8.12261 Bohr) occupying 0.486856 of unit cell:	Completed after 3 iterations at t[s]:   1821.35
	Linear fluid (dielectric constant: 78.4, screening length: 8.12261 Bohr) occupying 0.486856 of unit cell:	Completed after 2 iterations at t[s]:   1825.26
	FillingsUpdate:  mu: -0.097800000  nElectrons: 128.885534  magneticMoment: [ Abs: 0.00011  Tot: +0.00006 ]
	SubspaceRotationAdjust: set factor to 0.0188
ElecMinimize: Iter:  57  G: -699.243296887683755  |grad|_K:  8.855e-08  alpha:  6.273e-01  linmin: -1.056e-06  t[s]:   1830.58
	Linear fluid (dielectric constant: 78.4, screening length: 8.12261 Bohr) occupying 0.486853 of unit cell:	Completed after 4 iterations at t[s]:   1835.39
	Linear fluid (dielectric constant: 78.4, screening length: 8.12261 Bohr) occupying 0.486853 of unit cell:	Completed after 1 iterations at t[s]:   1839.26
	FillingsUpdate:  mu: -0.097800000  nElectrons: 128.885389  magneticMoment: [ Abs: 0.00010  Tot: +0.00006 ]
	SubspaceRotationAdjust: set factor to 0.0228
ElecMinimize: Iter:  58  G: -699.243297570754862  |grad|_K:  8.864e-08  alpha:  6.780e-01  linmin: -5.307e-06  t[s]:   1844.69
	Linear fluid (dielectric constant: 78.4, screening length: 8.12261 Bohr) occupying 0.486854 of unit cell:	Completed after 10 iterations at t[s]:   1849.57
	Linear fluid (dielectric constant: 78.4, screening length: 8.12261 Bohr) occupying 0.486854 of unit cell:	Completed after 0 iterations at t[s]:   1853.36
	FillingsUpdate:  mu: -0.097800000  nElectrons: 128.885281  magneticMoment: [ Abs: 0.00010  Tot: +0.00006 ]
	SubspaceRotationAdjust: set factor to 0.0259
ElecMinimize: Iter:  59  G: -699.243298230310188  |grad|_K:  9.238e-08  alpha:  6.529e-01  linmin:  3.591e-05  t[s]:   1858.65
	Linear fluid (dielectric constant: 78.4, screening length: 8.12261 Bohr) occupying 0.486818 of unit cell:	Completed after 13 iterations at t[s]:   1863.79
	Linear fluid (dielectric constant: 78.4, screening length: 8.12261 Bohr) occupying 0.486831 of unit cell:	Completed after 10 iterations at t[s]:   1867.96
	FillingsUpdate:  mu: -0.097800000  nElectrons: 128.884527  magneticMoment: [ Abs: 0.00010  Tot: +0.00006 ]
	SubspaceRotationAdjust: set factor to 0.0205
ElecMinimize: Iter:  60  G: -699.243298692676149  |grad|_K:  1.206e-07  alpha:  4.228e-01  linmin:  6.004e-06  t[s]:   1873.37
	Linear fluid (dielectric constant: 78.4, screening length: 8.12261 Bohr) occupying 0.486869 of unit cell:	Completed after 14 iterations at t[s]:   1878.58
	Linear fluid (dielectric constant: 78.4, screening length: 8.12261 Bohr) occupying 0.486849 of unit cell:	Completed after 13 iterations at t[s]:   1882.88
	FillingsUpdate:  mu: -0.097800000  nElectrons: 128.884919  magneticMoment: [ Abs: 0.00010  Tot: +0.00006 ]
	SubspaceRotationAdjust: set factor to 0.0155
ElecMinimize: Iter:  61  G: -699.243299062643246  |grad|_K:  8.736e-08  alpha:  1.976e-01  linmin:  1.885e-06  t[s]:   1888.18
	Linear fluid (dielectric constant: 78.4, screening length: 8.12261 Bohr) occupying 0.486846 of unit cell:	Completed after 2 iterations at t[s]:   1892.94
	Linear fluid (dielectric constant: 78.4, screening length: 8.12261 Bohr) occupying 0.486843 of unit cell:	Completed after 8 iterations at t[s]:   1897.02
	FillingsUpdate:  mu: -0.097800000  nElectrons: 128.884600  magneticMoment: [ Abs: 0.00010  Tot: +0.00006 ]
	SubspaceRotationAdjust: set factor to 0.0183
ElecMinimize: Iter:  62  G: -699.243299586429998  |grad|_K:  7.730e-08  alpha:  5.375e-01  linmin:  7.224e-05  t[s]:   1902.50
	Linear fluid (dielectric constant: 78.4, screening length: 8.12261 Bohr) occupying 0.486829 of unit cell:	Completed after 12 iterations at t[s]:   1907.64
	Linear fluid (dielectric constant: 78.4, screening length: 8.12261 Bohr) occupying 0.486830 of unit cell:	Completed after 2 iterations at t[s]:   1911.58
	FillingsUpdate:  mu: -0.097800000  nElectrons: 128.884137  magneticMoment: [ Abs: 0.00010  Tot: +0.00006 ]
	SubspaceRotationAdjust: set factor to 0.0183
ElecMinimize: Iter:  63  G: -699.243299963790719  |grad|_K:  8.401e-08  alpha:  4.948e-01  linmin:  2.375e-05  t[s]:   1916.88
	Linear fluid (dielectric constant: 78.4, screening length: 8.12261 Bohr) occupying 0.486858 of unit cell:	Completed after 13 iterations at t[s]:   1921.99
	Linear fluid (dielectric constant: 78.4, screening length: 8.12261 Bohr) occupying 0.486845 of unit cell:	Completed after 13 iterations at t[s]:   1926.29
	FillingsUpdate:  mu: -0.097800000  nElectrons: 128.884472  magneticMoment: [ Abs: 0.00010  Tot: +0.00006 ]
	SubspaceRotationAdjust: set factor to 0.0147
ElecMinimize: Iter:  64  G: -699.243300192575362  |grad|_K:  7.378e-08  alpha:  2.557e-01  linmin:  1.180e-06  t[s]:   1933.09
	Linear fluid (dielectric constant: 78.4, screening length: 8.12261 Bohr) occupying 0.486840 of unit cell:	Completed after 8 iterations at t[s]:   1938.00
	Linear fluid (dielectric constant: 78.4, screening length: 8.12261 Bohr) occupying 0.486836 of unit cell:	Completed after 8 iterations at t[s]:   1942.12
	FillingsUpdate:  mu: -0.097800000  nElectrons: 128.884157  magneticMoment: [ Abs: 0.00009  Tot: +0.00006 ]
	SubspaceRotationAdjust: set factor to 0.0179
ElecMinimize: Iter:  65  G: -699.243300511387588  |grad|_K:  5.944e-08  alpha:  4.564e-01  linmin:  2.068e-05  t[s]:   1947.45
	Linear fluid (dielectric constant: 78.4, screening length: 8.12261 Bohr) occupying 0.486831 of unit cell:	Completed after 9 iterations at t[s]:   1952.43
	Linear fluid (dielectric constant: 78.4, screening length: 8.12261 Bohr) occupying 0.486829 of unit cell:	Completed after 2 iterations at t[s]:   1956.36
	FillingsUpdate:  mu: -0.097800000  nElectrons: 128.883937  magneticMoment: [ Abs: 0.00009  Tot: +0.00006 ]
	SubspaceRotationAdjust: set factor to 0.0208
ElecMinimize: Iter:  66  G: -699.243300766341008  |grad|_K:  6.089e-08  alpha:  5.621e-01  linmin: -3.983e-05  t[s]:   1961.78
	Linear fluid (dielectric constant: 78.4, screening length: 8.12261 Bohr) occupying 0.486850 of unit cell:	Completed after 12 iterations at t[s]:   1966.86
	Linear fluid (dielectric constant: 78.4, screening length: 8.12261 Bohr) occupying 0.486843 of unit cell:	Completed after 9 iterations at t[s]:   1971.00
	FillingsUpdate:  mu: -0.097800000  nElectrons: 128.884297  magneticMoment: [ Abs: 0.00009  Tot: +0.00006 ]
	SubspaceRotationAdjust: set factor to 0.0173
ElecMinimize: Iter:  67  G: -699.243300946557383  |grad|_K:  7.083e-08  alpha:  3.740e-01  linmin:  4.449e-05  t[s]:   1976.31
	Linear fluid (dielectric constant: 78.4, screening length: 8.12261 Bohr) occupying 0.486832 of unit cell:	Completed after 12 iterations at t[s]:   1981.36
	Linear fluid (dielectric constant: 78.4, screening length: 8.12261 Bohr) occupying 0.486833 of unit cell:	Completed after 5 iterations at t[s]:   1985.36
	FillingsUpdate:  mu: -0.097800000  nElectrons: 128.884022  magneticMoment: [ Abs: 0.00009  Tot: +0.00006 ]
	SubspaceRotationAdjust: set factor to 0.0171
ElecMinimize: Iter:  68  G: -699.243301149862987  |grad|_K:  5.693e-08  alpha:  3.169e-01  linmin:  5.268e-05  t[s]:   1990.73
	Linear fluid (dielectric constant: 78.4, screening length: 8.12261 Bohr) occupying 0.486837 of unit cell:	Completed after 8 iterations at t[s]:   1995.73
	Linear fluid (dielectric constant: 78.4, screening length: 8.12261 Bohr) occupying 0.486841 of unit cell:	Completed after 5 iterations at t[s]:   1999.74
	FillingsUpdate:  mu: -0.097800000  nElectrons: 128.884225  magneticMoment: [ Abs: 0.00009  Tot: +0.00006 ]
	SubspaceRotationAdjust: set factor to 0.0199
ElecMinimize: Iter:  69  G: -699.243301400018254  |grad|_K:  5.510e-08  alpha:  5.998e-01  linmin: -1.146e-04  t[s]:   2005.04
	Linear fluid (dielectric constant: 78.4, screening length: 8.12261 Bohr) occupying 0.486844 of unit cell:	Completed after 4 iterations at t[s]:   2009.87
	Linear fluid (dielectric constant: 78.4, screening length: 8.12261 Bohr) occupying 0.486845 of unit cell:	Completed after 0 iterations at t[s]:   2013.65
	FillingsUpdate:  mu: -0.097800000  nElectrons: 128.884361  magneticMoment: [ Abs: 0.00009  Tot: +0.00006 ]
	SubspaceRotationAdjust: set factor to 0.0227
ElecMinimize: Iter:  70  G: -699.243301654274660  |grad|_K:  5.584e-08  alpha:  6.451e-01  linmin: -3.370e-05  t[s]:   2018.95
	Linear fluid (dielectric constant: 78.4, screening length: 8.12261 Bohr) occupying 0.486846 of unit cell:	Completed after 10 iterations at t[s]:   2024.01
	Linear fluid (dielectric constant: 78.4, screening length: 8.12261 Bohr) occupying 0.486846 of unit cell:	Completed after 1 iterations at t[s]:   2027.87
	FillingsUpdate:  mu: -0.097800000  nElectrons: 128.884413  magneticMoment: [ Abs: 0.00009  Tot: +0.00005 ]
	SubspaceRotationAdjust: set factor to 0.0238
ElecMinimize: Iter:  71  G: -699.243301898855634  |grad|_K:  6.258e-08  alpha:  6.094e-01  linmin: -4.344e-05  t[s]:   2033.15
	Linear fluid (dielectric constant: 78.4, screening length: 8.12261 Bohr) occupying 0.486883 of unit cell:	Completed after 14 iterations at t[s]:   2038.25
	Linear fluid (dielectric constant: 78.4, screening length: 8.12261 Bohr) occupying 0.486862 of unit cell:	Completed after 13 iterations at t[s]:   2042.55
[...]
	Linear fluid (dielectric constant: 78.4, screening length: 8.12261 Bohr) occupying 0.488298 of unit cell:	Completed after 9 iterations at t[s]:   6188.73
	Linear fluid (dielectric constant: 78.4, screening length: 8.12261 Bohr) occupying 0.488299 of unit cell:	Completed after 2 iterations at t[s]:   6192.82
	FillingsUpdate:  mu: -0.097800000  nElectrons: 128.856987  magneticMoment: [ Abs: 0.00001  Tot: +0.00001 ]
	SubspaceRotationAdjust: set factor to 0.013
ElecMinimize: Iter:  16  G: -699.247608301321293  |grad|_K:  4.939e-08  alpha:  6.724e-01  linmin: -7.209e-04  t[s]:   6198.15
	Linear fluid (dielectric constant: 78.4, screening length: 8.12261 Bohr) occupying 0.488302 of unit cell:	Completed after 10 iterations at t[s]:   6203.05
	Linear fluid (dielectric constant: 78.4, screening length: 8.12261 Bohr) occupying 0.488302 of unit cell:	Completed after 2 iterations at t[s]:   6206.97
	FillingsUpdate:  mu: -0.097800000  nElectrons: 128.856979  magneticMoment: [ Abs: 0.00001  Tot: +0.00001 ]
	SubspaceRotationAdjust: set factor to 0.0144
ElecMinimize: Iter:  17  G: -699.247608548700441  |grad|_K:  5.579e-08  alpha:  7.750e-01  linmin: -4.236e-04  t[s]:   6212.28
	Linear fluid (dielectric constant: 78.4, screening length: 8.12261 Bohr) occupying 0.488281 of unit cell:	Completed after 12 iterations at t[s]:   6217.30
	Linear fluid (dielectric constant: 78.4, screening length: 8.12261 Bohr) occupying 0.488288 of unit cell:	Completed after 10 iterations at t[s]:   6221.52
	FillingsUpdate:  mu: -0.097800000  nElectrons: 128.856535  magneticMoment: [ Abs: 0.00001  Tot: +0.00001 ]
	SubspaceRotationAdjust: set factor to 0.0126
ElecMinimize: Iter:  18  G: -699.247608757938451  |grad|_K:  6.315e-08  alpha:  5.141e-01  linmin:  9.273e-05  t[s]:   6226.90
	Linear fluid (dielectric constant: 78.4, screening length: 8.12261 Bohr) occupying 0.488299 of unit cell:	Completed after 12 iterations at t[s]:   6232.02
	Linear fluid (dielectric constant: 78.4, screening length: 8.12261 Bohr) occupying 0.488298 of unit cell:	Completed after 2 iterations at t[s]:   6235.92
	FillingsUpdate:  mu: -0.097800000  nElectrons: 128.856706  magneticMoment: [ Abs: 0.00001  Tot: +0.00001 ]
	SubspaceRotationAdjust: set factor to 0.0109
ElecMinimize: Iter:  19  G: -699.247608990826052  |grad|_K:  5.459e-08  alpha:  4.555e-01  linmin:  3.569e-04  t[s]:   6241.20
	Linear fluid (dielectric constant: 78.4, screening length: 8.12261 Bohr) occupying 0.488295 of unit cell:	Completed after 8 iterations at t[s]:   6246.13
	Linear fluid (dielectric constant: 78.4, screening length: 8.12261 Bohr) occupying 0.488294 of unit cell:	Completed after 2 iterations at t[s]:   6250.14
	FillingsUpdate:  mu: -0.097800000  nElectrons: 128.856534  magneticMoment: [ Abs: 0.00001  Tot: +0.00001 ]
	SubspaceRotationAdjust: set factor to 0.0117
ElecMinimize: Iter:  20  G: -699.247609230558055  |grad|_K:  4.628e-08  alpha:  6.307e-01  linmin: -3.091e-04  t[s]:   6255.50
	Linear fluid (dielectric constant: 78.4, screening length: 8.12261 Bohr) occupying 0.488289 of unit cell:	Completed after 9 iterations at t[s]:   6260.50
	Linear fluid (dielectric constant: 78.4, screening length: 8.12261 Bohr) occupying 0.488289 of unit cell:	Completed after 0 iterations at t[s]:   6264.31
	FillingsUpdate:  mu: -0.097800000  nElectrons: 128.856392  magneticMoment: [ Abs: 0.00001  Tot: +0.00001 ]
	SubspaceRotationAdjust: set factor to 0.0119
ElecMinimize: Iter:  21  G: -699.247609400003739  |grad|_K:  4.178e-08  alpha:  6.117e-01  linmin: -6.364e-05  t[s]:   6269.61
	Linear fluid (dielectric constant: 78.4, screening length: 8.12261 Bohr) occupying 0.488299 of unit cell:	Completed after 13 iterations at t[s]:   6274.74
	Linear fluid (dielectric constant: 78.4, screening length: 8.12261 Bohr) occupying 0.488296 of unit cell:	Completed after 9 iterations at t[s]:   6278.86
	FillingsUpdate:  mu: -0.097800000  nElectrons: 128.856567  magneticMoment: [ Abs: 0.00001  Tot: +0.00001 ]
	SubspaceRotationAdjust: set factor to 0.0099
ElecMinimize: Iter:  22  G: -699.247609491728895  |grad|_K:  3.526e-08  alpha:  4.102e-01  linmin: -5.175e-05  t[s]:   6284.27
	Linear fluid (dielectric constant: 78.4, screening length: 8.12261 Bohr) occupying 0.488290 of unit cell:	Completed after 10 iterations at t[s]:   6289.22
	Linear fluid (dielectric constant: 78.4, screening length: 8.12261 Bohr) occupying 0.488290 of unit cell:	Completed after 0 iterations at t[s]:   6293.04
	FillingsUpdate:  mu: -0.097800000  nElectrons: 128.856429  magneticMoment: [ Abs: 0.00001  Tot: +0.00001 ]
	SubspaceRotationAdjust: set factor to 0.00965
ElecMinimize: Iter:  23  G: -699.247609559978969  |grad|_K:  2.520e-08  alpha:  4.263e-01  linmin: -7.901e-04  t[s]:   6298.33
ElecMinimize: Converged (|Delta G|<1.000000e-07 for 2 iters).
Setting wave functions to eigenvectors of Hamiltonian
Converging empty states (this may take a while): |deigs|: 6.240e-08

Computing DFT-D3 correction:
# coordination-number Pt 8.559 9.438 5.875 9.336 9.334 5.876 9.439 8.553
# diagonal-C6 Pt 336.87 336.87 336.87 336.87 336.87 336.87 336.87 336.87
EvdW_6 =   -0.066308
EvdW_8 =   -0.109326

# Ionic positions in cartesian coordinates:
ion Pt   0.000047299140640   7.398988603738533  48.600538554392273 1
ion Pt   0.000017132960660   0.000065422645986  43.195146178439714 1
ion Pt   2.616052042653931   3.699404264169972  50.948010528754885 1
ion Pt   2.616015510616463   3.699651963448990  45.747249700365593 1
ion Pt   5.231933197688093  -0.000009798124984  37.967995626070547 1
ion Pt   0.000045471547384   0.000150065154261  32.764606667731954 1
ion Pt   2.615895340179173   3.699543395171221  40.515351201686848 1
ion Pt   2.615982005213654   3.699680083796019  35.108791542558173 1

# Forces in Cartesian coordinates:
force Pt  -0.000001828920382   0.000010546271165   0.000192366930501 1
force Pt  -0.000001561266818  -0.000003483004208   0.000276832626851 1
force Pt   0.000000049188512  -0.000011255698044   0.000282985059059 1
force Pt  -0.000000026278501  -0.000004037185856   0.000154504342151 1
force Pt  -0.000002635798964  -0.000003339706435  -0.000529873047122 1
force Pt  -0.000000552424463   0.000003846197674   0.000553701345380 1
force Pt  -0.000000021575331   0.000008194682436   0.000113853757477 1
force Pt   0.000000559847607   0.000006445368411   0.000115562524609 1

# Energy components:
   A_diel =       -0.3682568098799228
   Eewald =     3564.3948939832407632
       EH =     4226.7832633416710451
     Eloc =    -8626.0001851218312368
      Enl =       -8.4323061189049611
     EvdW =       -0.1756345916888516
      Exc =     -227.7672788127297565
 Exc_core =      131.1310418647802862
       KE =      228.6399449592563542
  MuShift =       -0.0537012160291306
-------------------------------------
     Etot =     -711.8482185221149621
       TS =        0.0015498385660071
-------------------------------------
        F =     -711.8497683606809687
      muN =      -12.6021588007019609
-------------------------------------
        G =     -699.2476095599789687


Dumping 'jdft.fillings' ... done
Dumping 'jdft.wfns' ... done
Dumping 'jdft.fluidState' ... done
Dumping 'jdft.ionpos' ... done
Dumping 'jdft.lattice' ... done
Dumping 'jdft.eigenvals' ... done
Dumping 'jdft.eigStats' ... 
	eMin: -2.046235 at state 52 ( [ +0.500000 +0.500000 +0.000000 ] spin 1 )
	HOMO: -0.097878 at state 189 ( [ -0.083333 -0.375000 +0.000000 ] spin -1 )
	mu  : -0.097800
	LUMO: -0.097719 at state 53 ( [ +0.500000 -0.375000 +0.000000 ] spin 1 )
	eMax: +0.203877 at state 145 ( [ +0.500000 +0.125000 +0.000000 ] spin -1 )
	HOMO-LUMO gap: +0.000158
	Optical gap  : +0.002348 at state 159 ( [ -0.416667 -0.125000 +0.000000 ] spin -1 )
Dumping 'jdft.Ecomponents' ... done
IonicMinimize: Iter:   6  G: -699.247609559978969  |grad|_K:  1.663e-04  alpha:  3.442e-01  linmin:  2.020e-02  t[s]:   6311.95

#--- Lowdin population analysis ---
# oxidation-state Pt -0.087 +0.011 -0.307 -0.001 -0.001 -0.321 +0.012 -0.087
# magnetic-moments Pt +0.000 +0.000 +0.000 +0.000 +0.000 +0.000 +0.000 +0.000


Computing DFT-D3 correction:
# coordination-number Pt 8.559 9.435 5.873 9.336 9.336 5.880 9.435 8.559
# diagonal-C6 Pt 336.87 336.87 336.87 336.87 336.87 336.87 336.87 336.87
EvdW_6 =   -0.066304
EvdW_8 =   -0.109316
Shifting auxilliary hamiltonian by 0.000038 to set nElectrons=128.856429

-------- Electronic minimization -----------
	Linear fluid (dielectric constant: 78.4, screening length: 8.12261 Bohr) occupying 0.488285 of unit cell:	Completed after 17 iterations at t[s]:   6317.92
	FillingsUpdate:  mu: -0.097800000  nElectrons: 128.856429  magneticMoment: [ Abs: 0.00001  Tot: +0.00001 ]
ElecMinimize: Iter:   0  G: -699.247591281748441  |grad|_K:  6.933e-07  alpha:  1.000e+00
	Linear fluid (dielectric constant: 78.4, screening length: 8.12261 Bohr) occupying 0.488845 of unit cell:	Completed after 24 iterations at t[s]:   6329.82
	Linear fluid (dielectric constant: 78.4, screening length: 8.12261 Bohr) occupying 0.488403 of unit cell:	Completed after 23 iterations at t[s]:   6334.49
	FillingsUpdate:  mu: -0.097800000  nElectrons: 128.859536  magneticMoment: [ Abs: 0.00001  Tot: +0.00001 ]
	SubspaceRotationAdjust: set factor to 0.00754
ElecMinimize: Iter:   1  G: -699.247603898673447  |grad|_K:  1.935e-07  alpha:  2.052e-01  linmin:  4.061e-03  t[s]:   6339.83
	Linear fluid (dielectric constant: 78.4, screening length: 8.12261 Bohr) occupying 0.488389 of unit cell:	Completed after 12 iterations at t[s]:   6345.07
	Linear fluid (dielectric constant: 78.4, screening length: 8.12261 Bohr) occupying 0.488371 of unit cell:	Completed after 13 iterations at t[s]:   6349.36
	FillingsUpdate:  mu: -0.097800000  nElectrons: 128.858960  magneticMoment: [ Abs: 0.00001  Tot: +0.00001 ]
	SubspaceRotationAdjust: set factor to 0.0109
ElecMinimize: Iter:   2  G: -699.247606217034900  |grad|_K:  1.086e-07  alpha:  4.840e-01  linmin:  1.829e-04  t[s]:   6354.64
	Linear fluid (dielectric constant: 78.4, screening length: 8.12261 Bohr) occupying 0.488352 of unit cell:	Completed after 9 iterations at t[s]:   6359.53
	Linear fluid (dielectric constant: 78.4, screening length: 8.12261 Bohr) occupying 0.488349 of unit cell:	Completed after 3 iterations at t[s]:   6363.43
	FillingsUpdate:  mu: -0.097800000  nElectrons: 128.858587  magneticMoment: [ Abs: 0.00001  Tot: +0.00001 ]
	SubspaceRotationAdjust: set factor to 0.0136
ElecMinimize: Iter:   3  G: -699.247607073756512  |grad|_K:  8.731e-08  alpha:  5.655e-01  linmin: -1.767e-04  t[s]:   6368.71
	Linear fluid (dielectric constant: 78.4, screening length: 8.12261 Bohr) occupying 0.488327 of unit cell:	Completed after 11 iterations at t[s]:   6373.83
	Linear fluid (dielectric constant: 78.4, screening length: 8.12261 Bohr) occupying 0.488320 of unit cell:	Completed after 5 iterations at t[s]:   6377.84
	FillingsUpdate:  mu: -0.097800000  nElectrons: 128.858057  magneticMoment: [ Abs: 0.00001  Tot: +0.00001 ]
	SubspaceRotationAdjust: set factor to 0.0164
ElecMinimize: Iter:   4  G: -699.247607793143175  |grad|_K:  8.599e-08  alpha:  7.334e-01  linmin: -5.850e-04  t[s]:   6383.14
	Linear fluid (dielectric constant: 78.4, screening length: 8.12261 Bohr) occupying 0.488301 of unit cell:	Completed after 12 iterations at t[s]:   6388.27
	Linear fluid (dielectric constant: 78.4, screening length: 8.12261 Bohr) occupying 0.488302 of unit cell:	Completed after 0 iterations at t[s]:   6392.08
	FillingsUpdate:  mu: -0.097800000  nElectrons: 128.857693  magneticMoment: [ Abs: 0.00002  Tot: +0.00001 ]
	SubspaceRotationAdjust: set factor to 0.0178
ElecMinimize: Iter:   5  G: -699.247608481372367  |grad|_K:  7.723e-08  alpha:  7.224e-01  linmin:  5.129e-04  t[s]:   6397.38
	Linear fluid (dielectric constant: 78.4, screening length: 8.12261 Bohr) occupying 0.488277 of unit cell:	Completed after 12 iterations at t[s]:   6402.59
	Linear fluid (dielectric constant: 78.4, screening length: 8.12261 Bohr) occupying 0.488279 of unit cell:	Completed after 2 iterations at t[s]:   6406.54
	FillingsUpdate:  mu: -0.097800000  nElectrons: 128.857062  magneticMoment: [ Abs: 0.00002  Tot: +0.00001 ]
	SubspaceRotationAdjust: set factor to 0.0176
ElecMinimize: Iter:   6  G: -699.247608987096896  |grad|_K:  8.024e-08  alpha:  6.615e-01  linmin:  4.644e-04  t[s]:   6411.85
	Linear fluid (dielectric constant: 78.4, screening length: 8.12261 Bohr) occupying 0.488312 of unit cell:	Completed after 13 iterations at t[s]:   6417.00
	Linear fluid (dielectric constant: 78.4, screening length: 8.12261 Bohr) occupying 0.488294 of unit cell:	Completed after 12 iterations at t[s]:   6421.24
	FillingsUpdate:  mu: -0.097800000  nElectrons: 128.857353  magneticMoment: [ Abs: 0.00002  Tot: +0.00001 ]
	SubspaceRotationAdjust: set factor to 0.0128
ElecMinimize: Iter:   7  G: -699.247609234985021  |grad|_K:  7.266e-08  alpha:  3.040e-01  linmin:  1.375e-04  t[s]:   6427.41
	Linear fluid (dielectric constant: 78.4, screening length: 8.12261 Bohr) occupying 0.488285 of unit cell:	Completed after 10 iterations at t[s]:   6433.01
	Linear fluid (dielectric constant: 78.4, screening length: 8.12261 Bohr) occupying 0.488281 of unit cell:	Completed after 8 iterations at t[s]:   6437.12
	FillingsUpdate:  mu: -0.097800000  nElectrons: 128.856828  magneticMoment: [ Abs: 0.00001  Tot: +0.00001 ]
	SubspaceRotationAdjust: set factor to 0.0123
ElecMinimize: Iter:   8  G: -699.247609519257367  |grad|_K:  5.010e-08  alpha:  4.197e-01  linmin: -5.403e-05  t[s]:   6442.45
	Linear fluid (dielectric constant: 78.4, screening length: 8.12261 Bohr) occupying 0.488281 of unit cell:	Completed after 2 iterations at t[s]:   6447.21
	Linear fluid (dielectric constant: 78.4, screening length: 8.12261 Bohr) occupying 0.488281 of unit cell:	Completed after 2 iterations at t[s]:   6451.11
	FillingsUpdate:  mu: -0.097800000  nElectrons: 128.856621  magneticMoment: [ Abs: 0.00001  Tot: +0.00001 ]
	SubspaceRotationAdjust: set factor to 0.0142
ElecMinimize: Iter:   9  G: -699.247609720763649  |grad|_K:  4.002e-08  alpha:  6.244e-01  linmin: -3.535e-04  t[s]:   6456.43
	Linear fluid (dielectric constant: 78.4, screening length: 8.12261 Bohr) occupying 0.488290 of unit cell:	Completed after 9 iterations at t[s]:   6461.53
	Linear fluid (dielectric constant: 78.4, screening length: 8.12261 Bohr) occupying 0.488290 of unit cell:	Completed after 0 iterations at t[s]:   6465.34
	FillingsUpdate:  mu: -0.097800000  nElectrons: 128.856686  magneticMoment: [ Abs: 0.00001  Tot: +0.00001 ]
	SubspaceRotationAdjust: set factor to 0.0149
ElecMinimize: Iter:  10  G: -699.247609844683211  |grad|_K:  3.762e-08  alpha:  6.006e-01  linmin:  5.030e-04  t[s]:   6470.63
	Linear fluid (dielectric constant: 78.4, screening length: 8.12261 Bohr) occupying 0.488281 of unit cell:	Completed after 11 iterations at t[s]:   6475.68
	Linear fluid (dielectric constant: 78.4, screening length: 8.12261 Bohr) occupying 0.488284 of unit cell:	Completed after 9 iterations at t[s]:   6479.81
	FillingsUpdate:  mu: -0.097800000  nElectrons: 128.856440  magneticMoment: [ Abs: 0.00001  Tot: +0.00001 ]
	SubspaceRotationAdjust: set factor to 0.0135
ElecMinimize: Iter:  11  G: -699.247609916177339  |grad|_K:  3.785e-08  alpha:  3.991e-01  linmin: -1.274e-04  t[s]:   6485.10
	Linear fluid (dielectric constant: 78.4, screening length: 8.12261 Bohr) occupying 0.488291 of unit cell:	Completed after 9 iterations at t[s]:   6490.13
	Linear fluid (dielectric constant: 78.4, screening length: 8.12261 Bohr) occupying 0.488293 of unit cell:	Completed after 2 iterations at t[s]:   6494.05
	FillingsUpdate:  mu: -0.097800000  nElectrons: 128.856557  magneticMoment: [ Abs: 0.00001  Tot: +0.00001 ]
	SubspaceRotationAdjust: set factor to 0.0146
ElecMinimize: Iter:  12  G: -699.247610003016007  |grad|_K:  3.252e-08  alpha:  4.701e-01  linmin: -1.169e-03  t[s]:   6499.36
ElecMinimize: Converged (|Delta G|<1.000000e-07 for 2 iters).
Setting wave functions to eigenvectors of Hamiltonian
Converging empty states (this may take a while): |deigs|: 1.306e-08

Computing DFT-D3 correction:
# coordination-number Pt 8.559 9.435 5.873 9.336 9.336 5.880 9.435 8.559
# diagonal-C6 Pt 336.87 336.87 336.87 336.87 336.87 336.87 336.87 336.87
EvdW_6 =   -0.066304
EvdW_8 =   -0.109316

# Ionic positions in cartesian coordinates:
ion Pt   0.000041640797660   7.399027500492000  48.600432999886223 1
ion Pt   0.000015920206381   0.000043906998125  43.195652745057075 1
ion Pt   2.616055055946607   3.699343886036826  50.949491887740869 1
ion Pt   2.616017597537194   3.699626901146601  45.747770209338050 1
ion Pt   5.231923687591539  -0.000025921594292  37.964429249123867 1
ion Pt   0.000048549426096   0.000170021079090  32.765854141878108 1
ion Pt   2.615897663823390   3.699577125623146  40.515126538885170 1
ion Pt   2.615987884671131   3.699710580218501  35.108932228090630 1

# Forces in Cartesian coordinates:
force Pt  -0.000001224313608   0.000001627162695   0.000015299381326 1
force Pt  -0.000001099093098  -0.000000661622643   0.000032058408254 1
force Pt  -0.000000148144693  -0.000002659583436   0.000077852240184 1
force Pt  -0.000000445820416  -0.000002167442954   0.000005226580557 1
force Pt  -0.000001704461391   0.000000342763123  -0.000008028456470 1
force Pt  -0.000000659893082   0.000004124614771   0.000356413022944 1
force Pt   0.000000081839452   0.000002579906871   0.000128476456447 1
force Pt  -0.000000232751385   0.000004404012399   0.000221703295950 1

# Energy components:
   A_diel =       -0.3683182245698860
   Eewald =     3564.0694800446885893
       EH =     4226.4637302542705584
     Eloc =    -8625.3552608022582717
      Enl =       -8.4322500759513588
     EvdW =       -0.1756206372663742
      Exc =     -227.7673164018866032
 Exc_core =      131.1310420462423281
       KE =      228.6399918356662795
  MuShift =       -0.0537092366850188
-------------------------------------
     Etot =     -711.8482311977498966
       TS =        0.0015501159365810
-------------------------------------
        F =     -711.8497813136864352
      muN =      -12.6021713106704070
-------------------------------------
        G =     -699.2476100030160069


Dumping 'jdft.fillings' ... done
Dumping 'jdft.wfns' ... done
Dumping 'jdft.fluidState' ... done
Dumping 'jdft.ionpos' ... done
Dumping 'jdft.lattice' ... done
Dumping 'jdft.eigenvals' ... done
Dumping 'jdft.eigStats' ... 
	eMin: -2.046093 at state 52 ( [ +0.500000 +0.500000 +0.000000 ] spin 1 )
	HOMO: -0.097826 at state 107 ( [ +0.083333 +0.375000 +0.000000 ] spin -1 )
	mu  : -0.097800
	LUMO: -0.097611 at state 53 ( [ +0.500000 -0.375000 +0.000000 ] spin 1 )
	eMax: +0.203841 at state 145 ( [ +0.500000 +0.125000 +0.000000 ] spin -1 )
	HOMO-LUMO gap: +0.000215
	Optical gap  : +0.002349 at state 137 ( [ +0.416667 +0.125000 +0.000000 ] spin -1 )
Dumping 'jdft.Ecomponents' ... done
IonicMinimize: Iter:   7  G: -699.247610003016007  |grad|_K:  6.900e-05  alpha:  1.000e+00  linmin: -3.292e-01  t[s]:   6513.01
IonicMinimize: Converged (|grad|_K<1.000000e-04).

#--- Lowdin population analysis ---
# oxidation-state Pt -0.089 +0.013 -0.308 -0.001 -0.001 -0.320 +0.013 -0.088
# magnetic-moments Pt +0.000 +0.000 +0.000 +0.000 +0.000 +0.000 +0.000 +0.000


Dumping 'jdft.n_up' ... done
Dumping 'jdft.n_dn' ... done
Dumping 'jdft.tau_up' ... done
Dumping 'jdft.tau_dn' ... done
Dumping 'jdft.eigenvals' ... done
Dumping 'jdft.eigStats' ... 
	eMin: -2.046093 at state 52 ( [ +0.500000 +0.500000 +0.000000 ] spin 1 )
	HOMO: -0.097826 at state 107 ( [ +0.083333 +0.375000 +0.000000 ] spin -1 )
	mu  : -0.097800
	LUMO: -0.097611 at state 53 ( [ +0.500000 -0.375000 +0.000000 ] spin 1 )
	eMax: +0.203841 at state 145 ( [ +0.500000 +0.125000 +0.000000 ] spin -1 )
	HOMO-LUMO gap: +0.000215
	Optical gap  : +0.002349 at state 137 ( [ +0.416667 +0.125000 +0.000000 ] spin -1 )
Dumping 'jdft.kPts' ... done
Dumping 'jdft.dosUp' ... done.
Dumping 'jdft.dosDn' ... done.
End date and time: Mon Dec  6 18:33:33 2021  (Duration: 0-1:48:42.95)
Done!
