
*************** JDFTx 1.6.0  ***************

Start date and time: Mon Dec  6 16:19:42 2021
Executable /projects/musgravc/apps/jdftx-1.6.1/build/jdftx with command-line: -i in
Running on hosts (process indices):  shas0510.rc.int.colorado.edu (0-23)
Divided in process groups (process indices):  0 (0)  1 (1)  2 (2)  3 (3)  4 (4)  5 (5)  6 (6)  7 (7)  8 (8)  9 (9)  10 (10)  11 (11)  12 (12)  13 (13)  14 (14)  15 (15)  16 (16)  17 (17)  18 (18)  19 (19)  20 (20)  21 (21)  22 (22)  23 (23)
Resource initialization completed at t[s]:      0.00
Run totals: 24 processes, 24 threads, 0 GPUs


Input parsed successfully to the following command list (including defaults):

basis kpoint-dependent
converge-empty-states yes
coords-type Cartesian
core-overlap-check none
coulomb-interaction Periodic
davidson-band-ratio 1.1
density-of-states Etol 1.000000e-06 Esigma 1.000000e-03 \
		Complete \
	Total \
	OrthoOrbital Pt 1   s \
	OrthoOrbital Pt 1   p \
	OrthoOrbital Pt 1   px \
	OrthoOrbital Pt 1   py \
	OrthoOrbital Pt 1   pz \
	OrthoOrbital Pt 1   d \
	OrthoOrbital Pt 1   dxy \
	OrthoOrbital Pt 1   dyz \
	OrthoOrbital Pt 1   dz2 \
	OrthoOrbital Pt 1   dxz \
	OrthoOrbital Pt 1   dx2-y2 \
	OrthoOrbital Pt 2   s \
	OrthoOrbital Pt 2   p \
	OrthoOrbital Pt 2   px \
	OrthoOrbital Pt 2   py \
	OrthoOrbital Pt 2   pz \
	OrthoOrbital Pt 2   d \
	OrthoOrbital Pt 2   dxy \
	OrthoOrbital Pt 2   dyz \
	OrthoOrbital Pt 2   dz2 \
	OrthoOrbital Pt 2   dxz \
	OrthoOrbital Pt 2   dx2-y2 \
	OrthoOrbital Pt 3   s \
	OrthoOrbital Pt 3   p \
	OrthoOrbital Pt 3   px \
	OrthoOrbital Pt 3   py \
	OrthoOrbital Pt 3   pz \
	OrthoOrbital Pt 3   d \
	OrthoOrbital Pt 3   dxy \
	OrthoOrbital Pt 3   dyz \
	OrthoOrbital Pt 3   dz2 \
	OrthoOrbital Pt 3   dxz \
	OrthoOrbital Pt 3   dx2-y2 \
	OrthoOrbital Pt 4   s \
	OrthoOrbital Pt 4   p \
	OrthoOrbital Pt 4   px \
	OrthoOrbital Pt 4   py \
	OrthoOrbital Pt 4   pz \
	OrthoOrbital Pt 4   d \
	OrthoOrbital Pt 4   dxy \
	OrthoOrbital Pt 4   dyz \
	OrthoOrbital Pt 4   dz2 \
	OrthoOrbital Pt 4   dxz \
	OrthoOrbital Pt 4   dx2-y2 \
	OrthoOrbital Pt 5   s \
	OrthoOrbital Pt 5   p \
	OrthoOrbital Pt 5   px \
	OrthoOrbital Pt 5   py \
	OrthoOrbital Pt 5   pz \
	OrthoOrbital Pt 5   d \
	OrthoOrbital Pt 5   dxy \
	OrthoOrbital Pt 5   dyz \
	OrthoOrbital Pt 5   dz2 \
	OrthoOrbital Pt 5   dxz \
	OrthoOrbital Pt 5   dx2-y2 \
	OrthoOrbital Pt 6   s \
	OrthoOrbital Pt 6   p \
	OrthoOrbital Pt 6   px \
	OrthoOrbital Pt 6   py \
	OrthoOrbital Pt 6   pz \
	OrthoOrbital Pt 6   d \
	OrthoOrbital Pt 6   dxy \
	OrthoOrbital Pt 6   dyz \
	OrthoOrbital Pt 6   dz2 \
	OrthoOrbital Pt 6   dxz \
	OrthoOrbital Pt 6   dx2-y2 \
	OrthoOrbital Pt 7   s \
	OrthoOrbital Pt 7   p \
	OrthoOrbital Pt 7   px \
	OrthoOrbital Pt 7   py \
	OrthoOrbital Pt 7   pz \
	OrthoOrbital Pt 7   d \
	OrthoOrbital Pt 7   dxy \
	OrthoOrbital Pt 7   dyz \
	OrthoOrbital Pt 7   dz2 \
	OrthoOrbital Pt 7   dxz \
	OrthoOrbital Pt 7   dx2-y2 \
	OrthoOrbital Pt 8   s \
	OrthoOrbital Pt 8   p \
	OrthoOrbital Pt 8   px \
	OrthoOrbital Pt 8   py \
	OrthoOrbital Pt 8   pz \
	OrthoOrbital Pt 8   d \
	OrthoOrbital Pt 8   dxy \
	OrthoOrbital Pt 8   dyz \
	OrthoOrbital Pt 8   dz2 \
	OrthoOrbital Pt 8   dxz \
	OrthoOrbital Pt 8   dx2-y2 \
	OrthoOrbital Pt 9   s \
	OrthoOrbital Pt 9   p \
	OrthoOrbital Pt 9   px \
	OrthoOrbital Pt 9   py \
	OrthoOrbital Pt 9   pz \
	OrthoOrbital Pt 9   d \
	OrthoOrbital Pt 9   dxy \
	OrthoOrbital Pt 9   dyz \
	OrthoOrbital Pt 9   dz2 \
	OrthoOrbital Pt 9   dxz \
	OrthoOrbital Pt 9   dx2-y2 \
	OrthoOrbital Pt 10   s \
	OrthoOrbital Pt 10   p \
	OrthoOrbital Pt 10   px \
	OrthoOrbital Pt 10   py \
	OrthoOrbital Pt 10   pz \
	OrthoOrbital Pt 10   d \
	OrthoOrbital Pt 10   dxy \
	OrthoOrbital Pt 10   dyz \
	OrthoOrbital Pt 10   dz2 \
	OrthoOrbital Pt 10   dxz \
	OrthoOrbital Pt 10   dx2-y2 \
	OrthoOrbital Pt 11   s \
	OrthoOrbital Pt 11   p \
	OrthoOrbital Pt 11   px \
	OrthoOrbital Pt 11   py \
	OrthoOrbital Pt 11   pz \
	OrthoOrbital Pt 11   d \
	OrthoOrbital Pt 11   dxy \
	OrthoOrbital Pt 11   dyz \
	OrthoOrbital Pt 11   dz2 \
	OrthoOrbital Pt 11   dxz \
	OrthoOrbital Pt 11   dx2-y2 \
	OrthoOrbital Pt 12   s \
	OrthoOrbital Pt 12   p \
	OrthoOrbital Pt 12   px \
	OrthoOrbital Pt 12   py \
	OrthoOrbital Pt 12   pz \
	OrthoOrbital Pt 12   d \
	OrthoOrbital Pt 12   dxy \
	OrthoOrbital Pt 12   dyz \
	OrthoOrbital Pt 12   dz2 \
	OrthoOrbital Pt 12   dxz \
	OrthoOrbital Pt 12   dx2-y2
dump End ElecDensity KEdensity BandEigs EigStats RhoAtom DOS Kpoints
dump Ionic State IonicPositions Lattice EigStats Ecomponents
dump 
dump 
dump 
dump 
dump 
dump 
dump 
dump 
dump-name jdft.$VAR
elec-cutoff 20
elec-eigen-algo Davidson
elec-ex-corr gga-PBE
elec-initial-magnetization 0.000000 no
elec-n-bands 116
elec-smearing Fermi 0.001
electronic-minimize  \
	dirUpdateScheme      FletcherReeves \
	linminMethod         DirUpdateRecommended \
	nIterations          100 \
	history              15 \
	knormThreshold       0 \
	energyDiffThreshold  1e-07 \
	nEnergyDiff          2 \
	alphaTstart          1 \
	alphaTmin            1e-10 \
	updateTestStepSize   yes \
	alphaTreduceFactor   0.1 \
	alphaTincreaseFactor 3 \
	nAlphaAdjustMax      3 \
	wolfeEnergy          0.0001 \
	wolfeGradient        0.9 \
	fdTest               no
exchange-regularization WignerSeitzTruncated
fluid LinearPCM 298.000000 1.013250
fluid-anion F- 0.5 MeanFieldLJ \
	epsBulk 1 \
	pMol 0 \
	epsInf 1 \
	Pvap 0 \
	sigmaBulk 0 \
	Rvdw 2.24877 \
	Res 0 \
	tauNuc 343133
fluid-cation Na+ 0.5 MeanFieldLJ \
	epsBulk 1 \
	pMol 0 \
	epsInf 1 \
	Pvap 0 \
	sigmaBulk 0 \
	Rvdw 2.19208 \
	Res 0 \
	tauNuc 343133
fluid-ex-corr lda-TF lda-PZ
fluid-gummel-loop 10 1.000000e-05
fluid-minimize  \
	dirUpdateScheme      PolakRibiere \
	linminMethod         DirUpdateRecommended \
	nIterations          400 \
	history              15 \
	knormThreshold       1e-11 \
	energyDiffThreshold  0 \
	nEnergyDiff          2 \
	alphaTstart          1 \
	alphaTmin            1e-10 \
	updateTestStepSize   yes \
	alphaTreduceFactor   0.1 \
	alphaTincreaseFactor 3 \
	nAlphaAdjustMax      6 \
	wolfeEnergy          0.0001 \
	wolfeGradient        0.9 \
	fdTest               no
fluid-solvent H2O 55.338 ScalarEOS \
	epsBulk 78.4 \
	pMol 0.92466 \
	epsInf 1.77 \
	Pvap 1.06736e-10 \
	sigmaBulk 4.62e-05 \
	Rvdw 2.61727 \
	Res 1.42 \
	tauNuc 343133 \
	poleEl 15 7 1
forces-output-coords Positions
ion Pt   0.000000000000000   0.000000000000000  17.368964999999999 1
ion Pt   0.000000000000000   4.271902000000000   2.265538000000000 1
ion Pt   0.000000000000000   8.543816000000000   5.286202000000000 1
ion Pt   0.000000000000000   0.000000000000000   8.306920000000000 1
ion Pt   0.000000000000000   4.271902000000000  11.327583000000001 1
ion Pt   0.000000000000000   8.543816000000000  14.348300999999999 1
ion Pt   2.615998000000000   0.000000000000000   3.775843000000000 1
ion Pt   2.615998000000000   4.271902000000000   6.796561000000001 1
ion Pt   2.615998000000000   8.543816000000000   9.817278999999999 1
ion Pt   2.615998000000000   0.000000000000000  12.837942000000000 1
ion Pt   2.615998000000000   4.271902000000000  15.858660000000000 1
ion Pt   2.615998000000000   8.543816000000000   0.755179000000000 1
ion-species /projects/musgravc/apps/jdftx-1.6.0/build/pseudopotentials/GBRV_v1.5/$ID_pbe_v1.uspp
ion-species /projects/musgravc/apps/jdftx-1.6.0/build/pseudopotentials/GBRV_v1.5/$ID_pbe_v1.2.uspp
ion-species /projects/musgravc/apps/jdftx-1.6.0/build/pseudopotentials/GBRV_v1.5/$ID_pbe_v1.4.uspp
ion-species /projects/musgravc/apps/jdftx-1.6.0/build/pseudopotentials/GBRV_v1.5/$ID_pbe_v1.5.uspp
ion-width Ecut
ionic-minimize  \
	dirUpdateScheme      L-BFGS \
	linminMethod         DirUpdateRecommended \
	nIterations          100 \
	history              15 \
	knormThreshold       0.0001 \
	energyDiffThreshold  1e-06 \
	nEnergyDiff          2 \
	alphaTstart          1 \
	alphaTmin            1e-10 \
	updateTestStepSize   yes \
	alphaTreduceFactor   0.1 \
	alphaTincreaseFactor 3 \
	nAlphaAdjustMax      3 \
	wolfeEnergy          0.0001 \
	wolfeGradient        0.9 \
	fdTest               no
kpoint   0.000000000000   0.000000000000   0.000000000000  1.00000000000000
kpoint-folding 12 5 1 
latt-move-scale 0 0 0
latt-scale 1 1 1 
lattice  \
	   5.231996000000000    0.000000000000000    0.000000000000000  \
	   0.000000000000000   12.815718000000000    0.000000000000000  \
	   0.000000000000000    0.000000000000000   54.372487000000000 
lattice-minimize  \
	dirUpdateScheme      L-BFGS \
	linminMethod         DirUpdateRecommended \
	nIterations          0 \
	history              15 \
	knormThreshold       0 \
	energyDiffThreshold  1e-06 \
	nEnergyDiff          2 \
	alphaTstart          1 \
	alphaTmin            1e-10 \
	updateTestStepSize   yes \
	alphaTreduceFactor   0.1 \
	alphaTincreaseFactor 3 \
	nAlphaAdjustMax      3 \
	wolfeEnergy          0.0001 \
	wolfeGradient        0.9 \
	fdTest               no
lcao-params 30 1e-06 0.001
pcm-variant CANDLE
spintype z-spin
subspace-rotation-factor 1 yes
symmetries none
symmetry-threshold 0.0001
van-der-waals D3


Applied RMS atom displacement 0 bohrs to make symmetries exact.

---------- Initializing the Grid ----------
R = 
[        5.232            0            0  ]
[            0      12.8157            0  ]
[            0            0      54.3725  ]
unit cell volume = 3645.77
G =
[    1.20092          0          0  ]
[          0   0.490272          0  ]
[          0          0   0.115558  ]
Minimum fftbox size, Smin = [  24  52  220  ]
Chosen fftbox size, S = [  24  54  224  ]

---------- Exchange Correlation functional ----------
Initalized PBE GGA exchange.
Initalized PBE GGA correlation.

---------- Setting up pseudopotentials ----------
Width of ionic core gaussian charges (only for fluid interactions / plotting) set to 0.397384

Reading pseudopotential file '/projects/musgravc/apps/jdftx-1.6.0/build/pseudopotentials/GBRV_v1.5/pt_pbe_v1.4.uspp':
  Title: Pt.  Created by USPP 7.3.6 on 31-3-15
  Reference state energy: -105.002503.  16 valence electrons in orbitals:
    |510>  occupation: 6  eigenvalue: -2.158104
    |520>  occupation: 9.5  eigenvalue: -0.335376
    |600>  occupation: 0  eigenvalue: -0.319640
    |610>  occupation: 0  eigenvalue: -0.122947
  lMax: 2  lLocal: 3  QijEcut: 5.5
  6 projectors sampled on a log grid with 745 points:
    l: 0  eig: -0.319640  rCut: 2.45
    l: 0  eig: 1.500000  rCut: 2.45
    l: 1  eig: -2.158104  rCut: 1.6
    l: 1  eig: -0.122947  rCut: 1.6
    l: 2  eig: -0.500000  rCut: 1.6
    l: 2  eig: -0.335375  rCut: 1.6
  Partial core density with radius 1.1
  Transforming core density to a uniform radial grid of dG=0.02 with 1179 points.
  Transforming local potential to a uniform radial grid of dG=0.02 with 1179 points.
  Transforming nonlocal projectors to a uniform radial grid of dG=0.02 with 432 points.
  Transforming density augmentations to a uniform radial grid of dG=0.02 with 1179 points.
  Transforming atomic orbitals to a uniform radial grid of dG=0.02 with 432 points.
  Core radius for overlap checks: 2.45 bohrs.

Initialized 1 species with 12 total atoms.

Folded 1 k-points by 12x5x1 to 60 k-points.

---------- Setting up k-points, bands, fillings ----------
No reducable k-points. 
Computing the number of bands and number of electrons
Calculating initial fillings.
nElectrons: 192.000000   nBands: 116   nStates: 120

----- Setting up reduced wavefunction bases (one per k-point) -----
average nbasis = 15576.517 , ideal nbasis = 15575.017

----- Initializing Supercell corresponding to k-point mesh -----
Lattice vector linear combinations in supercell:
[  12   0   0  ]
[   0   5   0  ]
[   0   0   1  ]
Supercell lattice vectors:
[  62.784  0  0  ]
[  0  64.0786  0  ]
[  0  0  54.3725  ]

Initializing DFT-D3 calculator:
	Parameters set for gga-PBE functional
	s6:  1.000  s_r6:  1.217
	s8:  0.722  s_r8:  1.000
	Per-atom parameters loaded for:
	Pt:  sqrtQ[a0]:  5.888  Rcov[a0]:  2.116  CN: [ 0.00 1.92 6.67 ]

Initializing DFT-D2 calculator for fluid / solvation:
	Pt:  C6:  815.23 Eh-a0^6  R0: 3.326 a0 (WARNING: beyond Grimme's data set)

---------- Setting up ewald sum ----------
Optimum gaussian width for ewald sums = 4.057978 bohr.
Real space sum over 1045 unit cells with max indices [  9  5  2  ]
Reciprocal space sum over 4095 terms with max indices [  3  6  22  ]

Computing DFT-D3 correction:
# coordination-number Pt 5.562 7.131 9.521 9.554 9.549 7.958 7.958 9.549 9.554 9.521 7.131 5.562
# diagonal-C6 Pt 336.87 336.87 336.87 336.87 336.87 336.87 336.87 336.87 336.87 336.87 336.87 336.87
EvdW_6 =   -0.093531
EvdW_8 =   -0.156202

---------- Allocating electronic variables ----------
Initializing wave functions:  linear combination of atomic orbitals
Pt pseudo-atom occupations:   s ( 0 )  p ( 6 0 )  d ( 10 )
	FillingsUpdate:  mu: -0.899670170  nElectrons: 192.000000  magneticMoment: [ Abs: 0.00149  Tot: -0.00002 ]
LCAOMinimize: Iter:   0  F: -1062.2097805075322867  |grad|_K:  9.435e-03  alpha:  1.000e+00
LCAOMinimize: 	Step increased F by 6.030903e+01, reducing alpha to 2.060227e-02.
	FillingsUpdate:  mu: -0.368268193  nElectrons: 192.000000  magneticMoment: [ Abs: 0.00132  Tot: -0.00004 ]
LCAOMinimize: Iter:   1  F: -1065.7089803593653414  |grad|_K:  3.700e-03  alpha:  2.060e-02  linmin: -2.168e-01  cgtest:  8.165e-01  t[s]:     81.70
LCAOMinimize: Encountered beta<0, resetting CG.
	FillingsUpdate:  mu: +0.020917338  nElectrons: 192.000000  magneticMoment: [ Abs: 0.00117  Tot: -0.00002 ]
LCAOMinimize: Iter:   2  F: -1066.2848276634551894  |grad|_K:  2.439e-03  alpha:  3.643e-02  linmin:  5.177e-02  cgtest: -1.877e-01  t[s]:    107.38
LCAOMinimize: 	Predicted alpha/alphaT>3.000000, increasing alphaT to 1.093042e-01.
	FillingsUpdate:  mu: +0.242140540  nElectrons: 192.000000  magneticMoment: [ Abs: 0.00088  Tot: +0.00005 ]
LCAOMinimize: Iter:   3  F: -1067.0759614991202398  |grad|_K:  1.480e-03  alpha:  1.311e-01  linmin: -1.179e-02  cgtest:  5.630e-01  t[s]:    140.34
	FillingsUpdate:  mu: +0.085566182  nElectrons: 192.000000  magneticMoment: [ Abs: 0.00087  Tot: +0.00004 ]
LCAOMinimize: Iter:   4  F: -1067.1921354761591374  |grad|_K:  1.147e-03  alpha:  4.878e-02  linmin:  1.941e-02  cgtest: -1.799e-01  t[s]:    166.35
	FillingsUpdate:  mu: +0.092015466  nElectrons: 192.000000  magneticMoment: [ Abs: 0.00083  Tot: -0.00002 ]
LCAOMinimize: Iter:   5  F: -1067.2717630319734781  |grad|_K:  6.261e-04  alpha:  5.435e-02  linmin: -1.252e-04  cgtest:  4.819e-01  t[s]:    192.11
	FillingsUpdate:  mu: +0.147123846  nElectrons: 192.000000  magneticMoment: [ Abs: 0.00081  Tot: -0.00002 ]
LCAOMinimize: Iter:   6  F: -1067.2981054531799145  |grad|_K:  6.618e-04  alpha:  5.324e-02  linmin:  1.510e-03  cgtest: -5.887e-03  t[s]:    217.88
	FillingsUpdate:  mu: +0.156807568  nElectrons: 192.000000  magneticMoment: [ Abs: 0.00079  Tot: -0.00000 ]
LCAOMinimize: Iter:   7  F: -1067.3102437416757766  |grad|_K:  7.421e-04  alpha:  2.209e-02  linmin: -1.932e-04  cgtest:  2.372e-02  t[s]:    243.55
	FillingsUpdate:  mu: +0.122517739  nElectrons: 192.000000  magneticMoment: [ Abs: 0.00076  Tot: +0.00002 ]
LCAOMinimize: Iter:   8  F: -1067.3347829225522219  |grad|_K:  4.997e-04  alpha:  3.533e-02  linmin:  4.810e-04  cgtest: -4.682e-02  t[s]:    269.15
LCAOMinimize: 	Predicted alpha/alphaT>3.000000, increasing alphaT to 1.059931e-01.
	FillingsUpdate:  mu: +0.143948228  nElectrons: 192.000000  magneticMoment: [ Abs: 0.00070  Tot: +0.00020 ]
LCAOMinimize: Iter:   9  F: -1067.3765477388587897  |grad|_K:  4.726e-04  alpha:  1.329e-01  linmin: -3.863e-04  cgtest:  5.304e-02  t[s]:    301.50
	FillingsUpdate:  mu: +0.142655134  nElectrons: 192.000000  magneticMoment: [ Abs: 0.00068  Tot: +0.00015 ]
LCAOMinimize: Iter:  10  F: -1067.3801151168859178  |grad|_K:  3.207e-04  alpha:  1.219e-02  linmin: -2.750e-03  cgtest:  4.169e-02  t[s]:    327.05
LCAOMinimize: 	Predicted alpha/alphaT>3.000000, increasing alphaT to 3.658090e-02.
	FillingsUpdate:  mu: +0.152897913  nElectrons: 192.000000  magneticMoment: [ Abs: 0.00067  Tot: +0.00010 ]
LCAOMinimize: Iter:  11  F: -1067.3856540816132110  |grad|_K:  2.249e-04  alpha:  4.142e-02  linmin: -1.048e-03  cgtest: -1.187e-01  t[s]:    359.19
	FillingsUpdate:  mu: +0.140258875  nElectrons: 192.000000  magneticMoment: [ Abs: 0.00067  Tot: +0.00010 ]
LCAOMinimize: Iter:  12  F: -1067.3875233742596720  |grad|_K:  1.595e-04  alpha:  2.894e-02  linmin:  4.687e-05  cgtest:  2.017e-02  t[s]:    384.80
	FillingsUpdate:  mu: +0.134987831  nElectrons: 192.000000  magneticMoment: [ Abs: 0.00067  Tot: +0.00010 ]
LCAOMinimize: Iter:  13  F: -1067.3878567356002804  |grad|_K:  4.500e-05  alpha:  1.043e-02  linmin:  8.462e-04  cgtest:  1.290e-02  t[s]:    410.52
LCAOMinimize: 	Predicted alpha/alphaT>3.000000, increasing alphaT to 3.127761e-02.
	FillingsUpdate:  mu: +0.131084409  nElectrons: 192.000000  magneticMoment: [ Abs: 0.00067  Tot: +0.00011 ]
LCAOMinimize: Iter:  14  F: -1067.3879655349703626  |grad|_K:  4.863e-05  alpha:  4.271e-02  linmin:  2.613e-04  cgtest:  1.253e-03  t[s]:    443.41
	FillingsUpdate:  mu: +0.130077025  nElectrons: 192.000000  magneticMoment: [ Abs: 0.00067  Tot: +0.00012 ]
LCAOMinimize: Iter:  15  F: -1067.3880505456349965  |grad|_K:  5.928e-05  alpha:  2.852e-02  linmin:  6.470e-07  cgtest:  3.828e-03  t[s]:    469.07
	FillingsUpdate:  mu: +0.130660619  nElectrons: 192.000000  magneticMoment: [ Abs: 0.00067  Tot: +0.00014 ]
LCAOMinimize: Iter:  16  F: -1067.3881571318997885  |grad|_K:  2.633e-05  alpha:  2.403e-02  linmin:  1.520e-04  cgtest: -5.968e-03  t[s]:    494.70
	FillingsUpdate:  mu: +0.131178140  nElectrons: 192.000000  magneticMoment: [ Abs: 0.00068  Tot: +0.00015 ]
LCAOMinimize: Iter:  17  F: -1067.3881970048721541  |grad|_K:  3.548e-05  alpha:  4.562e-02  linmin: -5.112e-05  cgtest:  2.141e-03  t[s]:    520.42
	FillingsUpdate:  mu: +0.130656643  nElectrons: 192.000000  magneticMoment: [ Abs: 0.00068  Tot: +0.00016 ]
LCAOMinimize: Iter:  18  F: -1067.3882248769555190  |grad|_K:  2.303e-05  alpha:  1.755e-02  linmin:  4.298e-05  cgtest: -6.038e-03  t[s]:    546.17
	FillingsUpdate:  mu: +0.128976580  nElectrons: 192.000000  magneticMoment: [ Abs: 0.00068  Tot: +0.00017 ]
LCAOMinimize: Iter:  19  F: -1067.3882416170017677  |grad|_K:  8.618e-06  alpha:  2.504e-02  linmin:  1.337e-04  cgtest:  5.326e-03  t[s]:    572.02
	FillingsUpdate:  mu: +0.128652320  nElectrons: 192.000000  magneticMoment: [ Abs: 0.00068  Tot: +0.00017 ]
LCAOMinimize: Iter:  20  F: -1067.3882437867612225  |grad|_K:  9.697e-06  alpha:  2.317e-02  linmin:  9.849e-06  cgtest:  7.863e-04  t[s]:    597.78
	FillingsUpdate:  mu: +0.128315150  nElectrons: 192.000000  magneticMoment: [ Abs: 0.00068  Tot: +0.00018 ]
LCAOMinimize: Iter:  21  F: -1067.3882471606432318  |grad|_K:  6.835e-06  alpha:  2.845e-02  linmin:  3.510e-05  cgtest: -1.677e-03  t[s]:    623.42
	FillingsUpdate:  mu: +0.128708699  nElectrons: 192.000000  magneticMoment: [ Abs: 0.00069  Tot: +0.00019 ]
LCAOMinimize: Iter:  22  F: -1067.3882494330789541  |grad|_K:  6.404e-06  alpha:  3.858e-02  linmin:  3.411e-05  cgtest: -2.549e-04  t[s]:    649.15
	FillingsUpdate:  mu: +0.128919129  nElectrons: 192.000000  magneticMoment: [ Abs: 0.00069  Tot: +0.00019 ]
LCAOMinimize: Iter:  23  F: -1067.3882506616453156  |grad|_K:  7.708e-06  alpha:  2.374e-02  linmin: -6.603e-06  cgtest:  7.882e-04  t[s]:    674.94
	FillingsUpdate:  mu: +0.129218629  nElectrons: 192.000000  magneticMoment: [ Abs: 0.00070  Tot: +0.00021 ]
LCAOMinimize: Iter:  24  F: -1067.3882545289563950  |grad|_K:  5.190e-06  alpha:  5.164e-02  linmin:  1.205e-04  cgtest: -2.649e-03  t[s]:    700.69
	FillingsUpdate:  mu: +0.129048125  nElectrons: 192.000000  magneticMoment: [ Abs: 0.00070  Tot: +0.00021 ]
LCAOMinimize: Iter:  25  F: -1067.3882552680900062  |grad|_K:  4.153e-06  alpha:  2.178e-02  linmin: -2.659e-05  cgtest:  2.757e-03  t[s]:    726.44
	FillingsUpdate:  mu: +0.128940435  nElectrons: 192.000000  magneticMoment: [ Abs: 0.00070  Tot: +0.00022 ]
LCAOMinimize: Iter:  26  F: -1067.3882556313917576  |grad|_K:  2.815e-06  alpha:  1.669e-02  linmin: -4.661e-06  cgtest: -1.856e-03  t[s]:    752.78
LCAOMinimize: Converged (|Delta F|<1.000000e-06 for 2 iters).
----- createFluidSolver() ----- (Fluid-side solver setup)
   Initializing fluid molecule 'H2O'
     Initializing site 'O'
       Electron density: proportional to exp(-r/0.36935)*erfc((r-0.51523)/0.36823) with norm 6.826
       Charge density: gaussian nuclear width 0.478731 with net site charge 0.826
       Polarizability: cuspless exponential with width 0.32 and norm 3.73
       Hard sphere radius: 2.57003 bohrs
       Positions in reference frame:
         [ +0.000000 +0.000000 +0.000000 ]
     Initializing site 'H'
       Electron density: proportional to exp(-r/0.34641)*erfc((r-0)/0.390882) with norm 0.587
       Charge density: gaussian nuclear width 0.377945 with net site charge -0.413
       Polarizability: cuspless exponential with width 0.39 and norm 3.3
       Positions in reference frame:
         [ +0.000000 -1.441945 +1.122523 ]
         [ +0.000000 +1.441945 +1.122523 ]
     Net charge: 0   dipole magnitude: 0.927204
     Initializing spherical shell mfKernel with radius 2.61727 Bohr
     deltaS corrections:
       site 'O': -7.54299
       site 'H': -6.83917
   Initializing fluid molecule 'Na+'
     Initializing site 'Na'
       Electron density: proportional to exp(-r/0.19682)*erfc((r-0.71491)/0.41314) with norm 8.1383
       Charge density: gaussian nuclear width 0.365347 with net site charge -1
       Hard sphere radius: 1.86327 bohrs
       Positions in reference frame:
         [ +0.000000 +0.000000 +0.000000 ]
     Net charge: -1   dipole magnitude: 0
     Initializing gaussian mfKernel with width: 1.55004 Bohr
     deltaS corrections:
       site 'Na': -22.3555
   Initializing fluid molecule 'F-'
     Initializing site 'F'
       Electron density: proportional to exp(-r/0.38886)*erfc((r-0)/0.438782) with norm 8
       Charge density: gaussian nuclear width 0.374796 with net site charge 1
       Hard sphere radius: 2.39995 bohrs
       Positions in reference frame:
         [ +0.000000 +0.000000 +0.000000 ]
     Net charge: 1   dipole magnitude: 0
     Initializing gaussian mfKernel with width: 1.59012 Bohr
     deltaS corrections:
       site 'F': -9.04335

Correction to mu due to finite nuclear width = -0.052253
   Cavity determined by nc: 0.00142 and sigma: 0.707107
   Nonlocal vdW cavity from gaussian model electron density with norm = 8 and sigma = 0.993594 bohr
   Charge asymmetry in cavity with sensitivity pCavity = 36.5 e-bohr/Eh
   Electrostatic cavity expanded by eta = 1.46 bohrs
   Weighted density cavitation model constrained by Nbulk: 0.0049383 bohr^-3, Pvap: 3.14029 kPa, Rvdw: 2.61727 bohr and sigmaBulk: 4.62e-05 Eh/bohr^2 at T: 298 K.
   Weighted density dispersion model using vdW pair potentials with single solvent site with sqrtC6eff: 0.77 SI.


---- Citations for features of the code used in this run ----

   Software package:
      R. Sundararaman, K. Letchworth-Weaver, K.A. Schwarz, D. Gunceler, Y. Ozhabes and T.A. Arias, 'JDFTx: software for joint density-functional theory', SoftwareX 6, 278 (2017)

   gga-PBE exchange-correlation functional:
      J.P. Perdew, K. Burke and M. Ernzerhof, Phys. Rev. Lett. 77, 3865 (1996)

   Pseudopotentials:
      KF Garrity, JW Bennett, KM Rabe and D Vanderbilt, Comput. Mater. Sci. 81, 446 (2014)

   DFT-D3 dispersion correction:
      S. Grimme, J. Antony, S. Ehrlich and H. Krieg, J. Chem. Phys. 132, 154104 (2010)

   DFT-D2 dispersion correction:
      S. Grimme, J. Comput. Chem. 27, 1787 (2006)

   Charge-asymmetric nonlocally-determined local-electric (CANDLE) solvation model:
      R. Sundararaman and W.A. Goddard III, J. Chem. Phys. 142, 064107 (2015)

   Total energy minimization with Auxiliary Hamiltonian:
      C. Freysoldt, S. Boeck, and J. Neugebauer, Phys. Rev. B 79, 241103(R) (2009)

   Linear-tetrahedron sampling for density of states:
      G. Lehmann and M. Taut, Phys. status solidi (b) 54, 469 (1972)

This list may not be complete. Please suggest additional citations or
report any other bugs at https://github.com/shankar1729/jdftx/issues

Initialization completed successfully at t[s]:    758.78


Computing DFT-D3 correction:
# coordination-number Pt 5.562 7.131 9.521 9.554 9.549 7.958 7.958 9.549 9.554 9.521 7.131 5.562
# diagonal-C6 Pt 336.87 336.87 336.87 336.87 336.87 336.87 336.87 336.87 336.87 336.87 336.87 336.87
EvdW_6 =   -0.093531
EvdW_8 =   -0.156202
Fluid solver invoked on fresh (random / LCAO) wavefunctions
Running a vacuum solve first:

-------- Initial electronic minimization -----------
	FillingsUpdate:  mu: +0.128940441  nElectrons: 192.000000  magneticMoment: [ Abs: 0.00070  Tot: +0.00022 ]
ElecMinimize: Iter:   0  F: -1067.388255631391758  |grad|_K:  3.698e-05  alpha:  1.000e+00
	FillingsUpdate:  mu: +0.164969936  nElectrons: 192.000000  magneticMoment: [ Abs: 0.00059  Tot: +0.00024 ]
	SubspaceRotationAdjust: set factor to 0.997
ElecMinimize: Iter:   1  F: -1067.518166642123560  |grad|_K:  2.239e-05  alpha:  4.380e-01  linmin:  1.850e-05  t[s]:    809.99
	FillingsUpdate:  mu: +0.162501876  nElectrons: 192.000000  magneticMoment: [ Abs: 0.00061  Tot: +0.00034 ]
	SubspaceRotationAdjust: set factor to 0.561
ElecMinimize: Iter:   2  F: -1067.524614950296609  |grad|_K:  4.950e-05  alpha:  6.407e-02  linmin:  2.705e-04  t[s]:    841.40
	FillingsUpdate:  mu: +0.125017764  nElectrons: 192.000000  magneticMoment: [ Abs: 0.00056  Tot: +0.00029 ]
	SubspaceRotationAdjust: set factor to 0.337
ElecMinimize: Iter:   3  F: -1067.536003443771051  |grad|_K:  3.290e-05  alpha:  2.398e-02  linmin:  1.163e-04  t[s]:    872.82
	FillingsUpdate:  mu: +0.139803604  nElectrons: 192.000000  magneticMoment: [ Abs: 0.00047  Tot: +0.00020 ]
	SubspaceRotationAdjust: set factor to 0.204
ElecMinimize: Iter:   4  F: -1067.551847204801788  |grad|_K:  2.308e-05  alpha:  6.905e-02  linmin: -7.870e-06  t[s]:    904.28
	FillingsUpdate:  mu: +0.131522448  nElectrons: 192.000000  magneticMoment: [ Abs: 0.00045  Tot: +0.00020 ]
	SubspaceRotationAdjust: set factor to 0.141
ElecMinimize: Iter:   5  F: -1067.555081135582668  |grad|_K:  9.516e-06  alpha:  2.789e-02  linmin:  4.241e-06  t[s]:    935.66
ElecMinimize: 	Predicted alpha/alphaT>3.000000, increasing alphaT to 8.366723e-02.
	FillingsUpdate:  mu: +0.151464017  nElectrons: 192.000000  magneticMoment: [ Abs: 0.00041  Tot: +0.00020 ]
	SubspaceRotationAdjust: set factor to 0.0876
	SubspaceRotationAdjust: resetting CG because factor has changed by 0.0876358
ElecMinimize: 	State modified externally: resetting search direction.
ElecMinimize: Iter:   6  F: -1067.558786775214458  |grad|_K:  1.106e-05  alpha:  1.882e-01
	FillingsUpdate:  mu: +0.139606634  nElectrons: 192.000000  magneticMoment: [ Abs: 0.00040  Tot: +0.00020 ]
	SubspaceRotationAdjust: set factor to 0.0819
ElecMinimize: Iter:   7  F: -1067.561471823079501  |grad|_K:  4.981e-06  alpha:  1.009e-01  linmin:  7.645e-05  t[s]:   1024.31
ElecMinimize: 	Predicted alpha/alphaT>3.000000, increasing alphaT to 3.028255e-01.
	FillingsUpdate:  mu: +0.132963733  nElectrons: 192.000000  magneticMoment: [ Abs: 0.00036  Tot: +0.00020 ]
	SubspaceRotationAdjust: set factor to 0.0641
ElecMinimize: Iter:   8  F: -1067.563478186492148  |grad|_K:  3.665e-06  alpha:  3.717e-01  linmin:  5.981e-06  t[s]:   1064.90
	FillingsUpdate:  mu: +0.142678008  nElectrons: 192.000000  magneticMoment: [ Abs: 0.00032  Tot: +0.00020 ]
	SubspaceRotationAdjust: set factor to 0.0552
ElecMinimize: Iter:   9  F: -1067.564784193099285  |grad|_K:  2.187e-06  alpha:  4.466e-01  linmin: -2.243e-05  t[s]:   1096.22
	FillingsUpdate:  mu: +0.141568707  nElectrons: 192.000000  magneticMoment: [ Abs: 0.00029  Tot: +0.00020 ]
	SubspaceRotationAdjust: set factor to 0.0587
ElecMinimize: Iter:  10  F: -1067.565372590499919  |grad|_K:  1.372e-06  alpha:  5.649e-01  linmin:  1.672e-05  t[s]:   1127.90
	FillingsUpdate:  mu: +0.141807849  nElectrons: 192.000000  magneticMoment: [ Abs: 0.00028  Tot: +0.00020 ]
	SubspaceRotationAdjust: set factor to 0.0615
ElecMinimize: Iter:  11  F: -1067.565535344171622  |grad|_K:  8.302e-07  alpha:  3.976e-01  linmin: -1.150e-06  t[s]:   1159.53
	FillingsUpdate:  mu: +0.142035948  nElectrons: 192.000000  magneticMoment: [ Abs: 0.00027  Tot: +0.00020 ]
	SubspaceRotationAdjust: set factor to 0.0494
ElecMinimize: Iter:  12  F: -1067.565596874726907  |grad|_K:  9.012e-07  alpha:  4.102e-01  linmin:  5.157e-07  t[s]:   1190.88
	FillingsUpdate:  mu: +0.141901723  nElectrons: 192.000000  magneticMoment: [ Abs: 0.00027  Tot: +0.00019 ]
	SubspaceRotationAdjust: set factor to 0.0398
ElecMinimize: Iter:  13  F: -1067.565644961950284  |grad|_K:  6.178e-07  alpha:  2.720e-01  linmin: -2.252e-07  t[s]:   1222.12
	FillingsUpdate:  mu: +0.141321632  nElectrons: 192.000000  magneticMoment: [ Abs: 0.00026  Tot: +0.00019 ]
	SubspaceRotationAdjust: set factor to 0.0507
ElecMinimize: Iter:  14  F: -1067.565691508450755  |grad|_K:  5.082e-07  alpha:  5.611e-01  linmin:  1.617e-05  t[s]:   1253.46
	FillingsUpdate:  mu: +0.141718612  nElectrons: 192.000000  magneticMoment: [ Abs: 0.00026  Tot: +0.00019 ]
	SubspaceRotationAdjust: set factor to 0.054
ElecMinimize: Iter:  15  F: -1067.565726812102639  |grad|_K:  5.297e-07  alpha:  6.301e-01  linmin:  4.672e-06  t[s]:   1284.62
	FillingsUpdate:  mu: +0.141988143  nElectrons: 192.000000  magneticMoment: [ Abs: 0.00025  Tot: +0.00019 ]
	SubspaceRotationAdjust: set factor to 0.0454
ElecMinimize: Iter:  16  F: -1067.565748619356782  |grad|_K:  5.521e-07  alpha:  3.574e-01  linmin:  7.035e-08  t[s]:   1316.02
	FillingsUpdate:  mu: +0.142143081  nElectrons: 192.000000  magneticMoment: [ Abs: 0.00025  Tot: +0.00019 ]
	SubspaceRotationAdjust: set factor to 0.044
ElecMinimize: Iter:  17  F: -1067.565783985249936  |grad|_K:  5.350e-07  alpha:  5.334e-01  linmin:  3.421e-06  t[s]:   1348.10
	FillingsUpdate:  mu: +0.142230818  nElectrons: 192.000000  magneticMoment: [ Abs: 0.00024  Tot: +0.00019 ]
	SubspaceRotationAdjust: set factor to 0.0482
ElecMinimize: Iter:  18  F: -1067.565829221321792  |grad|_K:  5.197e-07  alpha:  7.275e-01  linmin:  3.502e-06  t[s]:   1379.37
	FillingsUpdate:  mu: +0.142242259  nElectrons: 192.000000  magneticMoment: [ Abs: 0.00023  Tot: +0.00019 ]
	SubspaceRotationAdjust: set factor to 0.0445
ElecMinimize: Iter:  19  F: -1067.565861784635217  |grad|_K:  5.050e-07  alpha:  5.549e-01  linmin: -7.913e-07  t[s]:   1410.84
	FillingsUpdate:  mu: +0.142298778  nElectrons: 192.000000  magneticMoment: [ Abs: 0.00022  Tot: +0.00018 ]
	SubspaceRotationAdjust: set factor to 0.0326
ElecMinimize: Iter:  20  F: -1067.565880504985444  |grad|_K:  4.266e-07  alpha:  3.375e-01  linmin: -3.191e-07  t[s]:   1442.27
	FillingsUpdate:  mu: +0.142308364  nElectrons: 192.000000  magneticMoment: [ Abs: 0.00021  Tot: +0.00018 ]
	SubspaceRotationAdjust: set factor to 0.032
ElecMinimize: Iter:  21  F: -1067.565898774163770  |grad|_K:  3.228e-07  alpha:  4.610e-01  linmin: -4.282e-06  t[s]:   1473.67
	FillingsUpdate:  mu: +0.142135300  nElectrons: 192.000000  magneticMoment: [ Abs: 0.00020  Tot: +0.00018 ]
	SubspaceRotationAdjust: set factor to 0.0331
ElecMinimize: Iter:  22  F: -1067.565910226982623  |grad|_K:  2.339e-07  alpha:  5.041e-01  linmin: -3.245e-06  t[s]:   1505.10
	FillingsUpdate:  mu: +0.142187922  nElectrons: 192.000000  magneticMoment: [ Abs: 0.00020  Tot: +0.00018 ]
	SubspaceRotationAdjust: set factor to 0.0269
ElecMinimize: Iter:  23  F: -1067.565915134818852  |grad|_K:  1.765e-07  alpha:  4.118e-01  linmin: -1.184e-06  t[s]:   1536.60
	FillingsUpdate:  mu: +0.142297955  nElectrons: 192.000000  magneticMoment: [ Abs: 0.00020  Tot: +0.00018 ]
	SubspaceRotationAdjust: set factor to 0.0246
ElecMinimize: Iter:  24  F: -1067.565917835829623  |grad|_K:  1.176e-07  alpha:  3.985e-01  linmin: -6.326e-07  t[s]:   1567.95
	FillingsUpdate:  mu: +0.142307474  nElectrons: 192.000000  magneticMoment: [ Abs: 0.00020  Tot: +0.00018 ]
	SubspaceRotationAdjust: set factor to 0.0274
ElecMinimize: Iter:  25  F: -1067.565919350620106  |grad|_K:  8.631e-08  alpha:  5.030e-01  linmin: -4.900e-07  t[s]:   1599.32
	FillingsUpdate:  mu: +0.142287731  nElectrons: 192.000000  magneticMoment: [ Abs: 0.00019  Tot: +0.00018 ]
	SubspaceRotationAdjust: set factor to 0.0256
ElecMinimize: Iter:  26  F: -1067.565920080344313  |grad|_K:  6.163e-08  alpha:  4.501e-01  linmin: -1.085e-06  t[s]:   1630.76
	FillingsUpdate:  mu: +0.142274435  nElectrons: 192.000000  magneticMoment: [ Abs: 0.00019  Tot: +0.00018 ]
	SubspaceRotationAdjust: set factor to 0.0265
ElecMinimize: Iter:  27  F: -1067.565920451909733  |grad|_K:  4.549e-08  alpha:  4.494e-01  linmin: -8.467e-07  t[s]:   1663.76
	FillingsUpdate:  mu: +0.142262994  nElectrons: 192.000000  magneticMoment: [ Abs: 0.00019  Tot: +0.00018 ]
	SubspaceRotationAdjust: set factor to 0.0321
ElecMinimize: Iter:  28  F: -1067.565920689672566  |grad|_K:  3.665e-08  alpha:  5.280e-01  linmin:  1.311e-06  t[s]:   1695.08
	FillingsUpdate:  mu: +0.142258951  nElectrons: 192.000000  magneticMoment: [ Abs: 0.00019  Tot: +0.00018 ]
	SubspaceRotationAdjust: set factor to 0.0359
ElecMinimize: Iter:  29  F: -1067.565920847593361  |grad|_K:  3.295e-08  alpha:  5.403e-01  linmin: -1.484e-06  t[s]:   1726.49
	FillingsUpdate:  mu: +0.142250149  nElectrons: 192.000000  magneticMoment: [ Abs: 0.00019  Tot: +0.00018 ]
	SubspaceRotationAdjust: set factor to 0.0383
ElecMinimize: Iter:  30  F: -1067.565920973771881  |grad|_K:  3.270e-08  alpha:  5.339e-01  linmin:  1.315e-06  t[s]:   1758.14
	FillingsUpdate:  mu: +0.142240851  nElectrons: 192.000000  magneticMoment: [ Abs: 0.00019  Tot: +0.00018 ]
	SubspaceRotationAdjust: set factor to 0.0434
ElecMinimize: Iter:  31  F: -1067.565921108545808  |grad|_K:  3.187e-08  alpha:  5.799e-01  linmin:  2.323e-06  t[s]:   1789.60
	FillingsUpdate:  mu: +0.142250327  nElectrons: 192.000000  magneticMoment: [ Abs: 0.00019  Tot: +0.00018 ]
	SubspaceRotationAdjust: set factor to 0.0498
ElecMinimize: Iter:  32  F: -1067.565921267156909  |grad|_K:  3.333e-08  alpha:  7.187e-01  linmin:  1.009e-06  t[s]:   1820.95
	FillingsUpdate:  mu: +0.142252947  nElectrons: 192.000000  magneticMoment: [ Abs: 0.00019  Tot: +0.00017 ]
	SubspaceRotationAdjust: set factor to 0.0512
ElecMinimize: Iter:  33  F: -1067.565921422147539  |grad|_K:  3.745e-08  alpha:  6.414e-01  linmin:  4.259e-07  t[s]:   1852.34
	FillingsUpdate:  mu: +0.142245732  nElectrons: 192.000000  magneticMoment: [ Abs: 0.00019  Tot: +0.00017 ]
	SubspaceRotationAdjust: set factor to 0.0432
ElecMinimize: Iter:  34  F: -1067.565921540767704  |grad|_K:  3.680e-08  alpha:  3.889e-01  linmin: -3.485e-07  t[s]:   1883.60
	FillingsUpdate:  mu: +0.142240084  nElectrons: 192.000000  magneticMoment: [ Abs: 0.00018  Tot: +0.00017 ]
	SubspaceRotationAdjust: set factor to 0.041
ElecMinimize: Iter:  35  F: -1067.565921669431191  |grad|_K:  3.041e-08  alpha:  4.365e-01  linmin:  5.447e-07  t[s]:   1915.01
	FillingsUpdate:  mu: +0.142246542  nElectrons: 192.000000  magneticMoment: [ Abs: 0.00018  Tot: +0.00017 ]
	SubspaceRotationAdjust: set factor to 0.0471
ElecMinimize: Iter:  36  F: -1067.565921785490445  |grad|_K:  2.641e-08  alpha:  5.771e-01  linmin:  2.180e-08  t[s]:   1946.95
	FillingsUpdate:  mu: +0.142238980  nElectrons: 192.000000  magneticMoment: [ Abs: 0.00018  Tot: +0.00017 ]
	SubspaceRotationAdjust: set factor to 0.0514
ElecMinimize: Iter:  37  F: -1067.565921868348823  |grad|_K:  2.401e-08  alpha:  5.459e-01  linmin: -1.069e-06  t[s]:   1978.31
	FillingsUpdate:  mu: +0.142236873  nElectrons: 192.000000  magneticMoment: [ Abs: 0.00018  Tot: +0.00017 ]
	SubspaceRotationAdjust: set factor to 0.0466
ElecMinimize: Iter:  38  F: -1067.565921918623417  |grad|_K:  2.271e-08  alpha:  4.002e-01  linmin: -3.853e-07  t[s]:   2009.55
ElecMinimize: Converged (|Delta F|<1.000000e-07 for 2 iters).
Setting wave functions to eigenvectors of Hamiltonian
Converging empty states (this may take a while): |deigs|: 2.907e-03
Vacuum energy after initial minimize, F = -1067.565921918623417


-------- Electronic minimization -----------
	Linear fluid (dielectric constant: 78.4, screening length: 8.12261 Bohr) occupying 0.505875 of unit cell:	Completed after 25 iterations at t[s]:   2125.07
	FillingsUpdate:  mu: -0.197736105  nElectrons: 192.000000  magneticMoment: [ Abs: 0.00016  Tot: +0.00015 ]
ElecMinimize: Iter:   0  F: -1067.569101482225051  |grad|_K:  1.066e-06  alpha:  1.000e+00
	Linear fluid (dielectric constant: 78.4, screening length: 8.12261 Bohr) occupying 0.506621 of unit cell:	Completed after 20 iterations at t[s]:   2152.26
	Linear fluid (dielectric constant: 78.4, screening length: 8.12261 Bohr) occupying 0.506091 of unit cell:	Completed after 19 iterations at t[s]:   2162.11
	FillingsUpdate:  mu: -0.197009507  nElectrons: 192.000000  magneticMoment: [ Abs: 0.00016  Tot: +0.00015 ]
	SubspaceRotationAdjust: set factor to 0.0394
ElecMinimize: Iter:   1  F: -1067.569174667201423  |grad|_K:  5.678e-07  alpha:  2.964e-01  linmin:  3.613e-06  t[s]:   2175.53
	Linear fluid (dielectric constant: 78.4, screening length: 8.12261 Bohr) occupying 0.506336 of unit cell:	Completed after 12 iterations at t[s]:   2187.04
	Linear fluid (dielectric constant: 78.4, screening length: 8.12261 Bohr) occupying 0.506816 of unit cell:	Completed after 16 iterations at t[s]:   2196.66
	FillingsUpdate:  mu: -0.195454626  nElectrons: 192.000000  magneticMoment: [ Abs: 0.00016  Tot: +0.00015 ]
	SubspaceRotationAdjust: set factor to 0.0461
ElecMinimize: Iter:   2  F: -1067.569236474121908  |grad|_K:  5.207e-07  alpha:  8.819e-01  linmin: -4.639e-07  t[s]:   2209.94
	Linear fluid (dielectric constant: 78.4, screening length: 8.12261 Bohr) occupying 0.507632 of unit cell:	Completed after 16 iterations at t[s]:   2221.42
	Linear fluid (dielectric constant: 78.4, screening length: 8.12261 Bohr) occupying 0.507323 of unit cell:	Completed after 13 iterations at t[s]:   2230.88
	FillingsUpdate:  mu: -0.194806897  nElectrons: 192.000000  magneticMoment: [ Abs: 0.00016  Tot: +0.00015 ]
	SubspaceRotationAdjust: set factor to 0.0547
ElecMinimize: Iter:   3  F: -1067.569268691732532  |grad|_K:  3.623e-07  alpha:  5.462e-01  linmin:  3.239e-08  t[s]:   2244.46
	Linear fluid (dielectric constant: 78.4, screening length: 8.12261 Bohr) occupying 0.507589 of unit cell:	Completed after 14 iterations at t[s]:   2255.94
	Linear fluid (dielectric constant: 78.4, screening length: 8.12261 Bohr) occupying 0.507593 of unit cell:	Completed after 1 iterations at t[s]:   2264.57
	FillingsUpdate:  mu: -0.194459267  nElectrons: 192.000000  magneticMoment: [ Abs: 0.00016  Tot: +0.00015 ]
	SubspaceRotationAdjust: set factor to 0.0664
ElecMinimize: Iter:   4  F: -1067.569284504729012  |grad|_K:  2.839e-07  alpha:  5.535e-01  linmin: -7.067e-07  t[s]:   2277.97
	Linear fluid (dielectric constant: 78.4, screening length: 8.12261 Bohr) occupying 0.507744 of unit cell:	Completed after 11 iterations at t[s]:   2289.20
	Linear fluid (dielectric constant: 78.4, screening length: 8.12261 Bohr) occupying 0.507821 of unit cell:	Completed after 9 iterations at t[s]:   2298.64
	FillingsUpdate:  mu: -0.194004881  nElectrons: 192.000000  magneticMoment: [ Abs: 0.00016  Tot: +0.00015 ]
	SubspaceRotationAdjust: set factor to 0.0799
ElecMinimize: Iter:   5  F: -1067.569299282022257  |grad|_K:  2.899e-07  alpha:  8.396e-01  linmin: -5.314e-07  t[s]:   2312.07
	Linear fluid (dielectric constant: 78.4, screening length: 8.12261 Bohr) occupying 0.508026 of unit cell:	Completed after 15 iterations at t[s]:   2323.46
	Linear fluid (dielectric constant: 78.4, screening length: 8.12261 Bohr) occupying 0.508019 of unit cell:	Completed after 2 iterations at t[s]:   2332.17
	FillingsUpdate:  mu: -0.193550171  nElectrons: 192.000000  magneticMoment: [ Abs: 0.00016  Tot: +0.00015 ]
	SubspaceRotationAdjust: set factor to 0.088
ElecMinimize: Iter:   6  F: -1067.569314083687232  |grad|_K:  3.123e-07  alpha:  8.072e-01  linmin: -1.946e-07  t[s]:   2345.60
	Linear fluid (dielectric constant: 78.4, screening length: 8.12261 Bohr) occupying 0.508223 of unit cell:	Completed after 15 iterations at t[s]:   2357.25
	Linear fluid (dielectric constant: 78.4, screening length: 8.12261 Bohr) occupying 0.508163 of unit cell:	Completed after 10 iterations at t[s]:   2366.74
	FillingsUpdate:  mu: -0.193158247  nElectrons: 192.000000  magneticMoment: [ Abs: 0.00016  Tot: +0.00015 ]
	SubspaceRotationAdjust: set factor to 0.0783
ElecMinimize: Iter:   7  F: -1067.569326023420444  |grad|_K:  3.250e-07  alpha:  5.629e-01  linmin: -5.849e-08  t[s]:   2380.18
	Linear fluid (dielectric constant: 78.4, screening length: 8.12261 Bohr) occupying 0.508307 of unit cell:	Completed after 15 iterations at t[s]:   2391.90
	Linear fluid (dielectric constant: 78.4, screening length: 8.12261 Bohr) occupying 0.508273 of unit cell:	Completed after 9 iterations at t[s]:   2401.06
	FillingsUpdate:  mu: -0.192891512  nElectrons: 192.000000  magneticMoment: [ Abs: 0.00016  Tot: +0.00015 ]
	SubspaceRotationAdjust: set factor to 0.0626
ElecMinimize: Iter:   8  F: -1067.569335884223847  |grad|_K:  2.674e-07  alpha:  4.289e-01  linmin:  2.881e-08  t[s]:   2414.44
	Linear fluid (dielectric constant: 78.4, screening length: 8.12261 Bohr) occupying 0.508342 of unit cell:	Completed after 10 iterations at t[s]:   2425.60
	Linear fluid (dielectric constant: 78.4, screening length: 8.12261 Bohr) occupying 0.508368 of unit cell:	Completed after 9 iterations at t[s]:   2434.78
	FillingsUpdate:  mu: -0.192706528  nElectrons: 192.000000  magneticMoment: [ Abs: 0.00015  Tot: +0.00015 ]
	SubspaceRotationAdjust: set factor to 0.064
ElecMinimize: Iter:   9  F: -1067.569345223983419  |grad|_K:  1.995e-07  alpha:  6.003e-01  linmin: -6.328e-08  t[s]:   2448.36
	Linear fluid (dielectric constant: 78.4, screening length: 8.12261 Bohr) occupying 0.508413 of unit cell:	Completed after 8 iterations at t[s]:   2459.56
	Linear fluid (dielectric constant: 78.4, screening length: 8.12261 Bohr) occupying 0.508415 of unit cell:	Completed after 1 iterations at t[s]:   2468.20
	FillingsUpdate:  mu: -0.192569032  nElectrons: 192.000000  magneticMoment: [ Abs: 0.00015  Tot: +0.00014 ]
	SubspaceRotationAdjust: set factor to 0.0695
ElecMinimize: Iter:  10  F: -1067.569350687764427  |grad|_K:  1.486e-07  alpha:  6.304e-01  linmin: -1.970e-07  t[s]:   2481.66
	Linear fluid (dielectric constant: 78.4, screening length: 8.12261 Bohr) occupying 0.508434 of unit cell:	Completed after 7 iterations at t[s]:   2492.62
	Linear fluid (dielectric constant: 78.4, screening length: 8.12261 Bohr) occupying 0.508433 of unit cell:	Completed after 1 iterations at t[s]:   2501.27
	FillingsUpdate:  mu: -0.192534776  nElectrons: 192.000000  magneticMoment: [ Abs: 0.00015  Tot: +0.00014 ]
	SubspaceRotationAdjust: set factor to 0.0771
ElecMinimize: Iter:  11  F: -1067.569353540429574  |grad|_K:  1.089e-07  alpha:  5.928e-01  linmin:  1.656e-08  t[s]:   2514.70
	Linear fluid (dielectric constant: 78.4, screening length: 8.12261 Bohr) occupying 0.508436 of unit cell:	Completed after 2 iterations at t[s]:   2525.23
	Linear fluid (dielectric constant: 78.4, screening length: 8.12261 Bohr) occupying 0.508436 of unit cell:	Completed after 0 iterations at t[s]:   2533.73
	FillingsUpdate:  mu: -0.192516919  nElectrons: 192.000000  magneticMoment: [ Abs: 0.00015  Tot: +0.00014 ]
	SubspaceRotationAdjust: set factor to 0.0893
ElecMinimize: Iter:  12  F: -1067.569355030449742  |grad|_K:  8.051e-08  alpha:  5.772e-01  linmin:  1.037e-07  t[s]:   2547.05
	Linear fluid (dielectric constant: 78.4, screening length: 8.12261 Bohr) occupying 0.508435 of unit cell:	Completed after 3 iterations at t[s]:   2557.75
	Linear fluid (dielectric constant: 78.4, screening length: 8.12261 Bohr) occupying 0.508435 of unit cell:	Completed after 0 iterations at t[s]:   2566.23
	FillingsUpdate:  mu: -0.192532838  nElectrons: 192.000000  magneticMoment: [ Abs: 0.00015  Tot: +0.00014 ]
	SubspaceRotationAdjust: set factor to 0.108
ElecMinimize: Iter:  13  F: -1067.569355862003249  |grad|_K:  6.238e-08  alpha:  5.898e-01  linmin: -1.106e-07  t[s]:   2579.59
	Linear fluid (dielectric constant: 78.4, screening length: 8.12261 Bohr) occupying 0.508432 of unit cell:	Completed after 3 iterations at t[s]:   2590.25
	Linear fluid (dielectric constant: 78.4, screening length: 8.12261 Bohr) occupying 0.508432 of unit cell:	Completed after 0 iterations at t[s]:   2598.77
	FillingsUpdate:  mu: -0.192571251  nElectrons: 192.000000  magneticMoment: [ Abs: 0.00015  Tot: +0.00014 ]
	SubspaceRotationAdjust: set factor to 0.135
ElecMinimize: Iter:  14  F: -1067.569356399891831  |grad|_K:  5.144e-08  alpha:  6.344e-01  linmin: -7.322e-07  t[s]:   2612.25
	Linear fluid (dielectric constant: 78.4, screening length: 8.12261 Bohr) occupying 0.508428 of unit cell:	Completed after 6 iterations at t[s]:   2623.06
	Linear fluid (dielectric constant: 78.4, screening length: 8.12261 Bohr) occupying 0.508427 of unit cell:	Completed after 0 iterations at t[s]:   2631.67
	FillingsUpdate:  mu: -0.192646904  nElectrons: 192.000000  magneticMoment: [ Abs: 0.00015  Tot: +0.00014 ]
	SubspaceRotationAdjust: set factor to 0.167
ElecMinimize: Iter:  15  F: -1067.569356780499902  |grad|_K:  4.482e-08  alpha:  6.578e-01  linmin: -1.924e-06  t[s]:   2645.15
	Linear fluid (dielectric constant: 78.4, screening length: 8.12261 Bohr) occupying 0.508423 of unit cell:	Completed after 7 iterations at t[s]:   2656.07
	Linear fluid (dielectric constant: 78.4, screening length: 8.12261 Bohr) occupying 0.508424 of unit cell:	Completed after 0 iterations at t[s]:   2664.74
	FillingsUpdate:  mu: -0.192683725  nElectrons: 192.000000  magneticMoment: [ Abs: 0.00014  Tot: +0.00014 ]
	SubspaceRotationAdjust: set factor to 0.158
ElecMinimize: Iter:  16  F: -1067.569357047474341  |grad|_K:  4.953e-08  alpha:  6.033e-01  linmin:  1.903e-06  t[s]:   2678.12
	Linear fluid (dielectric constant: 78.4, screening length: 8.12261 Bohr) occupying 0.508418 of unit cell:	Completed after 9 iterations at t[s]:   2689.23
	Linear fluid (dielectric constant: 78.4, screening length: 8.12261 Bohr) occupying 0.508422 of unit cell:	Completed after 9 iterations at t[s]:   2698.49
	FillingsUpdate:  mu: -0.192742642  nElectrons: 192.000000  magneticMoment: [ Abs: 0.00014  Tot: +0.00014 ]
	SubspaceRotationAdjust: set factor to 0.112
ElecMinimize: Iter:  17  F: -1067.569357138632995  |grad|_K:  4.336e-08  alpha:  1.838e-01  linmin:  3.088e-06  t[s]:   2711.86
	Linear fluid (dielectric constant: 78.4, screening length: 8.12261 Bohr) occupying 0.508421 of unit cell:	Completed after 2 iterations at t[s]:   2722.51
	Linear fluid (dielectric constant: 78.4, screening length: 8.12261 Bohr) occupying 0.508420 of unit cell:	Completed after 6 iterations at t[s]:   2731.47
	FillingsUpdate:  mu: -0.192785205  nElectrons: 192.000000  magneticMoment: [ Abs: 0.00014  Tot: +0.00013 ]
	SubspaceRotationAdjust: set factor to 0.125
ElecMinimize: Iter:  18  F: -1067.569357289189384  |grad|_K:  2.850e-08  alpha:  3.815e-01  linmin:  3.084e-06  t[s]:   2745.01
	Linear fluid (dielectric constant: 78.4, screening length: 8.12261 Bohr) occupying 0.508420 of unit cell:	Completed after 2 iterations at t[s]:   2755.76
	Linear fluid (dielectric constant: 78.4, screening length: 8.12261 Bohr) occupying 0.508420 of unit cell:	Completed after 2 iterations at t[s]:   2764.48
	FillingsUpdate:  mu: -0.192754992  nElectrons: 192.000000  magneticMoment: [ Abs: 0.00014  Tot: +0.00013 ]
	SubspaceRotationAdjust: set factor to 0.123
ElecMinimize: Iter:  19  F: -1067.569357372194872  |grad|_K:  2.393e-08  alpha:  4.787e-01  linmin: -2.683e-07  t[s]:   2777.98
	Linear fluid (dielectric constant: 78.4, screening length: 8.12261 Bohr) occupying 0.508421 of unit cell:	Completed after 6 iterations at t[s]:   2789.02
	Linear fluid (dielectric constant: 78.4, screening length: 8.12261 Bohr) occupying 0.508420 of unit cell:	Completed after 2 iterations at t[s]:   2797.72
	FillingsUpdate:  mu: -0.192805621  nElectrons: 192.000000  magneticMoment: [ Abs: 0.00014  Tot: +0.00013 ]
	SubspaceRotationAdjust: set factor to 0.0944
ElecMinimize: Iter:  20  F: -1067.569357413629177  |grad|_K:  2.167e-08  alpha:  3.266e-01  linmin:  1.381e-05  t[s]:   2811.17
ElecMinimize: Converged (|Delta F|<1.000000e-07 for 2 iters).
Setting wave functions to eigenvectors of Hamiltonian
Converging empty states (this may take a while): |deigs|: 1.076e-04
Single-point solvation energy estimate, DeltaF = -0.003435495005760

Computing DFT-D3 correction:
# coordination-number Pt 5.562 7.131 9.521 9.554 9.549 7.958 7.958 9.549 9.554 9.521 7.131 5.562
# diagonal-C6 Pt 336.87 336.87 336.87 336.87 336.87 336.87 336.87 336.87 336.87 336.87 336.87 336.87
EvdW_6 =   -0.093531
EvdW_8 =   -0.156202

# Ionic positions in cartesian coordinates:
ion Pt   0.000000000000000   0.000000000000000  17.368964999999999 1
ion Pt   0.000000000000000   4.271902000000000   2.265538000000000 1
ion Pt   0.000000000000000   8.543816000000000   5.286202000000000 1
ion Pt   0.000000000000000   0.000000000000000   8.306920000000000 1
ion Pt   0.000000000000000   4.271902000000000  11.327583000000001 1
ion Pt   0.000000000000000   8.543816000000000  14.348300999999999 1
ion Pt   2.615998000000000   0.000000000000000   3.775843000000000 1
ion Pt   2.615998000000000   4.271902000000000   6.796561000000001 1
ion Pt   2.615998000000000   8.543816000000000   9.817278999999999 1
ion Pt   2.615998000000000   0.000000000000000  12.837942000000000 1
ion Pt   2.615998000000000   4.271902000000000  15.858660000000000 1
ion Pt   2.615998000000000   8.543816000000000   0.755179000000000 1

# Forces in Cartesian coordinates:
force Pt  -0.000001482715753   0.003171818870766  -0.013169056612616 1
force Pt  -0.000002753875964  -0.005463134139780  -0.005582185765316 1
force Pt   0.000003154458258   0.006147268260369   0.001433658200350 1
force Pt  -0.000005817445643   0.000207436582389   0.005904674850946 1
force Pt   0.000002871656731   0.001853429949903  -0.004830855748403 1
force Pt   0.000004471697630  -0.004269286953289   0.019135288620062 1
force Pt  -0.000006301345569   0.004229557269680  -0.019076385850940 1
force Pt  -0.000000249415497  -0.001832447525953   0.004453394422756 1
force Pt   0.000004621190778  -0.000204561195632  -0.006354061060232 1
force Pt  -0.000004184663116  -0.006159953442073  -0.001627728462805 1
force Pt   0.000001358602852   0.005506538977670   0.005804309861308 1
force Pt   0.000005531778133  -0.003197841925748   0.013299403592260 1

# Energy components:
   A_diel =       -0.0036789089538289
   Eewald =     6058.3912041578369099
       EH =     7026.8177546906990756
     Eloc =   -14337.9642273958634178
      Enl =      -12.6854560327893431
     EvdW =       -0.2497333183512253
      Exc =     -341.2674978986226506
 Exc_core =      196.6965532295590720
       KE =      342.6980418641836081
-------------------------------------
     Etot =    -1067.5670396123016417
       TS =        0.0023178013275105
-------------------------------------
        F =    -1067.5693574136291772


Dumping 'jdft.fillings' ... done
Dumping 'jdft.wfns' ... done
Dumping 'jdft.fluidState' ... done
Dumping 'jdft.ionpos' ... done
Dumping 'jdft.lattice' ... done
Dumping 'jdft.eigenvals' ... done
Dumping 'jdft.eigStats' ... 
	eMin: -2.142070 at state 2 ( [ +0.000000 +0.400000 +0.000000 ] spin 1 )
	HOMO: -0.192826 at state 80 ( [ +0.333333 +0.000000 +0.000000 ] spin -1 )
	mu  : -0.192806
	LUMO: -0.192665 at state 55 ( [ -0.083333 +0.000000 +0.000000 ] spin 1 )
	eMax: +0.107140 at state 99 ( [ -0.416667 -0.200000 +0.000000 ] spin -1 )
	HOMO-LUMO gap: +0.000162
	Optical gap  : +0.001377 at state 60 ( [ +0.000000 +0.000000 +0.000000 ] spin -1 )
Dumping 'jdft.Ecomponents' ... done
IonicMinimize: Iter:   0  F: -1067.569357413629177  |grad|_K:  6.385e-03  t[s]:   2891.60

#--- Lowdin population analysis ---
# oxidation-state Pt +0.058 +0.009 -0.008 +0.016 +0.010 -0.019 -0.016 +0.012 +0.016 -0.011 +0.005 +0.061
# magnetic-moments Pt +0.000 +0.000 +0.000 +0.000 +0.000 +0.000 +0.000 +0.000 +0.000 +0.000 +0.000 +0.000


Computing DFT-D3 correction:
# coordination-number Pt 5.586 7.129 9.520 9.545 9.538 7.942 7.943 9.539 9.545 9.519 7.129 5.586
# diagonal-C6 Pt 336.87 336.87 336.87 336.87 336.87 336.87 336.87 336.87 336.87 336.87 336.87 336.87
EvdW_6 =   -0.093528
EvdW_8 =   -0.156177

-------- Electronic minimization -----------
	Linear fluid (dielectric constant: 78.4, screening length: 8.12261 Bohr) occupying 0.508665 of unit cell:	Completed after 18 iterations at t[s]:   2904.91
	FillingsUpdate:  mu: -0.191413576  nElectrons: 192.000000  magneticMoment: [ Abs: 0.00013  Tot: +0.00012 ]
ElecMinimize: Iter:   0  F: -1067.570451559129424  |grad|_K:  1.262e-06  alpha:  1.000e+00
	Linear fluid (dielectric constant: 78.4, screening length: 8.12261 Bohr) occupying 0.508695 of unit cell:	Completed after 20 iterations at t[s]:   2932.16
	Linear fluid (dielectric constant: 78.4, screening length: 8.12261 Bohr) occupying 0.508660 of unit cell:	Completed after 20 iterations at t[s]:   2942.09
	FillingsUpdate:  mu: -0.192829666  nElectrons: 192.000000  magneticMoment: [ Abs: 0.00013  Tot: +0.00012 ]
	SubspaceRotationAdjust: set factor to 0.0631
ElecMinimize: Iter:   1  F: -1067.570530071828671  |grad|_K:  7.261e-07  alpha:  2.270e-01  linmin:  3.637e-04  t[s]:   2955.49
	Linear fluid (dielectric constant: 78.4, screening length: 8.12261 Bohr) occupying 0.508659 of unit cell:	Completed after 11 iterations at t[s]:   2966.82
	Linear fluid (dielectric constant: 78.4, screening length: 8.12261 Bohr) occupying 0.508659 of unit cell:	Completed after 10 iterations at t[s]:   2976.11
	FillingsUpdate:  mu: -0.193052537  nElectrons: 192.000000  magneticMoment: [ Abs: 0.00013  Tot: +0.00012 ]
	SubspaceRotationAdjust: set factor to 0.0748
ElecMinimize: Iter:   2  F: -1067.570570526805795  |grad|_K:  4.318e-07  alpha:  3.532e-01  linmin:  4.700e-05  t[s]:   2989.50
	Linear fluid (dielectric constant: 78.4, screening length: 8.12261 Bohr) occupying 0.508662 of unit cell:	Completed after 11 iterations at t[s]:   3000.66
	Linear fluid (dielectric constant: 78.4, screening length: 8.12261 Bohr) occupying 0.508664 of unit cell:	Completed after 10 iterations at t[s]:   3009.82
	FillingsUpdate:  mu: -0.191858236  nElectrons: 192.000000  magneticMoment: [ Abs: 0.00013  Tot: +0.00012 ]
	SubspaceRotationAdjust: set factor to 0.0909
ElecMinimize: Iter:   3  F: -1067.570599295229385  |grad|_K:  4.530e-07  alpha:  7.093e-01  linmin:  1.633e-05  t[s]:   3023.14
	Linear fluid (dielectric constant: 78.4, screening length: 8.12261 Bohr) occupying 0.508667 of unit cell:	Completed after 16 iterations at t[s]:   3034.72
	Linear fluid (dielectric constant: 78.4, screening length: 8.12261 Bohr) occupying 0.508667 of unit cell:	Completed after 4 iterations at t[s]:   3043.60
	FillingsUpdate:  mu: -0.193315618  nElectrons: 192.000000  magneticMoment: [ Abs: 0.00013  Tot: +0.00012 ]
	SubspaceRotationAdjust: set factor to 0.0972
ElecMinimize: Iter:   4  F: -1067.570632549590755  |grad|_K:  5.291e-07  alpha:  7.449e-01  linmin:  2.327e-06  t[s]:   3056.86
	Linear fluid (dielectric constant: 78.4, screening length: 8.12261 Bohr) occupying 0.508684 of unit cell:	Completed after 18 iterations at t[s]:   3068.49
	Linear fluid (dielectric constant: 78.4, screening length: 8.12261 Bohr) occupying 0.508681 of unit cell:	Completed after 10 iterations at t[s]:   3077.90
	FillingsUpdate:  mu: -0.192478851  nElectrons: 192.000000  magneticMoment: [ Abs: 0.00012  Tot: +0.00012 ]
	SubspaceRotationAdjust: set factor to 0.0889
ElecMinimize: Iter:   5  F: -1067.570668391615982  |grad|_K:  5.791e-07  alpha:  5.885e-01  linmin:  1.119e-06  t[s]:   3091.35
	Linear fluid (dielectric constant: 78.4, screening length: 8.12261 Bohr) occupying 0.508696 of unit cell:	Completed after 12 iterations at t[s]:   3102.64
	Linear fluid (dielectric constant: 78.4, screening length: 8.12261 Bohr) occupying 0.508691 of unit cell:	Completed after 10 iterations at t[s]:   3111.94
	FillingsUpdate:  mu: -0.192198145  nElectrons: 192.000000  magneticMoment: [ Abs: 0.00012  Tot: +0.00012 ]
	SubspaceRotationAdjust: set factor to 0.0711
ElecMinimize: Iter:   6  F: -1067.570697105521731  |grad|_K:  5.030e-07  alpha:  3.937e-01  linmin:  2.285e-06  t[s]:   3125.40
	Linear fluid (dielectric constant: 78.4, screening length: 8.12261 Bohr) occupying 0.508693 of unit cell:	Completed after 16 iterations at t[s]:   3137.54
	Linear fluid (dielectric constant: 78.4, screening length: 8.12261 Bohr) occupying 0.508694 of unit cell:	Completed after 9 iterations at t[s]:   3146.96
	FillingsUpdate:  mu: -0.193282554  nElectrons: 192.000000  magneticMoment: [ Abs: 0.00012  Tot: +0.00011 ]
	SubspaceRotationAdjust: set factor to 0.0629
ElecMinimize: Iter:   7  F: -1067.570724112221569  |grad|_K:  3.666e-07  alpha:  4.906e-01  linmin: -5.759e-07  t[s]:   3160.37
	Linear fluid (dielectric constant: 78.4, screening length: 8.12261 Bohr) occupying 0.508691 of unit cell:	Completed after 11 iterations at t[s]:   3171.64
	Linear fluid (dielectric constant: 78.4, screening length: 8.12261 Bohr) occupying 0.508691 of unit cell:	Completed after 2 iterations at t[s]:   3180.35
	FillingsUpdate:  mu: -0.192604545  nElectrons: 192.000000  magneticMoment: [ Abs: 0.00012  Tot: +0.00011 ]
	SubspaceRotationAdjust: set factor to 0.0619
ElecMinimize: Iter:   8  F: -1067.570738127896902  |grad|_K:  2.642e-07  alpha:  4.791e-01  linmin:  1.335e-05  t[s]:   3193.81
	Linear fluid (dielectric constant: 78.4, screening length: 8.12261 Bohr) occupying 0.508681 of unit cell:	Completed after 10 iterations at t[s]:   3204.96
	Linear fluid (dielectric constant: 78.4, screening length: 8.12261 Bohr) occupying 0.508680 of unit cell:	Completed after 2 iterations at t[s]:   3213.69
	FillingsUpdate:  mu: -0.192814905  nElectrons: 192.000000  magneticMoment: [ Abs: 0.00012  Tot: +0.00011 ]
	SubspaceRotationAdjust: set factor to 0.0567
ElecMinimize: Iter:   9  F: -1067.570745592998492  |grad|_K:  1.894e-07  alpha:  4.918e-01  linmin: -7.319e-05  t[s]:   3227.17
	Linear fluid (dielectric constant: 78.4, screening length: 8.12261 Bohr) occupying 0.508668 of unit cell:	Completed after 10 iterations at t[s]:   3238.37
	Linear fluid (dielectric constant: 78.4, screening length: 8.12261 Bohr) occupying 0.508670 of unit cell:	Completed after 7 iterations at t[s]:   3247.41
	FillingsUpdate:  mu: -0.193018910  nElectrons: 192.000000  magneticMoment: [ Abs: 0.00012  Tot: +0.00011 ]
	SubspaceRotationAdjust: set factor to 0.0463
ElecMinimize: Iter:  10  F: -1067.570748782352894  |grad|_K:  1.244e-07  alpha:  4.078e-01  linmin:  4.917e-05  t[s]:   3260.96
	Linear fluid (dielectric constant: 78.4, screening length: 8.12261 Bohr) occupying 0.508662 of unit cell:	Completed after 8 iterations at t[s]:   3272.01
	Linear fluid (dielectric constant: 78.4, screening length: 8.12261 Bohr) occupying 0.508661 of unit cell:	Completed after 2 iterations at t[s]:   3280.71
	FillingsUpdate:  mu: -0.192867972  nElectrons: 192.000000  magneticMoment: [ Abs: 0.00012  Tot: +0.00011 ]
	SubspaceRotationAdjust: set factor to 0.0475
ElecMinimize: Iter:  11  F: -1067.570750338008338  |grad|_K:  8.305e-08  alpha:  4.623e-01  linmin: -1.244e-04  t[s]:   3294.09
	Linear fluid (dielectric constant: 78.4, screening length: 8.12261 Bohr) occupying 0.508656 of unit cell:	Completed after 6 iterations at t[s]:   3304.91
	Linear fluid (dielectric constant: 78.4, screening length: 8.12261 Bohr) occupying 0.508656 of unit cell:	Completed after 0 iterations at t[s]:   3313.38
	FillingsUpdate:  mu: -0.192891995  nElectrons: 192.000000  magneticMoment: [ Abs: 0.00012  Tot: +0.00011 ]
	SubspaceRotationAdjust: set factor to 0.0504
ElecMinimize: Iter:  12  F: -1067.570751064082742  |grad|_K:  5.669e-08  alpha:  4.827e-01  linmin: -3.025e-04  t[s]:   3326.73
	Linear fluid (dielectric constant: 78.4, screening length: 8.12261 Bohr) occupying 0.508654 of unit cell:	Completed after 7 iterations at t[s]:   3337.54
	Linear fluid (dielectric constant: 78.4, screening length: 8.12261 Bohr) occupying 0.508654 of unit cell:	Completed after 0 iterations at t[s]:   3346.03
	FillingsUpdate:  mu: -0.192929185  nElectrons: 192.000000  magneticMoment: [ Abs: 0.00012  Tot: +0.00011 ]
	SubspaceRotationAdjust: set factor to 0.0505
ElecMinimize: Iter:  13  F: -1067.570751389123188  |grad|_K:  4.036e-08  alpha:  4.627e-01  linmin:  9.564e-04  t[s]:   3359.35
	Linear fluid (dielectric constant: 78.4, screening length: 8.12261 Bohr) occupying 0.508654 of unit cell:	Completed after 4 iterations at t[s]:   3370.23
	Linear fluid (dielectric constant: 78.4, screening length: 8.12261 Bohr) occupying 0.508654 of unit cell:	Completed after 0 iterations at t[s]:   3378.83
	FillingsUpdate:  mu: -0.192890802  nElectrons: 192.000000  magneticMoment: [ Abs: 0.00011  Tot: +0.00011 ]
	SubspaceRotationAdjust: set factor to 0.0592
ElecMinimize: Iter:  14  F: -1067.570751562817122  |grad|_K:  2.945e-08  alpha:  4.961e-01  linmin: -1.011e-03  t[s]:   3392.40
	Linear fluid (dielectric constant: 78.4, screening length: 8.12261 Bohr) occupying 0.508655 of unit cell:	Completed after 3 iterations at t[s]:   3403.27
	Linear fluid (dielectric constant: 78.4, screening length: 8.12261 Bohr) occupying 0.508655 of unit cell:	Completed after 0 iterations at t[s]:   3411.83
	FillingsUpdate:  mu: -0.192879305  nElectrons: 192.000000  magneticMoment: [ Abs: 0.00011  Tot: +0.00011 ]
	SubspaceRotationAdjust: set factor to 0.0719
ElecMinimize: Iter:  15  F: -1067.570751664779209  |grad|_K:  2.591e-08  alpha:  5.268e-01  linmin: -3.468e-04  t[s]:   3425.28
	Linear fluid (dielectric constant: 78.4, screening length: 8.12261 Bohr) occupying 0.508657 of unit cell:	Completed after 2 iterations at t[s]:   3436.46
	Linear fluid (dielectric constant: 78.4, screening length: 8.12261 Bohr) occupying 0.508657 of unit cell:	Completed after 1 iterations at t[s]:   3445.75
	FillingsUpdate:  mu: -0.192880984  nElectrons: 192.000000  magneticMoment: [ Abs: 0.00011  Tot: +0.00011 ]
	SubspaceRotationAdjust: set factor to 0.083
ElecMinimize: Iter:  16  F: -1067.570751753333980  |grad|_K:  2.467e-08  alpha:  6.008e-01  linmin: -5.713e-05  t[s]:   3459.13
	Linear fluid (dielectric constant: 78.4, screening length: 8.12261 Bohr) occupying 0.508661 of unit cell:	Completed after 2 iterations at t[s]:   3469.67
	Linear fluid (dielectric constant: 78.4, screening length: 8.12261 Bohr) occupying 0.508661 of unit cell:	Completed after 0 iterations at t[s]:   3478.25
	FillingsUpdate:  mu: -0.192861562  nElectrons: 192.000000  magneticMoment: [ Abs: 0.00011  Tot: +0.00011 ]
	SubspaceRotationAdjust: set factor to 0.0959
ElecMinimize: Iter:  17  F: -1067.570751834744897  |grad|_K:  2.447e-08  alpha:  6.130e-01  linmin: -1.153e-05  t[s]:   3491.70
ElecMinimize: Converged (|Delta F|<1.000000e-07 for 2 iters).
Setting wave functions to eigenvectors of Hamiltonian
Converging empty states (this may take a while): |deigs|: 2.288e-08

Computing DFT-D3 correction:
# coordination-number Pt 5.586 7.129 9.520 9.545 9.538 7.942 7.943 9.539 9.545 9.519 7.129 5.586
# diagonal-C6 Pt 336.87 336.87 336.87 336.87 336.87 336.87 336.87 336.87 336.87 336.87 336.87 336.87
EvdW_6 =   -0.093528
EvdW_8 =   -0.156177
IonicMinimize: 	Wolfe criterion not satisfied: alpha: 1  (E-E0)/|gdotd0|: -0.950213  gdotd/gdotd0: 0.90905 (taking cubic step)

Computing DFT-D3 correction:
# coordination-number Pt 5.631 7.125 9.515 9.524 9.515 7.905 7.908 9.518 9.523 9.512 7.122 5.632
# diagonal-C6 Pt 336.87 336.87 336.87 336.87 336.87 336.87 336.87 336.87 336.87 336.87 336.87 336.87
EvdW_6 =   -0.093520
EvdW_8 =   -0.156138

-------- Electronic minimization -----------
	Linear fluid (dielectric constant: 78.4, screening length: 8.12261 Bohr) occupying 0.508689 of unit cell:	Completed after 20 iterations at t[s]:   3534.44
	FillingsUpdate:  mu: -0.166113145  nElectrons: 192.000000  magneticMoment: [ Abs: 0.00010  Tot: +0.00010 ]
ElecMinimize: Iter:   0  F: -1067.351125618170499  |grad|_K:  5.371e-05  alpha:  1.000e+00
	Linear fluid (dielectric constant: 78.4, screening length: 8.12261 Bohr) occupying 0.508987 of unit cell:	Completed after 24 iterations at t[s]:   3561.58
	Linear fluid (dielectric constant: 78.4, screening length: 8.12261 Bohr) occupying 0.508563 of unit cell:	Completed after 23 iterations at t[s]:   3571.80
	FillingsUpdate:  mu: -0.223022301  nElectrons: 192.000000  magneticMoment: [ Abs: 0.00010  Tot: +0.00010 ]
	SubspaceRotationAdjust: set factor to 0.0855
ElecMinimize: Iter:   1  F: -1067.545874903218873  |grad|_K:  1.571e-05  alpha:  3.114e-01  linmin:  2.349e-03  t[s]:   3585.18
	Linear fluid (dielectric constant: 78.4, screening length: 8.12261 Bohr) occupying 0.508764 of unit cell:	Completed after 21 iterations at t[s]:   3597.17
	Linear fluid (dielectric constant: 78.4, screening length: 8.12261 Bohr) occupying 0.508752 of unit cell:	Completed after 13 iterations at t[s]:   3606.69
	FillingsUpdate:  mu: -0.180787373  nElectrons: 192.000000  magneticMoment: [ Abs: 0.00010  Tot: +0.00010 ]
	SubspaceRotationAdjust: set factor to 0.0599
ElecMinimize: Iter:   2  F: -1067.561590482211614  |grad|_K:  6.550e-06  alpha:  2.937e-01  linmin: -2.933e-05  t[s]:   3620.19
	Linear fluid (dielectric constant: 78.4, screening length: 8.12261 Bohr) occupying 0.508780 of unit cell:	Completed after 20 iterations at t[s]:   3632.01
	Linear fluid (dielectric constant: 78.4, screening length: 8.12261 Bohr) occupying 0.508785 of unit cell:	Completed after 16 iterations at t[s]:   3641.63
	FillingsUpdate:  mu: -0.196266046  nElectrons: 192.000000  magneticMoment: [ Abs: 0.00010  Tot: +0.00010 ]
	SubspaceRotationAdjust: set factor to 0.0652
ElecMinimize: Iter:   3  F: -1067.564795228849789  |grad|_K:  3.146e-06  alpha:  3.431e-01  linmin: -3.081e-05  t[s]:   3654.84
	Linear fluid (dielectric constant: 78.4, screening length: 8.12261 Bohr) occupying 0.508843 of unit cell:	Completed after 18 iterations at t[s]:   3666.42
	Linear fluid (dielectric constant: 78.4, screening length: 8.12261 Bohr) occupying 0.508874 of unit cell:	Completed after 15 iterations at t[s]:   3675.98
	FillingsUpdate:  mu: -0.194265613  nElectrons: 192.000000  magneticMoment: [ Abs: 0.00010  Tot: +0.00010 ]
	SubspaceRotationAdjust: set factor to 0.0838
ElecMinimize: Iter:   4  F: -1067.565916780647967  |grad|_K:  2.744e-06  alpha:  5.203e-01  linmin: -2.837e-06  t[s]:   3689.30
	Linear fluid (dielectric constant: 78.4, screening length: 8.12261 Bohr) occupying 0.509012 of unit cell:	Completed after 18 iterations at t[s]:   3700.87
	Linear fluid (dielectric constant: 78.4, screening length: 8.12261 Bohr) occupying 0.509091 of unit cell:	Completed after 18 iterations at t[s]:   3710.62
	FillingsUpdate:  mu: -0.187201681  nElectrons: 192.000000  magneticMoment: [ Abs: 0.00010  Tot: +0.00010 ]
	SubspaceRotationAdjust: set factor to 0.0959
ElecMinimize: Iter:   5  F: -1067.567251385203008  |grad|_K:  3.090e-06  alpha:  8.149e-01  linmin:  1.418e-05  t[s]:   3724.15
	Linear fluid (dielectric constant: 78.4, screening length: 8.12261 Bohr) occupying 0.509367 of unit cell:	Completed after 21 iterations at t[s]:   3736.94
	Linear fluid (dielectric constant: 78.4, screening length: 8.12261 Bohr) occupying 0.509282 of unit cell:	Completed after 18 iterations at t[s]:   3746.98
	FillingsUpdate:  mu: -0.195842939  nElectrons: 192.000000  magneticMoment: [ Abs: 0.00010  Tot: +0.00009 ]
	SubspaceRotationAdjust: set factor to 0.0972
ElecMinimize: Iter:   6  F: -1067.568437195937349  |grad|_K:  3.342e-06  alpha:  5.731e-01  linmin: -5.765e-06  t[s]:   3760.41
	Linear fluid (dielectric constant: 78.4, screening length: 8.12261 Bohr) occupying 0.509513 of unit cell:	Completed after 19 iterations at t[s]:   3772.15
	Linear fluid (dielectric constant: 78.4, screening length: 8.12261 Bohr) occupying 0.509547 of unit cell:	Completed after 15 iterations at t[s]:   3781.69
	FillingsUpdate:  mu: -0.190631554  nElectrons: 192.000000  magneticMoment: [ Abs: 0.00010  Tot: +0.00009 ]
	SubspaceRotationAdjust: set factor to 0.0909
ElecMinimize: Iter:   7  F: -1067.570024491051981  |grad|_K:  3.664e-06  alpha:  6.532e-01  linmin:  2.231e-05  t[s]:   3795.13
	Linear fluid (dielectric constant: 78.4, screening length: 8.12261 Bohr) occupying 0.509701 of unit cell:	Completed after 20 iterations at t[s]:   3806.99
	Linear fluid (dielectric constant: 78.4, screening length: 8.12261 Bohr) occupying 0.509663 of unit cell:	Completed after 15 iterations at t[s]:   3816.56
	FillingsUpdate:  mu: -0.188147984  nElectrons: 192.000000  magneticMoment: [ Abs: 0.00009  Tot: +0.00009 ]
	SubspaceRotationAdjust: set factor to 0.0765
ElecMinimize: Iter:   8  F: -1067.571515182040230  |grad|_K:  3.240e-06  alpha:  5.115e-01  linmin:  5.478e-06  t[s]:   3830.05
	Linear fluid (dielectric constant: 78.4, screening length: 8.12261 Bohr) occupying 0.509565 of unit cell:	Completed after 21 iterations at t[s]:   3841.85
	Linear fluid (dielectric constant: 78.4, screening length: 8.12261 Bohr) occupying 0.509591 of unit cell:	Completed after 18 iterations at t[s]:   3851.59
	FillingsUpdate:  mu: -0.194608339  nElectrons: 192.000000  magneticMoment: [ Abs: 0.00009  Tot: +0.00009 ]
	SubspaceRotationAdjust: set factor to 0.0592
ElecMinimize: Iter:   9  F: -1067.572329082055376  |grad|_K:  2.133e-06  alpha:  3.574e-01  linmin: -4.240e-06  t[s]:   3865.04
	Linear fluid (dielectric constant: 78.4, screening length: 8.12261 Bohr) occupying 0.509482 of unit cell:	Completed after 15 iterations at t[s]:   3876.43
	Linear fluid (dielectric constant: 78.4, screening length: 8.12261 Bohr) occupying 0.509450 of unit cell:	Completed after 10 iterations at t[s]:   3885.60
	FillingsUpdate:  mu: -0.193553326  nElectrons: 192.000000  magneticMoment: [ Abs: 0.00009  Tot: +0.00009 ]
	SubspaceRotationAdjust: set factor to 0.061
ElecMinimize: Iter:  10  F: -1067.572784139134228  |grad|_K:  1.393e-06  alpha:  4.596e-01  linmin:  3.452e-06  t[s]:   3899.02
	Linear fluid (dielectric constant: 78.4, screening length: 8.12261 Bohr) occupying 0.509323 of unit cell:	Completed after 17 iterations at t[s]:   3910.58
	Linear fluid (dielectric constant: 78.4, screening length: 8.12261 Bohr) occupying 0.509321 of unit cell:	Completed after 2 iterations at t[s]:   3919.26
	FillingsUpdate:  mu: -0.191967329  nElectrons: 192.000000  magneticMoment: [ Abs: 0.00009  Tot: +0.00009 ]
	SubspaceRotationAdjust: set factor to 0.0605
ElecMinimize: Iter:  11  F: -1067.572981186913239  |grad|_K:  8.682e-07  alpha:  4.664e-01  linmin:  8.224e-07  t[s]:   3932.92
	Linear fluid (dielectric constant: 78.4, screening length: 8.12261 Bohr) occupying 0.509234 of unit cell:	Completed after 18 iterations at t[s]:   3944.52
	Linear fluid (dielectric constant: 78.4, screening length: 8.12261 Bohr) occupying 0.509240 of unit cell:	Completed after 8 iterations at t[s]:   3953.70
	FillingsUpdate:  mu: -0.193247461  nElectrons: 192.000000  magneticMoment: [ Abs: 0.00009  Tot: +0.00008 ]
	SubspaceRotationAdjust: set factor to 0.0542
ElecMinimize: Iter:  12  F: -1067.573052379319961  |grad|_K:  5.605e-07  alpha:  4.340e-01  linmin:  9.844e-06  t[s]:   3967.04
	Linear fluid (dielectric constant: 78.4, screening length: 8.12261 Bohr) occupying 0.509195 of unit cell:	Completed after 11 iterations at t[s]:   3978.41
	Linear fluid (dielectric constant: 78.4, screening length: 8.12261 Bohr) occupying 0.509194 of unit cell:	Completed after 2 iterations at t[s]:   3987.08
	FillingsUpdate:  mu: -0.193056564  nElectrons: 192.000000  magneticMoment: [ Abs: 0.00009  Tot: +0.00008 ]
	SubspaceRotationAdjust: set factor to 0.0521
ElecMinimize: Iter:  13  F: -1067.573082746112959  |grad|_K:  3.951e-07  alpha:  4.442e-01  linmin: -3.238e-05  t[s]:   4000.53
	Linear fluid (dielectric constant: 78.4, screening length: 8.12261 Bohr) occupying 0.509168 of unit cell:	Completed after 10 iterations at t[s]:   4011.65
	Linear fluid (dielectric constant: 78.4, screening length: 8.12261 Bohr) occupying 0.509166 of unit cell:	Completed after 2 iterations at t[s]:   4020.31
	FillingsUpdate:  mu: -0.192814489  nElectrons: 192.000000  magneticMoment: [ Abs: 0.00009  Tot: +0.00008 ]
	SubspaceRotationAdjust: set factor to 0.0588
ElecMinimize: Iter:  14  F: -1067.573098766898738  |grad|_K:  2.562e-07  alpha:  4.713e-01  linmin: -9.139e-06  t[s]:   4033.80
	Linear fluid (dielectric constant: 78.4, screening length: 8.12261 Bohr) occupying 0.509153 of unit cell:	Completed after 10 iterations at t[s]:   4046.47
	Linear fluid (dielectric constant: 78.4, screening length: 8.12261 Bohr) occupying 0.509153 of unit cell:	Completed after 2 iterations at t[s]:   4055.21
	FillingsUpdate:  mu: -0.193082215  nElectrons: 192.000000  magneticMoment: [ Abs: 0.00009  Tot: +0.00008 ]
	SubspaceRotationAdjust: set factor to 0.0665
ElecMinimize: Iter:  15  F: -1067.573105824666754  |grad|_K:  1.884e-07  alpha:  4.940e-01  linmin: -4.204e-05  t[s]:   4068.75
	Linear fluid (dielectric constant: 78.4, screening length: 8.12261 Bohr) occupying 0.509147 of unit cell:	Completed after 9 iterations at t[s]:   4079.86
	Linear fluid (dielectric constant: 78.4, screening length: 8.12261 Bohr) occupying 0.509147 of unit cell:	Completed after 2 iterations at t[s]:   4088.52
	FillingsUpdate:  mu: -0.193019323  nElectrons: 192.000000  magneticMoment: [ Abs: 0.00009  Tot: +0.00008 ]
	SubspaceRotationAdjust: set factor to 0.0758
ElecMinimize: Iter:  16  F: -1067.573109906960326  |grad|_K:  1.630e-07  alpha:  5.286e-01  linmin: -4.058e-05  t[s]:   4102.02
	Linear fluid (dielectric constant: 78.4, screening length: 8.12261 Bohr) occupying 0.509145 of unit cell:	Completed after 8 iterations at t[s]:   4113.01
	Linear fluid (dielectric constant: 78.4, screening length: 8.12261 Bohr) occupying 0.509145 of unit cell:	Completed after 1 iterations at t[s]:   4121.68
	FillingsUpdate:  mu: -0.192921402  nElectrons: 192.000000  magneticMoment: [ Abs: 0.00009  Tot: +0.00008 ]
	SubspaceRotationAdjust: set factor to 0.0909
ElecMinimize: Iter:  17  F: -1067.573113079050017  |grad|_K:  1.458e-07  alpha:  5.485e-01  linmin: -2.239e-05  t[s]:   4134.97
	Linear fluid (dielectric constant: 78.4, screening length: 8.12261 Bohr) occupying 0.509145 of unit cell:	Completed after 6 iterations at t[s]:   4145.77
	Linear fluid (dielectric constant: 78.4, screening length: 8.12261 Bohr) occupying 0.509145 of unit cell:	Completed after 2 iterations at t[s]:   4154.46
	FillingsUpdate:  mu: -0.192960755  nElectrons: 192.000000  magneticMoment: [ Abs: 0.00009  Tot: +0.00008 ]
	SubspaceRotationAdjust: set factor to 0.11
ElecMinimize: Iter:  18  F: -1067.573116027316473  |grad|_K:  1.471e-07  alpha:  6.366e-01  linmin:  2.270e-07  t[s]:   4167.90
	Linear fluid (dielectric constant: 78.4, screening length: 8.12261 Bohr) occupying 0.509149 of unit cell:	Completed after 9 iterations at t[s]:   4178.92
	Linear fluid (dielectric constant: 78.4, screening length: 8.12261 Bohr) occupying 0.509149 of unit cell:	Completed after 2 iterations at t[s]:   4187.69
	FillingsUpdate:  mu: -0.192786683  nElectrons: 192.000000  magneticMoment: [ Abs: 0.00008  Tot: +0.00008 ]
	SubspaceRotationAdjust: set factor to 0.126
ElecMinimize: Iter:  19  F: -1067.573119270857205  |grad|_K:  1.543e-07  alpha:  6.888e-01  linmin: -1.047e-05  t[s]:   4201.10
	Linear fluid (dielectric constant: 78.4, screening length: 8.12261 Bohr) occupying 0.509153 of unit cell:	Completed after 10 iterations at t[s]:   4212.15
	Linear fluid (dielectric constant: 78.4, screening length: 8.12261 Bohr) occupying 0.509152 of unit cell:	Completed after 6 iterations at t[s]:   4221.15
	FillingsUpdate:  mu: -0.192869575  nElectrons: 192.000000  magneticMoment: [ Abs: 0.00008  Tot: +0.00008 ]
	SubspaceRotationAdjust: set factor to 0.126
ElecMinimize: Iter:  20  F: -1067.573121919611140  |grad|_K:  1.558e-07  alpha:  5.101e-01  linmin:  7.831e-06  t[s]:   4234.60
	Linear fluid (dielectric constant: 78.4, screening length: 8.12261 Bohr) occupying 0.509156 of unit cell:	Completed after 10 iterations at t[s]:   4245.65
	Linear fluid (dielectric constant: 78.4, screening length: 8.12261 Bohr) occupying 0.509154 of unit cell:	Completed after 9 iterations at t[s]:   4255.03
	FillingsUpdate:  mu: -0.192790276  nElectrons: 192.000000  magneticMoment: [ Abs: 0.00008  Tot: +0.00008 ]
	SubspaceRotationAdjust: set factor to 0.0991
ElecMinimize: Iter:  21  F: -1067.573123644515817  |grad|_K:  1.469e-07  alpha:  3.277e-01  linmin: -6.647e-06  t[s]:   4268.52
	Linear fluid (dielectric constant: 78.4, screening length: 8.12261 Bohr) occupying 0.509156 of unit cell:	Completed after 9 iterations at t[s]:   4279.62
	Linear fluid (dielectric constant: 78.4, screening length: 8.12261 Bohr) occupying 0.509156 of unit cell:	Completed after 2 iterations at t[s]:   4288.40
	FillingsUpdate:  mu: -0.192674821  nElectrons: 192.000000  magneticMoment: [ Abs: 0.00008  Tot: +0.00008 ]
	SubspaceRotationAdjust: set factor to 0.0856
ElecMinimize: Iter:  22  F: -1067.573125297067236  |grad|_K:  1.063e-07  alpha:  3.514e-01  linmin: -3.427e-05  t[s]:   4301.77
	Linear fluid (dielectric constant: 78.4, screening length: 8.12261 Bohr) occupying 0.509156 of unit cell:	Completed after 3 iterations at t[s]:   4312.36
	Linear fluid (dielectric constant: 78.4, screening length: 8.12261 Bohr) occupying 0.509156 of unit cell:	Completed after 3 iterations at t[s]:   4321.12
	FillingsUpdate:  mu: -0.192792916  nElectrons: 192.000000  magneticMoment: [ Abs: 0.00008  Tot: +0.00007 ]
	SubspaceRotationAdjust: set factor to 0.091
ElecMinimize: Iter:  23  F: -1067.573126465381620  |grad|_K:  7.948e-08  alpha:  4.742e-01  linmin:  2.707e-05  t[s]:   4335.45
	Linear fluid (dielectric constant: 78.4, screening length: 8.12261 Bohr) occupying 0.509155 of unit cell:	Completed after 8 iterations at t[s]:   4347.05
	Linear fluid (dielectric constant: 78.4, screening length: 8.12261 Bohr) occupying 0.509155 of unit cell:	Completed after 2 iterations at t[s]:   4355.73
	FillingsUpdate:  mu: -0.192746280  nElectrons: 192.000000  magneticMoment: [ Abs: 0.00008  Tot: +0.00007 ]
	SubspaceRotationAdjust: set factor to 0.0845
ElecMinimize: Iter:  24  F: -1067.573127030409296  |grad|_K:  6.434e-08  alpha:  4.119e-01  linmin:  7.500e-05  t[s]:   4369.18
	Linear fluid (dielectric constant: 78.4, screening length: 8.12261 Bohr) occupying 0.509155 of unit cell:	Completed after 8 iterations at t[s]:   4380.12
	Linear fluid (dielectric constant: 78.4, screening length: 8.12261 Bohr) occupying 0.509155 of unit cell:	Completed after 3 iterations at t[s]:   4388.87
	FillingsUpdate:  mu: -0.192711028  nElectrons: 192.000000  magneticMoment: [ Abs: 0.00008  Tot: +0.00007 ]
	SubspaceRotationAdjust: set factor to 0.0714
ElecMinimize: Iter:  25  F: -1067.573127336303060  |grad|_K:  4.964e-08  alpha:  3.421e-01  linmin:  4.193e-05  t[s]:   4402.23
	Linear fluid (dielectric constant: 78.4, screening length: 8.12261 Bohr) occupying 0.509154 of unit cell:	Completed after 6 iterations at t[s]:   4413.01
	Linear fluid (dielectric constant: 78.4, screening length: 8.12261 Bohr) occupying 0.509154 of unit cell:	Completed after 0 iterations at t[s]:   4421.49
	FillingsUpdate:  mu: -0.192757193  nElectrons: 192.000000  magneticMoment: [ Abs: 0.00008  Tot: +0.00007 ]
	SubspaceRotationAdjust: set factor to 0.0899
ElecMinimize: Iter:  26  F: -1067.573127556337113  |grad|_K:  3.372e-08  alpha:  4.093e-01  linmin: -6.281e-04  t[s]:   4434.78
	Linear fluid (dielectric constant: 78.4, screening length: 8.12261 Bohr) occupying 0.509153 of unit cell:	Completed after 6 iterations at t[s]:   4445.61
	Linear fluid (dielectric constant: 78.4, screening length: 8.12261 Bohr) occupying 0.509153 of unit cell:	Completed after 0 iterations at t[s]:   4454.07
[...]
	SubspaceRotationAdjust: set factor to 0.126
ElecMinimize: Iter:   5  F: -1067.581097959507588  |grad|_K:  1.401e-07  alpha:  6.643e-01  linmin:  1.069e-04  t[s]:  15349.61
	Linear fluid (dielectric constant: 78.4, screening length: 8.12261 Bohr) occupying 0.513376 of unit cell:	Completed after 11 iterations at t[s]:  15360.73
	Linear fluid (dielectric constant: 78.4, screening length: 8.12261 Bohr) occupying 0.513377 of unit cell:	Completed after 9 iterations at t[s]:  15369.87
	FillingsUpdate:  mu: -0.194737589  nElectrons: 192.000000  magneticMoment: [ Abs: 0.00000  Tot: +0.00000 ]
	SubspaceRotationAdjust: set factor to 0.101
ElecMinimize: Iter:   6  F: -1067.581099682280865  |grad|_K:  1.331e-07  alpha:  4.067e-01  linmin: -1.371e-05  t[s]:  15383.30
	Linear fluid (dielectric constant: 78.4, screening length: 8.12261 Bohr) occupying 0.513376 of unit cell:	Completed after 9 iterations at t[s]:  15394.29
	Linear fluid (dielectric constant: 78.4, screening length: 8.12261 Bohr) occupying 0.513376 of unit cell:	Completed after 0 iterations at t[s]:  15402.81
	FillingsUpdate:  mu: -0.194680408  nElectrons: 192.000000  magneticMoment: [ Abs: 0.00000  Tot: +0.00000 ]
	SubspaceRotationAdjust: set factor to 0.081
ElecMinimize: Iter:   7  F: -1067.581101234126209  |grad|_K:  9.517e-08  alpha:  4.019e-01  linmin:  7.261e-05  t[s]:  15416.22
	Linear fluid (dielectric constant: 78.4, screening length: 8.12261 Bohr) occupying 0.513377 of unit cell:	Completed after 9 iterations at t[s]:  15427.22
	Linear fluid (dielectric constant: 78.4, screening length: 8.12261 Bohr) occupying 0.513377 of unit cell:	Completed after 2 iterations at t[s]:  15436.82
	FillingsUpdate:  mu: -0.194912218  nElectrons: 192.000000  magneticMoment: [ Abs: 0.00000  Tot: +0.00000 ]
	SubspaceRotationAdjust: set factor to 0.0655
ElecMinimize: Iter:   8  F: -1067.581101977383923  |grad|_K:  6.707e-08  alpha:  3.785e-01  linmin: -4.955e-06  t[s]:  15450.21
	Linear fluid (dielectric constant: 78.4, screening length: 8.12261 Bohr) occupying 0.513378 of unit cell:	Completed after 2 iterations at t[s]:  15460.78
	Linear fluid (dielectric constant: 78.4, screening length: 8.12261 Bohr) occupying 0.513378 of unit cell:	Completed after 2 iterations at t[s]:  15469.53
	FillingsUpdate:  mu: -0.194819578  nElectrons: 192.000000  magneticMoment: [ Abs: 0.00000  Tot: +0.00000 ]
	SubspaceRotationAdjust: set factor to 0.0688
ElecMinimize: Iter:   9  F: -1067.581102416194881  |grad|_K:  4.156e-08  alpha:  4.489e-01  linmin: -2.504e-05  t[s]:  15483.02
	Linear fluid (dielectric constant: 78.4, screening length: 8.12261 Bohr) occupying 0.513378 of unit cell:	Completed after 6 iterations at t[s]:  15493.82
	Linear fluid (dielectric constant: 78.4, screening length: 8.12261 Bohr) occupying 0.513378 of unit cell:	Completed after 0 iterations at t[s]:  15502.32
	FillingsUpdate:  mu: -0.194779272  nElectrons: 192.000000  magneticMoment: [ Abs: 0.00000  Tot: +0.00000 ]
	SubspaceRotationAdjust: set factor to 0.066
ElecMinimize: Iter:  10  F: -1067.581102577116553  |grad|_K:  2.725e-08  alpha:  4.280e-01  linmin: -1.490e-04  t[s]:  15515.69
	Linear fluid (dielectric constant: 78.4, screening length: 8.12261 Bohr) occupying 0.513378 of unit cell:	Completed after 4 iterations at t[s]:  15526.33
	Linear fluid (dielectric constant: 78.4, screening length: 8.12261 Bohr) occupying 0.513378 of unit cell:	Completed after 0 iterations at t[s]:  15535.00
	FillingsUpdate:  mu: -0.194828849  nElectrons: 192.000000  magneticMoment: [ Abs: 0.00000  Tot: +0.00000 ]
	SubspaceRotationAdjust: set factor to 0.0596
ElecMinimize: Iter:  11  F: -1067.581102644156999  |grad|_K:  1.944e-08  alpha:  4.137e-01  linmin: -5.442e-04  t[s]:  15548.39
	Linear fluid (dielectric constant: 78.4, screening length: 8.12261 Bohr) occupying 0.513377 of unit cell:	Completed after 2 iterations at t[s]:  15558.96
	Linear fluid (dielectric constant: 78.4, screening length: 8.12261 Bohr) occupying 0.513377 of unit cell:	Completed after 0 iterations at t[s]:  15567.49
	FillingsUpdate:  mu: -0.194818906  nElectrons: 192.000000  magneticMoment: [ Abs: 0.00000  Tot: +0.00000 ]
	SubspaceRotationAdjust: set factor to 0.0669
ElecMinimize: Iter:  12  F: -1067.581102679976084  |grad|_K:  1.310e-08  alpha:  4.315e-01  linmin: -3.322e-03  t[s]:  15580.95
ElecMinimize: Converged (|Delta F|<1.000000e-07 for 2 iters).
Setting wave functions to eigenvectors of Hamiltonian
Converging empty states (this may take a while): |deigs|: 2.068e-08

Computing DFT-D3 correction:
# coordination-number Pt 5.927 7.141 9.427 9.340 9.306 7.660 7.658 9.302 9.340 9.433 7.150 5.929
# diagonal-C6 Pt 336.87 336.87 336.87 336.87 336.87 336.87 336.87 336.87 336.87 336.87 336.87 336.87
EvdW_6 =   -0.093426
EvdW_8 =   -0.156154

# Ionic positions in cartesian coordinates:
ion Pt   0.000155887697213   0.310164394132793  17.102575782614675 1
ion Pt  -0.000279512744279   4.020060917961307   2.175709952003573 1
ion Pt  -0.000018107870628   8.528744601238710   5.415570091894909 1
ion Pt  -0.000131307980672  -0.010498601842747   8.242731238577239 1
ion Pt   0.000169212663849   4.351294757455412  11.333369464432794 1
ion Pt   0.000298578762684   8.653933151852943  14.683869111787891 1
ion Pt   2.615705509534943  -0.109629636111702   3.441158003832309 1
ion Pt   2.615814403149391   4.191072792962809   6.786877058026594 1
ion Pt   2.616146554165317   8.554114845181934   9.885500047209488 1
ion Pt   2.616005762345337   0.015128699373870  12.711024735176897 1
ion Pt   2.616312377564660   4.522854357111413  15.941793838216972 1
ion Pt   2.615808642712183   8.235631720683251   1.024793676226652 1

# Forces in Cartesian coordinates:
force Pt   0.000003238357452  -0.000069045229525  -0.000246126128380 1
force Pt  -0.000001162588823   0.000213237532607   0.000204831501714 1
force Pt  -0.000000293909356  -0.000112252317153   0.000141370643369 1
force Pt  -0.000001409047488   0.000089943483918  -0.000507870341073 1
force Pt  -0.000001369763899  -0.000121057036275   0.000071832810872 1
force Pt   0.000000329307299   0.000134117710033  -0.000174954899528 1
force Pt  -0.000000253267995  -0.000106191534730   0.000301213124168 1
force Pt  -0.000000407911419   0.000181834179198  -0.000046980868975 1
force Pt   0.000000814482158  -0.000147261202638   0.000207800559195 1
force Pt   0.000000672496046   0.000125284167263   0.000070685208874 1
force Pt   0.000001824016551  -0.000147869465466  -0.000060545359289 1
force Pt  -0.000003561798238  -0.000019014460587   0.000161102294484 1

# Energy components:
   A_diel =       -0.0038956059248567
   Eewald =     6057.0537413764850498
       EH =     7025.0516744243914218
     Eloc =   -14334.8303505436106207
      Enl =      -12.6285227673748874
     EvdW =       -0.2495799235529152
      Exc =     -341.2807835346239926
 Exc_core =      196.6965791109412578
       KE =      342.6118797627479466
-------------------------------------
     Etot =    -1067.5792577005213388
       TS =        0.0018449794546766
-------------------------------------
        F =    -1067.5811026799760839


Dumping 'jdft.fillings' ... done
Dumping 'jdft.wfns' ... done
Dumping 'jdft.fluidState' ... done
Dumping 'jdft.ionpos' ... done
Dumping 'jdft.lattice' ... done
Dumping 'jdft.eigenvals' ... done
Dumping 'jdft.eigStats' ... 
	eMin: -2.143054 at state 32 ( [ +0.500000 +0.400000 +0.000000 ] spin 1 )
	HOMO: -0.194981 at state 80 ( [ +0.333333 +0.000000 +0.000000 ] spin -1 )
	mu  : -0.194819
	LUMO: -0.194486 at state 6 ( [ +0.083333 +0.200000 +0.000000 ] spin 1 )
	eMax: +0.106286 at state 99 ( [ -0.416667 -0.200000 +0.000000 ] spin -1 )
	HOMO-LUMO gap: +0.000495
	Optical gap  : +0.001531 at state 80 ( [ +0.333333 +0.000000 +0.000000 ] spin -1 )
Dumping 'jdft.Ecomponents' ... done
IonicMinimize: Iter:  13  F: -1067.581102679976084  |grad|_K:  1.484e-04  alpha:  1.000e+00  linmin: -3.096e-02  t[s]:  15612.52

#--- Lowdin population analysis ---
# oxidation-state Pt +0.055 +0.010 -0.010 +0.017 +0.011 -0.011 -0.012 +0.011 +0.017 -0.010 +0.010 +0.054
# magnetic-moments Pt +0.000 +0.000 +0.000 +0.000 +0.000 +0.000 +0.000 +0.000 +0.000 +0.000 +0.000 +0.000


Computing DFT-D3 correction:
# coordination-number Pt 5.928 7.144 9.433 9.344 9.308 7.661 7.666 9.310 9.342 9.434 7.148 5.929
# diagonal-C6 Pt 336.87 336.87 336.87 336.87 336.87 336.87 336.87 336.87 336.87 336.87 336.87 336.87
EvdW_6 =   -0.093439
EvdW_8 =   -0.156185

-------- Electronic minimization -----------
	Linear fluid (dielectric constant: 78.4, screening length: 8.12261 Bohr) occupying 0.513451 of unit cell:	Completed after 13 iterations at t[s]:  15625.52
	FillingsUpdate:  mu: -0.194788065  nElectrons: 192.000000  magneticMoment: [ Abs: 0.00000  Tot: +0.00000 ]
ElecMinimize: Iter:   0  F: -1067.581098082335302  |grad|_K:  2.073e-07  alpha:  1.000e+00
	Linear fluid (dielectric constant: 78.4, screening length: 8.12261 Bohr) occupying 0.513447 of unit cell:	Completed after 11 iterations at t[s]:  15651.90
	Linear fluid (dielectric constant: 78.4, screening length: 8.12261 Bohr) occupying 0.513449 of unit cell:	Completed after 11 iterations at t[s]:  15661.22
	FillingsUpdate:  mu: -0.194736306  nElectrons: 192.000000  magneticMoment: [ Abs: 0.00000  Tot: +0.00000 ]
	SubspaceRotationAdjust: set factor to 0.0565
ElecMinimize: Iter:   1  F: -1067.581101320021844  |grad|_K:  9.889e-08  alpha:  3.469e-01  linmin:  1.780e-04  t[s]:  15674.67
	Linear fluid (dielectric constant: 78.4, screening length: 8.12261 Bohr) occupying 0.513447 of unit cell:	Completed after 8 iterations at t[s]:  15685.72
	Linear fluid (dielectric constant: 78.4, screening length: 8.12261 Bohr) occupying 0.513447 of unit cell:	Completed after 2 iterations at t[s]:  15694.40
	FillingsUpdate:  mu: -0.194788827  nElectrons: 192.000000  magneticMoment: [ Abs: 0.00000  Tot: +0.00000 ]
	SubspaceRotationAdjust: set factor to 0.066
ElecMinimize: Iter:   2  F: -1067.581102211287316  |grad|_K:  6.653e-08  alpha:  4.189e-01  linmin: -6.785e-04  t[s]:  15707.87
	Linear fluid (dielectric constant: 78.4, screening length: 8.12261 Bohr) occupying 0.513445 of unit cell:	Completed after 2 iterations at t[s]:  15718.49
	Linear fluid (dielectric constant: 78.4, screening length: 8.12261 Bohr) occupying 0.513443 of unit cell:	Completed after 2 iterations at t[s]:  15727.17
	FillingsUpdate:  mu: -0.194798086  nElectrons: 192.000000  magneticMoment: [ Abs: 0.00000  Tot: +0.00000 ]
	SubspaceRotationAdjust: set factor to 0.0834
ElecMinimize: Iter:   3  F: -1067.581102949025990  |grad|_K:  6.921e-08  alpha:  7.642e-01  linmin:  1.833e-04  t[s]:  15741.73
	Linear fluid (dielectric constant: 78.4, screening length: 8.12261 Bohr) occupying 0.513438 of unit cell:	Completed after 6 iterations at t[s]:  15752.54
	Linear fluid (dielectric constant: 78.4, screening length: 8.12261 Bohr) occupying 0.513437 of unit cell:	Completed after 2 iterations at t[s]:  15761.20
	FillingsUpdate:  mu: -0.194777797  nElectrons: 192.000000  magneticMoment: [ Abs: 0.00000  Tot: +0.00000 ]
	SubspaceRotationAdjust: set factor to 0.0976
ElecMinimize: Iter:   4  F: -1067.581103854579624  |grad|_K:  8.149e-08  alpha:  8.698e-01  linmin: -2.792e-04  t[s]:  15774.57
	Linear fluid (dielectric constant: 78.4, screening length: 8.12261 Bohr) occupying 0.513430 of unit cell:	Completed after 9 iterations at t[s]:  15785.53
	Linear fluid (dielectric constant: 78.4, screening length: 8.12261 Bohr) occupying 0.513432 of unit cell:	Completed after 2 iterations at t[s]:  15794.18
	FillingsUpdate:  mu: -0.194829226  nElectrons: 192.000000  magneticMoment: [ Abs: 0.00000  Tot: +0.00000 ]
	SubspaceRotationAdjust: set factor to 0.0978
ElecMinimize: Iter:   5  F: -1067.581104880878001  |grad|_K:  9.290e-08  alpha:  7.029e-01  linmin:  1.489e-04  t[s]:  15807.47
	Linear fluid (dielectric constant: 78.4, screening length: 8.12261 Bohr) occupying 0.513427 of unit cell:	Completed after 9 iterations at t[s]:  15818.45
	Linear fluid (dielectric constant: 78.4, screening length: 8.12261 Bohr) occupying 0.513429 of unit cell:	Completed after 7 iterations at t[s]:  15827.53
	FillingsUpdate:  mu: -0.194826425  nElectrons: 192.000000  magneticMoment: [ Abs: 0.00000  Tot: +0.00000 ]
	SubspaceRotationAdjust: set factor to 0.0815
ElecMinimize: Iter:   6  F: -1067.581105766937299  |grad|_K:  8.882e-08  alpha:  4.774e-01  linmin: -6.030e-05  t[s]:  15840.89
	Linear fluid (dielectric constant: 78.4, screening length: 8.12261 Bohr) occupying 0.513428 of unit cell:	Completed after 9 iterations at t[s]:  15851.86
	Linear fluid (dielectric constant: 78.4, screening length: 8.12261 Bohr) occupying 0.513428 of unit cell:	Completed after 1 iterations at t[s]:  15860.54
	FillingsUpdate:  mu: -0.194818778  nElectrons: 192.000000  magneticMoment: [ Abs: 0.00000  Tot: +0.00000 ]
	SubspaceRotationAdjust: set factor to 0.0745
ElecMinimize: Iter:   7  F: -1067.581106494230426  |grad|_K:  6.050e-08  alpha:  4.223e-01  linmin:  8.674e-05  t[s]:  15873.94
	Linear fluid (dielectric constant: 78.4, screening length: 8.12261 Bohr) occupying 0.513429 of unit cell:	Completed after 2 iterations at t[s]:  15884.41
	Linear fluid (dielectric constant: 78.4, screening length: 8.12261 Bohr) occupying 0.513429 of unit cell:	Completed after 2 iterations at t[s]:  15893.22
	FillingsUpdate:  mu: -0.194840170  nElectrons: 192.000000  magneticMoment: [ Abs: 0.00000  Tot: +0.00000 ]
	SubspaceRotationAdjust: set factor to 0.0771
ElecMinimize: Iter:   8  F: -1067.581106951235824  |grad|_K:  4.335e-08  alpha:  5.757e-01  linmin: -4.744e-05  t[s]:  15906.61
	Linear fluid (dielectric constant: 78.4, screening length: 8.12261 Bohr) occupying 0.513430 of unit cell:	Completed after 6 iterations at t[s]:  15917.50
	Linear fluid (dielectric constant: 78.4, screening length: 8.12261 Bohr) occupying 0.513430 of unit cell:	Completed after 0 iterations at t[s]:  15926.03
	FillingsUpdate:  mu: -0.194800929  nElectrons: 192.000000  magneticMoment: [ Abs: 0.00000  Tot: +0.00000 ]
	SubspaceRotationAdjust: set factor to 0.0735
ElecMinimize: Iter:   9  F: -1067.581107152243021  |grad|_K:  3.061e-08  alpha:  4.902e-01  linmin:  4.817e-04  t[s]:  15939.56
	Linear fluid (dielectric constant: 78.4, screening length: 8.12261 Bohr) occupying 0.513430 of unit cell:	Completed after 6 iterations at t[s]:  15950.35
	Linear fluid (dielectric constant: 78.4, screening length: 8.12261 Bohr) occupying 0.513430 of unit cell:	Completed after 2 iterations at t[s]:  15959.00
	FillingsUpdate:  mu: -0.194835822  nElectrons: 192.000000  magneticMoment: [ Abs: 0.00000  Tot: +0.00000 ]
	SubspaceRotationAdjust: set factor to 0.0585
ElecMinimize: Iter:  10  F: -1067.581107223928711  |grad|_K:  2.213e-08  alpha:  3.635e-01  linmin: -5.066e-04  t[s]:  15972.43
	Linear fluid (dielectric constant: 78.4, screening length: 8.12261 Bohr) occupying 0.513430 of unit cell:	Completed after 2 iterations at t[s]:  15983.10
	Linear fluid (dielectric constant: 78.4, screening length: 8.12261 Bohr) occupying 0.513430 of unit cell:	Completed after 0 iterations at t[s]:  15991.53
	FillingsUpdate:  mu: -0.194825825  nElectrons: 192.000000  magneticMoment: [ Abs: 0.00000  Tot: +0.00000 ]
	SubspaceRotationAdjust: set factor to 0.0644
ElecMinimize: Iter:  11  F: -1067.581107269504173  |grad|_K:  1.411e-08  alpha:  4.212e-01  linmin: -2.451e-03  t[s]:  16004.92
ElecMinimize: Converged (|Delta F|<1.000000e-07 for 2 iters).
Setting wave functions to eigenvectors of Hamiltonian
Converging empty states (this may take a while): |deigs|: 9.232e-09

Computing DFT-D3 correction:
# coordination-number Pt 5.928 7.144 9.433 9.344 9.308 7.661 7.666 9.310 9.342 9.434 7.148 5.929
# diagonal-C6 Pt 336.87 336.87 336.87 336.87 336.87 336.87 336.87 336.87 336.87 336.87 336.87 336.87
EvdW_6 =   -0.093439
EvdW_8 =   -0.156185

# Ionic positions in cartesian coordinates:
ion Pt   0.000212263270184   0.307628656514532  17.100922379186667 1
ion Pt  -0.000300751964727   4.022234335508575   2.178033618630730 1
ion Pt  -0.000016764864666   8.528639783761147   5.417405406720914 1
ion Pt  -0.000147280339382  -0.009304143311413   8.238774221662863 1
ion Pt   0.000156469018331   4.349291377271206  11.332705073397483 1
ion Pt   0.000310647671688   8.653293543849852  14.682297975434738 1
ion Pt   2.615714851674392  -0.108414242576394   3.443645923638361 1
ion Pt   2.615812509151497   4.193178703585203   6.787098455977389 1
ion Pt   2.616154870234055   8.553078868364427   9.886389395803960 1
ion Pt   2.615999580486565   0.014844909192987  12.709444181618785 1
ion Pt   2.616321554376702   4.520656408507365  15.941687636002294 1
ion Pt   2.615770051285360   8.237743799332506   1.026568731925808 1

# Forces in Cartesian coordinates:
force Pt   0.000000558378987   0.000015022145527  -0.000152406502690 1
force Pt   0.000000036406661   0.000124862555492   0.000009825814467 1
force Pt  -0.000001191701121  -0.000033446230866  -0.000022956006618 1
force Pt  -0.000000181106983  -0.000045939589409  -0.000041612614133 1
force Pt  -0.000000156028582  -0.000035410884524   0.000137536246952 1
force Pt   0.000000448196216  -0.000029573204278  -0.000183929721579 1
force Pt  -0.000001852751816  -0.000100069961645   0.000050103782292 1
force Pt  -0.000001145837441   0.000075488367727  -0.000017514989835 1
force Pt  -0.000000000694566   0.000048608310314   0.000183338895271 1
force Pt   0.000001918157937   0.000052827679253  -0.000129933527543 1
force Pt   0.000002864852829  -0.000021750358136  -0.000177705224360 1
force Pt  -0.000002503303632  -0.000066046550124   0.000106035987770 1

# Energy components:
   A_diel =       -0.0038945514817059
   Eewald =     6058.6385679406512281
       EH =     7026.6316726256200127
     Eloc =   -14337.9963802959173336
      Enl =      -12.6283600900006654
     EvdW =       -0.2496240675136970
      Exc =     -341.2817648990927637
 Exc_core =      196.6965790299040293
       KE =      342.6139435170408660
-------------------------------------
     Etot =    -1067.5792607907906131
       TS =        0.0018464787135138
-------------------------------------
        F =    -1067.5811072695041730


Dumping 'jdft.fillings' ... done
Dumping 'jdft.wfns' ... done
Dumping 'jdft.fluidState' ... done
Dumping 'jdft.ionpos' ... done
Dumping 'jdft.lattice' ... done
Dumping 'jdft.eigenvals' ... done
Dumping 'jdft.eigStats' ... 
	eMin: -2.143063 at state 33 ( [ +0.500000 -0.400000 +0.000000 ] spin 1 )
	HOMO: -0.194977 at state 80 ( [ +0.333333 +0.000000 +0.000000 ] spin -1 )
	mu  : -0.194826
	LUMO: -0.194492 at state 6 ( [ +0.083333 +0.200000 +0.000000 ] spin 1 )
	eMax: +0.106319 at state 99 ( [ -0.416667 -0.200000 +0.000000 ] spin -1 )
	HOMO-LUMO gap: +0.000485
	Optical gap  : +0.001520 at state 100 ( [ -0.333333 +0.000000 +0.000000 ] spin -1 )
Dumping 'jdft.Ecomponents' ... done
IonicMinimize: Iter:  14  F: -1067.581107269504173  |grad|_K:  7.756e-05  alpha:  1.000e+00  linmin: -3.516e-01  t[s]:  16037.31
IonicMinimize: Converged (|grad|_K<1.000000e-04).

#--- Lowdin population analysis ---
# oxidation-state Pt +0.054 +0.010 -0.010 +0.017 +0.011 -0.012 -0.012 +0.011 +0.017 -0.010 +0.010 +0.054
# magnetic-moments Pt +0.000 +0.000 +0.000 +0.000 +0.000 +0.000 +0.000 +0.000 +0.000 +0.000 +0.000 +0.000


Dumping 'jdft.n_up' ... done
Dumping 'jdft.n_dn' ... done
Dumping 'jdft.tau_up' ... done
Dumping 'jdft.tau_dn' ... done
Dumping 'jdft.eigenvals' ... done
Dumping 'jdft.eigStats' ... 
	eMin: -2.143063 at state 33 ( [ +0.500000 -0.400000 +0.000000 ] spin 1 )
	HOMO: -0.194977 at state 80 ( [ +0.333333 +0.000000 +0.000000 ] spin -1 )
	mu  : -0.194826
	LUMO: -0.194492 at state 6 ( [ +0.083333 +0.200000 +0.000000 ] spin 1 )
	eMax: +0.106319 at state 99 ( [ -0.416667 -0.200000 +0.000000 ] spin -1 )
	HOMO-LUMO gap: +0.000485
	Optical gap  : +0.001520 at state 100 ( [ -0.333333 +0.000000 +0.000000 ] spin -1 )
Dumping 'jdft.kPts' ... done
Dumping 'jdft.dosUp' ... done.
Dumping 'jdft.dosDn' ... done.
End date and time: Mon Dec  6 20:47:22 2021  (Duration: 0-4:27:39.83)
Done!
