
*************** JDFTx 1.7.0 (git hash 5f12716a) ***************

Start date and time: Sat Sep 10 11:30:10 2022
Executable /home/nisi6161/jdftx_alpine/build/jdftx with command-line: -i in
Running on hosts (process indices):  c3cpu-a2-u5-4.rc.int.colorado.edu (0-23)
Divided in process groups (process indices):  0 (0)  1 (1)  2 (2)  3 (3)  4 (4)  5 (5)  6 (6)  7 (7)  8 (8)  9 (9)  10 (10)  11 (11)  12 (12)  13 (13)  14 (14)  15 (15)  16 (16)  17 (17)  18 (18)  19 (19)  20 (20)  21 (21)  22 (22)  23 (23)
Resource initialization completed at t[s]:      0.00
Run totals: 24 processes, 64 threads, 0 GPUs


Input parsed successfully to the following command list (including defaults):

basis kpoint-dependent
converge-empty-states yes
coords-type Cartesian
core-overlap-check none
coulomb-interaction Periodic
davidson-band-ratio 1.1
density-of-states Etol 1.000000e-06 Esigma 1.000000e-03 \
		Complete \
	Total \
	OrthoOrbital Pt 1   s \
	OrthoOrbital Pt 1   p \
	OrthoOrbital Pt 1   px \
	OrthoOrbital Pt 1   py \
	OrthoOrbital Pt 1   pz \
	OrthoOrbital Pt 1   d \
	OrthoOrbital Pt 1   dxy \
	OrthoOrbital Pt 1   dyz \
	OrthoOrbital Pt 1   dz2 \
	OrthoOrbital Pt 1   dxz \
	OrthoOrbital Pt 1   dx2-y2 \
	OrthoOrbital Pt 2   s \
	OrthoOrbital Pt 2   p \
	OrthoOrbital Pt 2   px \
	OrthoOrbital Pt 2   py \
	OrthoOrbital Pt 2   pz \
	OrthoOrbital Pt 2   d \
	OrthoOrbital Pt 2   dxy \
	OrthoOrbital Pt 2   dyz \
	OrthoOrbital Pt 2   dz2 \
	OrthoOrbital Pt 2   dxz \
	OrthoOrbital Pt 2   dx2-y2 \
	OrthoOrbital Pt 3   s \
	OrthoOrbital Pt 3   p \
	OrthoOrbital Pt 3   px \
	OrthoOrbital Pt 3   py \
	OrthoOrbital Pt 3   pz \
	OrthoOrbital Pt 3   d \
	OrthoOrbital Pt 3   dxy \
	OrthoOrbital Pt 3   dyz \
	OrthoOrbital Pt 3   dz2 \
	OrthoOrbital Pt 3   dxz \
	OrthoOrbital Pt 3   dx2-y2 \
	OrthoOrbital Pt 4   s \
	OrthoOrbital Pt 4   p \
	OrthoOrbital Pt 4   px \
	OrthoOrbital Pt 4   py \
	OrthoOrbital Pt 4   pz \
	OrthoOrbital Pt 4   d \
	OrthoOrbital Pt 4   dxy \
	OrthoOrbital Pt 4   dyz \
	OrthoOrbital Pt 4   dz2 \
	OrthoOrbital Pt 4   dxz \
	OrthoOrbital Pt 4   dx2-y2 \
	OrthoOrbital Pt 5   s \
	OrthoOrbital Pt 5   p \
	OrthoOrbital Pt 5   px \
	OrthoOrbital Pt 5   py \
	OrthoOrbital Pt 5   pz \
	OrthoOrbital Pt 5   d \
	OrthoOrbital Pt 5   dxy \
	OrthoOrbital Pt 5   dyz \
	OrthoOrbital Pt 5   dz2 \
	OrthoOrbital Pt 5   dxz \
	OrthoOrbital Pt 5   dx2-y2 \
	OrthoOrbital Pt 6   s \
	OrthoOrbital Pt 6   p \
	OrthoOrbital Pt 6   px \
	OrthoOrbital Pt 6   py \
	OrthoOrbital Pt 6   pz \
	OrthoOrbital Pt 6   d \
	OrthoOrbital Pt 6   dxy \
	OrthoOrbital Pt 6   dyz \
	OrthoOrbital Pt 6   dz2 \
	OrthoOrbital Pt 6   dxz \
	OrthoOrbital Pt 6   dx2-y2 \
	OrthoOrbital Pt 7   s \
	OrthoOrbital Pt 7   p \
	OrthoOrbital Pt 7   px \
	OrthoOrbital Pt 7   py \
	OrthoOrbital Pt 7   pz \
	OrthoOrbital Pt 7   d \
	OrthoOrbital Pt 7   dxy \
	OrthoOrbital Pt 7   dyz \
	OrthoOrbital Pt 7   dz2 \
	OrthoOrbital Pt 7   dxz \
	OrthoOrbital Pt 7   dx2-y2 \
	OrthoOrbital Pt 8   s \
	OrthoOrbital Pt 8   p \
	OrthoOrbital Pt 8   px \
	OrthoOrbital Pt 8   py \
	OrthoOrbital Pt 8   pz \
	OrthoOrbital Pt 8   d \
	OrthoOrbital Pt 8   dxy \
	OrthoOrbital Pt 8   dyz \
	OrthoOrbital Pt 8   dz2 \
	OrthoOrbital Pt 8   dxz \
	OrthoOrbital Pt 8   dx2-y2 \
	OrthoOrbital Pt 9   s \
	OrthoOrbital Pt 9   p \
	OrthoOrbital Pt 9   px \
	OrthoOrbital Pt 9   py \
	OrthoOrbital Pt 9   pz \
	OrthoOrbital Pt 9   d \
	OrthoOrbital Pt 9   dxy \
	OrthoOrbital Pt 9   dyz \
	OrthoOrbital Pt 9   dz2 \
	OrthoOrbital Pt 9   dxz \
	OrthoOrbital Pt 9   dx2-y2 \
	OrthoOrbital Pt 10   s \
	OrthoOrbital Pt 10   p \
	OrthoOrbital Pt 10   px \
	OrthoOrbital Pt 10   py \
	OrthoOrbital Pt 10   pz \
	OrthoOrbital Pt 10   d \
	OrthoOrbital Pt 10   dxy \
	OrthoOrbital Pt 10   dyz \
	OrthoOrbital Pt 10   dz2 \
	OrthoOrbital Pt 10   dxz \
	OrthoOrbital Pt 10   dx2-y2 \
	OrthoOrbital Pt 11   s \
	OrthoOrbital Pt 11   p \
	OrthoOrbital Pt 11   px \
	OrthoOrbital Pt 11   py \
	OrthoOrbital Pt 11   pz \
	OrthoOrbital Pt 11   d \
	OrthoOrbital Pt 11   dxy \
	OrthoOrbital Pt 11   dyz \
	OrthoOrbital Pt 11   dz2 \
	OrthoOrbital Pt 11   dxz \
	OrthoOrbital Pt 11   dx2-y2 \
	OrthoOrbital Pt 12   s \
	OrthoOrbital Pt 12   p \
	OrthoOrbital Pt 12   px \
	OrthoOrbital Pt 12   py \
	OrthoOrbital Pt 12   pz \
	OrthoOrbital Pt 12   d \
	OrthoOrbital Pt 12   dxy \
	OrthoOrbital Pt 12   dyz \
	OrthoOrbital Pt 12   dz2 \
	OrthoOrbital Pt 12   dxz \
	OrthoOrbital Pt 12   dx2-y2 \
	OrthoOrbital Pt 13   s \
	OrthoOrbital Pt 13   p \
	OrthoOrbital Pt 13   px \
	OrthoOrbital Pt 13   py \
	OrthoOrbital Pt 13   pz \
	OrthoOrbital Pt 13   d \
	OrthoOrbital Pt 13   dxy \
	OrthoOrbital Pt 13   dyz \
	OrthoOrbital Pt 13   dz2 \
	OrthoOrbital Pt 13   dxz \
	OrthoOrbital Pt 13   dx2-y2 \
	OrthoOrbital Pt 14   s \
	OrthoOrbital Pt 14   p \
	OrthoOrbital Pt 14   px \
	OrthoOrbital Pt 14   py \
	OrthoOrbital Pt 14   pz \
	OrthoOrbital Pt 14   d \
	OrthoOrbital Pt 14   dxy \
	OrthoOrbital Pt 14   dyz \
	OrthoOrbital Pt 14   dz2 \
	OrthoOrbital Pt 14   dxz \
	OrthoOrbital Pt 14   dx2-y2 \
	OrthoOrbital Pt 15   s \
	OrthoOrbital Pt 15   p \
	OrthoOrbital Pt 15   px \
	OrthoOrbital Pt 15   py \
	OrthoOrbital Pt 15   pz \
	OrthoOrbital Pt 15   d \
	OrthoOrbital Pt 15   dxy \
	OrthoOrbital Pt 15   dyz \
	OrthoOrbital Pt 15   dz2 \
	OrthoOrbital Pt 15   dxz \
	OrthoOrbital Pt 15   dx2-y2 \
	OrthoOrbital Pt 16   s \
	OrthoOrbital Pt 16   p \
	OrthoOrbital Pt 16   px \
	OrthoOrbital Pt 16   py \
	OrthoOrbital Pt 16   pz \
	OrthoOrbital Pt 16   d \
	OrthoOrbital Pt 16   dxy \
	OrthoOrbital Pt 16   dyz \
	OrthoOrbital Pt 16   dz2 \
	OrthoOrbital Pt 16   dxz \
	OrthoOrbital Pt 16   dx2-y2 \
	OrthoOrbital Pt 17   s \
	OrthoOrbital Pt 17   p \
	OrthoOrbital Pt 17   px \
	OrthoOrbital Pt 17   py \
	OrthoOrbital Pt 17   pz \
	OrthoOrbital Pt 17   d \
	OrthoOrbital Pt 17   dxy \
	OrthoOrbital Pt 17   dyz \
	OrthoOrbital Pt 17   dz2 \
	OrthoOrbital Pt 17   dxz \
	OrthoOrbital Pt 17   dx2-y2 \
	OrthoOrbital Pt 18   s \
	OrthoOrbital Pt 18   p \
	OrthoOrbital Pt 18   px \
	OrthoOrbital Pt 18   py \
	OrthoOrbital Pt 18   pz \
	OrthoOrbital Pt 18   d \
	OrthoOrbital Pt 18   dxy \
	OrthoOrbital Pt 18   dyz \
	OrthoOrbital Pt 18   dz2 \
	OrthoOrbital Pt 18   dxz \
	OrthoOrbital Pt 18   dx2-y2 \
	OrthoOrbital Pt 19   s \
	OrthoOrbital Pt 19   p \
	OrthoOrbital Pt 19   px \
	OrthoOrbital Pt 19   py \
	OrthoOrbital Pt 19   pz \
	OrthoOrbital Pt 19   d \
	OrthoOrbital Pt 19   dxy \
	OrthoOrbital Pt 19   dyz \
	OrthoOrbital Pt 19   dz2 \
	OrthoOrbital Pt 19   dxz \
	OrthoOrbital Pt 19   dx2-y2
dump End ElecDensity KEdensity BandEigs EigStats RhoAtom DOS Kpoints
dump Ionic State IonicPositions Lattice EigStats Ecomponents
dump 
dump 
dump 
dump 
dump 
dump 
dump 
dump 
dump-name jdft.$VAR
elec-cutoff 20
elec-eigen-algo Davidson
elec-ex-corr gga-PBE
elec-initial-magnetization 0.000000 no
elec-n-bands 183
elec-smearing Fermi 0.001
electronic-minimize  \
	dirUpdateScheme      FletcherReeves \
	linminMethod         DirUpdateRecommended \
	nIterations          100 \
	history              15 \
	knormThreshold       0 \
	energyDiffThreshold  1e-07 \
	nEnergyDiff          2 \
	alphaTstart          1 \
	alphaTmin            1e-10 \
	updateTestStepSize   yes \
	alphaTreduceFactor   0.1 \
	alphaTincreaseFactor 3 \
	nAlphaAdjustMax      3 \
	wolfeEnergy          0.0001 \
	wolfeGradient        0.9 \
	fdTest               no
exchange-regularization WignerSeitzTruncated
fluid LinearPCM 298.000000 1.013250
fluid-anion F- 0.5 MeanFieldLJ \
	epsBulk 1 \
	pMol 0 \
	epsInf 1 \
	Pvap 0 \
	sigmaBulk 0 \
	Rvdw 2.24877 \
	Res 0 \
	tauNuc 343133
fluid-cation Na+ 0.5 MeanFieldLJ \
	epsBulk 1 \
	pMol 0 \
	epsInf 1 \
	Pvap 0 \
	sigmaBulk 0 \
	Rvdw 2.19208 \
	Res 0 \
	tauNuc 343133
fluid-ex-corr lda-TF lda-PZ
fluid-gummel-loop 10 1.000000e-05
fluid-minimize  \
	dirUpdateScheme      PolakRibiere \
	linminMethod         DirUpdateRecommended \
	nIterations          400 \
	history              15 \
	knormThreshold       1e-11 \
	energyDiffThreshold  0 \
	nEnergyDiff          2 \
	alphaTstart          1 \
	alphaTmin            1e-10 \
	updateTestStepSize   yes \
	alphaTreduceFactor   0.1 \
	alphaTincreaseFactor 3 \
	nAlphaAdjustMax      6 \
	wolfeEnergy          0.0001 \
	wolfeGradient        0.9 \
	fdTest               no
fluid-solvent H2O 55.338 ScalarEOS \
	epsBulk 78.4 \
	pMol 0.92466 \
	epsInf 1.77 \
	Pvap 1.06736e-10 \
	sigmaBulk 4.62e-05 \
	Rvdw 2.61727 \
	Res 1.42 \
	tauNuc 343133 \
	poleEl 15 7 1
forces-output-coords Positions
initial-state jdft.$VAR
ion Pt  -0.003892950890989   7.032749202405832  63.412807153313629 1
ion Pt   2.611518035153140   2.918720760483185  62.128266195828786 1
ion Pt   2.611843490312449  10.315788266545889  60.489953273529132 1
ion Pt   0.004199793994112   0.168244930480616  33.342660692068534 1
ion Pt  -0.007852300657854   6.055453917667418  58.455161383011124 1
ion Pt   2.606703448016440   1.788519787975393  56.914706698486931 1
ion Pt   2.605511934723014   9.069743896236581  55.153151400678524 1
ion Pt  -0.008088930390476   4.828461825285270  53.484325519942445 1
ion Pt   2.609794067237081   0.618872496871703  51.779891920414059 1
ion Pt   2.612602442658261   7.799893253800815  50.055372217842852 1
ion Pt  -0.000213036134200   3.601223413071514  48.378535556046664 1
ion Pt   0.003511976787164  10.805136942722626  46.700653779000255 1
ion Pt   2.621973443733872   6.583892229325288  44.976444580873832 1
ion Pt   0.007994719476295   2.372971193038122  43.270944402824277 1
ion Pt   0.010513768755393   9.535769470900959  41.603505177738917 1
ion Pt   2.625031651738157   5.412515078261598  39.842414848921784 1
ion Pt   0.008217791701669   1.146661788947069  38.303156777306270 1
ion Pt   0.004012031799805   8.288114329800178  36.266718365032091 1
ion Pt   2.620603621986648   4.283083216179944  34.628688057139776 1
ion-species /projects/musgravc/apps/jdftx-1.6.0/build/pseudopotentials/GBRV_v1.5/$ID_pbe_v1.uspp
ion-species /projects/musgravc/apps/jdftx-1.6.0/build/pseudopotentials/GBRV_v1.5/$ID_pbe_v1.2.uspp
ion-species /projects/musgravc/apps/jdftx-1.6.0/build/pseudopotentials/GBRV_v1.5/$ID_pbe_v1.4.uspp
ion-species /projects/musgravc/apps/jdftx-1.6.0/build/pseudopotentials/GBRV_v1.5/$ID_pbe_v1.5.uspp
ion-width Ecut
ionic-minimize  \
	dirUpdateScheme      L-BFGS \
	linminMethod         DirUpdateRecommended \
	nIterations          100 \
	history              15 \
	knormThreshold       0.0001 \
	energyDiffThreshold  0.0001 \
	nEnergyDiff          2 \
	alphaTstart          1 \
	alphaTmin            1e-10 \
	updateTestStepSize   yes \
	alphaTreduceFactor   0.1 \
	alphaTincreaseFactor 3 \
	nAlphaAdjustMax      3 \
	wolfeEnergy          0.0001 \
	wolfeGradient        0.9 \
	fdTest               no
kpoint   0.000000000000   0.000000000000   0.000000000000  1.00000000000000
kpoint-folding 11 5 1 
latt-move-scale 0 0 0
latt-scale 1 1 1 
lattice  \
	   5.231996000000000   -2.615997000000000    0.000000000000000  \
	   0.000000000000000   11.402868000000000    0.000000000000000  \
	   0.000000000000000    0.000000000000000   64.504367000000002 
lattice-minimize  \
	dirUpdateScheme      L-BFGS \
	linminMethod         DirUpdateRecommended \
	nIterations          0 \
	history              15 \
	knormThreshold       0 \
	energyDiffThreshold  1e-06 \
	nEnergyDiff          2 \
	alphaTstart          1 \
	alphaTmin            1e-10 \
	updateTestStepSize   yes \
	alphaTreduceFactor   0.1 \
	alphaTincreaseFactor 3 \
	nAlphaAdjustMax      3 \
	wolfeEnergy          0.0001 \
	wolfeGradient        0.9 \
	fdTest               no
lcao-params 30 1e-06 0.001
pcm-variant CANDLE
spintype z-spin
subspace-rotation-factor 1 yes
symmetries automatic
symmetry-threshold 0.0001
target-mu -0.1345 no

van-der-waals D3



---------- Setting up symmetries ----------

Found 8 point-group symmetries of the bravais lattice
Found 1 space-group symmetries with basis
Applied RMS atom displacement 0 bohrs to make symmetries exact.

---------- Initializing the Grid ----------
R = 
[        5.232       -2.616            0  ]
[            0      11.4029            0  ]
[            0            0      64.5044  ]
unit cell volume = 3848.32
G =
[    1.20092   0.275509         -0  ]
[          0   0.551018          0  ]
[          0         -0  0.0974071  ]
Minimum fftbox size, Smin = [  24  48  260  ]
Chosen fftbox size, S = [  24  48  270  ]

---------- Exchange Correlation functional ----------
Initalized PBE GGA exchange.
Initalized PBE GGA correlation.

---------- Setting up pseudopotentials ----------
Width of ionic core gaussian charges (only for fluid interactions / plotting) set to 0.397384

Reading pseudopotential file '/projects/musgravc/apps/jdftx-1.6.0/build/pseudopotentials/GBRV_v1.5/pt_pbe_v1.4.uspp':
  Title: Pt.  Created by USPP 7.3.6 on 31-3-15
  Reference state energy: -105.002503.  16 valence electrons in orbitals:
    |510>  occupation: 6  eigenvalue: -2.158104
    |520>  occupation: 9.5  eigenvalue: -0.335376
    |600>  occupation: 0  eigenvalue: -0.319640
    |610>  occupation: 0  eigenvalue: -0.122947
  lMax: 2  lLocal: 3  QijEcut: 5.5
  6 projectors sampled on a log grid with 745 points:
    l: 0  eig: -0.319640  rCut: 2.45
    l: 0  eig: 1.500000  rCut: 2.45
    l: 1  eig: -2.158104  rCut: 1.6
    l: 1  eig: -0.122947  rCut: 1.6
    l: 2  eig: -0.500000  rCut: 1.6
    l: 2  eig: -0.335375  rCut: 1.6
  Partial core density with radius 1.1
  Transforming core density to a uniform radial grid of dG=0.02 with 1284 points.
  Transforming local potential to a uniform radial grid of dG=0.02 with 1284 points.
  Transforming nonlocal projectors to a uniform radial grid of dG=0.02 with 432 points.
  Transforming density augmentations to a uniform radial grid of dG=0.02 with 1284 points.
  Transforming atomic orbitals to a uniform radial grid of dG=0.02 with 432 points.
  Core radius for overlap checks: 2.45 bohrs.

Initialized 1 species with 19 total atoms.

Folded 1 k-points by 11x5x1 to 55 k-points.

---------- Setting up k-points, bands, fillings ----------
Adding inversion symmetry to k-mesh for non-inversion-symmetric unit cell.
Reduced to 28 k-points under symmetry. 
Computing the number of bands and number of electrons
Reading initial fillings from file jdft.fillings.
nElectrons: 303.591890   nBands: 183   nStates: 56

----- Setting up reduced wavefunction bases (one per k-point) -----
average nbasis = 16439.073 , ideal nbasis = 16440.295

----- Initializing Supercell corresponding to k-point mesh -----
Lattice vector linear combinations in supercell:
[  11   0   0  ]
[   0   5   0  ]
[   0   0   1  ]
Supercell lattice vectors:
[  57.552  -13.08  0  ]
[  0  57.0143  0  ]
[  0  0  64.5044  ]

Initializing DFT-D3 calculator:
	Parameters set for gga-PBE functional
	s6:  1.000  s_r6:  1.217
	s8:  0.722  s_r8:  1.000
	Per-atom parameters loaded for:
	Pt:  sqrtQ[a0]:  5.888  Rcov[a0]:  2.116  CN: [ 0.00 1.92 6.67 ]

Initializing DFT-D2 calculator for fluid / solvation:
	Pt:  C6:  815.23 Eh-a0^6  R0: 3.326 a0 (WARNING: beyond Grimme's data set)

---------- Setting up ewald sum ----------
Optimum gaussian width for ewald sums = 3.827143 bohr.
Real space sum over 1045 unit cells with max indices [  9  5  2  ]
Reciprocal space sum over 6435 terms with max indices [  4  6  27  ]

Computing DFT-D3 correction:
# coordination-number Pt 5.974 7.094 8.567 5.971 9.213 9.398 9.497 9.518 9.561 9.557 9.571 9.557 9.560 9.520 9.499 9.399 9.213 8.564 7.093
# diagonal-C6 Pt 336.87 336.87 336.87 336.87 336.87 336.87 336.87 336.87 336.87 336.87 336.87 336.87 336.87 336.87 336.87 336.87 336.87 336.87 336.87
EvdW_6 =   -0.179045
EvdW_8 =   -0.282285

---------- Allocating electronic variables ----------
Initializing wave functions:  reading from 'jdft.wfns'
----- createFluidSolver() ----- (Fluid-side solver setup)
   Initializing fluid molecule 'H2O'
     Initializing site 'O'
       Electron density: proportional to exp(-r/0.36935)*erfc((r-0.51523)/0.36823) with norm 6.826
       Charge density: gaussian nuclear width 0.478731 with net site charge 0.826
       Polarizability: cuspless exponential with width 0.32 and norm 3.73
       Hard sphere radius: 2.57003 bohrs
       Positions in reference frame:
         [ +0.000000 +0.000000 +0.000000 ]
     Initializing site 'H'
       Electron density: proportional to exp(-r/0.34641)*erfc((r-0)/0.390882) with norm 0.587
       Charge density: gaussian nuclear width 0.377945 with net site charge -0.413
       Polarizability: cuspless exponential with width 0.39 and norm 3.3
       Positions in reference frame:
         [ +0.000000 -1.441945 +1.122523 ]
         [ +0.000000 +1.441945 +1.122523 ]
     Net charge: 0   dipole magnitude: 0.927204
     Initializing spherical shell mfKernel with radius 2.61727 Bohr
     deltaS corrections:
       site 'O': -7.54299
       site 'H': -6.83917
   Initializing fluid molecule 'Na+'
     Initializing site 'Na'
       Electron density: proportional to exp(-r/0.19682)*erfc((r-0.71491)/0.41314) with norm 8.1383
       Charge density: gaussian nuclear width 0.365347 with net site charge -1
       Hard sphere radius: 1.86327 bohrs
       Positions in reference frame:
         [ +0.000000 +0.000000 +0.000000 ]
     Net charge: -1   dipole magnitude: 0
     Initializing gaussian mfKernel with width: 1.55004 Bohr
     deltaS corrections:
       site 'Na': -22.3555
   Initializing fluid molecule 'F-'
     Initializing site 'F'
       Electron density: proportional to exp(-r/0.38886)*erfc((r-0)/0.438782) with norm 8
       Charge density: gaussian nuclear width 0.374796 with net site charge 1
       Hard sphere radius: 2.39995 bohrs
       Positions in reference frame:
         [ +0.000000 +0.000000 +0.000000 ]
     Net charge: 1   dipole magnitude: 0
     Initializing gaussian mfKernel with width: 1.59012 Bohr
     deltaS corrections:
       site 'F': -9.04335

Correction to mu due to finite nuclear width = -0.0783795
   Cavity determined by nc: 0.00142 and sigma: 0.707107
   Nonlocal vdW cavity from gaussian model electron density with norm = 8 and sigma = 0.993594 bohr
   Charge asymmetry in cavity with sensitivity pCavity = 36.5 e-bohr/Eh
   Electrostatic cavity expanded by eta = 1.46 bohrs
   Weighted density cavitation model constrained by Nbulk: 0.0049383 bohr^-3, Pvap: 3.14029 kPa, Rvdw: 2.61727 bohr and sigmaBulk: 4.62e-05 Eh/bohr^2 at T: 298 K.
   Weighted density dispersion model using vdW pair potentials with single solvent site with sqrtC6eff: 0.77 SI.
Reading fluid state from 'jdft.fluidState'


---- Citations for features of the code used in this run ----

   Software package:
      R. Sundararaman, K. Letchworth-Weaver, K.A. Schwarz, D. Gunceler, Y. Ozhabes and T.A. Arias, 'JDFTx: software for joint density-functional theory', SoftwareX 6, 278 (2017)

   gga-PBE exchange-correlation functional:
      J.P. Perdew, K. Burke and M. Ernzerhof, Phys. Rev. Lett. 77, 3865 (1996)

   Pseudopotentials:
      KF Garrity, JW Bennett, KM Rabe and D Vanderbilt, Comput. Mater. Sci. 81, 446 (2014)

   DFT-D3 dispersion correction:
      S. Grimme, J. Antony, S. Ehrlich and H. Krieg, J. Chem. Phys. 132, 154104 (2010)

   DFT-D2 dispersion correction:
      S. Grimme, J. Comput. Chem. 27, 1787 (2006)

   Charge-asymmetric nonlocally-determined local-electric (CANDLE) solvation model:
      R. Sundararaman and W.A. Goddard III, J. Chem. Phys. 142, 064107 (2015)

   Total energy minimization with Auxiliary Hamiltonian:
      C. Freysoldt, S. Boeck, and J. Neugebauer, Phys. Rev. B 79, 241103(R) (2009)

   Grand-canonical (fixed-potential) DFT:
      R. Sundararaman, W. A. Goddard III and T. A. Arias, J. Chem. Phys. 146, 114104 (2017)

   Linear-tetrahedron sampling for density of states:
      G. Lehmann and M. Taut, Phys. status solidi (b) 54, 469 (1972)

This list may not be complete. Please suggest additional citations or
report any other bugs at https://github.com/shankar1729/jdftx/issues

Initialization completed successfully at t[s]:     13.78


Computing DFT-D3 correction:
# coordination-number Pt 5.974 7.094 8.567 5.971 9.213 9.398 9.497 9.518 9.561 9.557 9.571 9.557 9.560 9.520 9.499 9.399 9.213 8.564 7.093
# diagonal-C6 Pt 336.87 336.87 336.87 336.87 336.87 336.87 336.87 336.87 336.87 336.87 336.87 336.87 336.87 336.87 336.87 336.87 336.87 336.87 336.87
EvdW_6 =   -0.179045
EvdW_8 =   -0.282285
Shifting auxilliary hamiltonian by 0.110349 to set nElectrons=303.591890

-------- Electronic minimization -----------
	Linear fluid (dielectric constant: 78.4, screening length: 8.12261 Bohr) occupying 0.381012 of unit cell:	Completed after 26 iterations at t[s]:     30.98
	FillingsUpdate:  mu: -0.134500000  nElectrons: 303.591890  magneticMoment: [ Abs: 0.00033  Tot: -0.00032 ]
ElecMinimize: Iter:   0  G: -1649.327047285993331  |grad|_K:  9.109e-05  alpha:  1.000e+00
	Linear fluid (dielectric constant: 78.4, screening length: 8.12261 Bohr) occupying 0.426800 of unit cell:	Completed after 33 iterations at t[s]:     99.81
	Linear fluid (dielectric constant: 78.4, screening length: 8.12261 Bohr) occupying 0.417192 of unit cell:	Completed after 46 iterations at t[s]:    126.61
ElecMinimize: 	Step increased G by 4.849486e-01, reducing alpha to 5.782900e-03.
	Linear fluid (dielectric constant: 78.4, screening length: 8.12261 Bohr) occupying 0.380910 of unit cell:	Completed after 30 iterations at t[s]:    184.90
	FillingsUpdate:  mu: -0.134500000  nElectrons: 303.731068  magneticMoment: [ Abs: 0.00033  Tot: -0.00032 ]
	SubspaceRotationAdjust: set factor to 0.583
ElecMinimize: Iter:   1  G: -1649.335607953349609  |grad|_K:  1.695e-04  alpha:  5.783e-03  linmin: -6.400e-04  t[s]:    219.40
	Linear fluid (dielectric constant: 78.4, screening length: 8.12261 Bohr) occupying 0.380523 of unit cell:	Completed after 27 iterations at t[s]:    249.38
	Linear fluid (dielectric constant: 78.4, screening length: 8.12261 Bohr) occupying 0.379927 of unit cell:	Completed after 26 iterations at t[s]:    273.94
	FillingsUpdate:  mu: -0.134500000  nElectrons: 303.702034  magneticMoment: [ Abs: 0.00031  Tot: -0.00030 ]
	SubspaceRotationAdjust: set factor to 0.322
ElecMinimize: Iter:   2  G: -1649.406746987755241  |grad|_K:  1.542e-04  alpha:  1.485e-02  linmin:  1.933e-03  t[s]:    308.54
	Linear fluid (dielectric constant: 78.4, screening length: 8.12261 Bohr) occupying 0.381731 of unit cell:	Completed after 28 iterations at t[s]:    338.79
	Linear fluid (dielectric constant: 78.4, screening length: 8.12261 Bohr) occupying 0.379785 of unit cell:	Completed after 26 iterations at t[s]:    363.35
	FillingsUpdate:  mu: -0.134500000  nElectrons: 304.010802  magneticMoment: [ Abs: 0.00030  Tot: -0.00029 ]
	SubspaceRotationAdjust: set factor to 0.179
ElecMinimize: Iter:   3  G: -1649.439484593233828  |grad|_K:  1.351e-04  alpha:  9.157e-03  linmin:  3.027e-04  t[s]:    398.15
	Linear fluid (dielectric constant: 78.4, screening length: 8.12261 Bohr) occupying 0.378868 of unit cell:	Completed after 27 iterations at t[s]:    428.24
	Linear fluid (dielectric constant: 78.4, screening length: 8.12261 Bohr) occupying 0.378866 of unit cell:	Completed after 17 iterations at t[s]:    451.70
	FillingsUpdate:  mu: -0.134500000  nElectrons: 303.932142  magneticMoment: [ Abs: 0.00029  Tot: -0.00028 ]
	SubspaceRotationAdjust: set factor to 0.105
	SubspaceRotationAdjust: resetting CG because factor has changed by 0.105315
	Linear fluid (dielectric constant: 78.4, screening length: 8.12261 Bohr) occupying 0.378866 of unit cell:	Completed after 0 iterations at t[s]:    499.26
ElecMinimize: 	State modified externally: resetting search direction.
ElecMinimize: Iter:   4  G: -1649.467676646902873  |grad|_K:  5.506e-05  alpha:  9.232e-03
	Linear fluid (dielectric constant: 78.4, screening length: 8.12261 Bohr) occupying 0.378938 of unit cell:	Completed after 24 iterations at t[s]:    563.71
ElecMinimize: 	Predicted alpha/alphaT>3.000000, increasing alphaT to 2.769724e-02.
	Linear fluid (dielectric constant: 78.4, screening length: 8.12261 Bohr) occupying 0.379348 of unit cell:	Completed after 25 iterations at t[s]:    588.20
	Linear fluid (dielectric constant: 78.4, screening length: 8.12261 Bohr) occupying 0.380885 of unit cell:	Completed after 25 iterations at t[s]:    612.72
	FillingsUpdate:  mu: -0.134500000  nElectrons: 304.168573  magneticMoment: [ Abs: 0.00029  Tot: -0.00028 ]
	SubspaceRotationAdjust: set factor to 0.063
ElecMinimize: Iter:   5  G: -1649.492203389830820  |grad|_K:  8.192e-05  alpha:  4.696e-02  linmin: -3.621e-03  t[s]:    647.57
	Linear fluid (dielectric constant: 78.4, screening length: 8.12261 Bohr) occupying 0.380592 of unit cell:	Completed after 28 iterations at t[s]:    677.81
	Linear fluid (dielectric constant: 78.4, screening length: 8.12261 Bohr) occupying 0.380738 of unit cell:	Completed after 24 iterations at t[s]:    702.15
	FillingsUpdate:  mu: -0.134500000  nElectrons: 304.092183  magneticMoment: [ Abs: 0.00030  Tot: -0.00029 ]
	SubspaceRotationAdjust: set factor to 0.0283
ElecMinimize: Iter:   6  G: -1649.553442051879529  |grad|_K:  3.813e-05  alpha:  5.204e-02  linmin:  5.434e-03  t[s]:    736.92
	Linear fluid (dielectric constant: 78.4, screening length: 8.12261 Bohr) occupying 0.381771 of unit cell:	Completed after 25 iterations at t[s]:    766.95
	Linear fluid (dielectric constant: 78.4, screening length: 8.12261 Bohr) occupying 0.382853 of unit cell:	Completed after 25 iterations at t[s]:    791.46
	FillingsUpdate:  mu: -0.134500000  nElectrons: 304.242167  magneticMoment: [ Abs: 0.00030  Tot: -0.00029 ]
	SubspaceRotationAdjust: set factor to 0.0182
ElecMinimize: Iter:   7  G: -1649.571155833036300  |grad|_K:  2.843e-05  alpha:  7.427e-02  linmin: -2.703e-03  t[s]:    826.24
	Linear fluid (dielectric constant: 78.4, screening length: 8.12261 Bohr) occupying 0.379567 of unit cell:	Completed after 25 iterations at t[s]:    856.16
	Linear fluid (dielectric constant: 78.4, screening length: 8.12261 Bohr) occupying 0.378588 of unit cell:	Completed after 24 iterations at t[s]:    880.49
	FillingsUpdate:  mu: -0.134500000  nElectrons: 304.127303  magneticMoment: [ Abs: 0.00030  Tot: -0.00029 ]
	SubspaceRotationAdjust: set factor to 0.0109
	SubspaceRotationAdjust: resetting CG because factor has changed by 0.103158
	Linear fluid (dielectric constant: 78.4, screening length: 8.12261 Bohr) occupying 0.378588 of unit cell:	Completed after 0 iterations at t[s]:    928.16
ElecMinimize: 	State modified externally: resetting search direction.
ElecMinimize: Iter:   8  G: -1649.586973090019455  |grad|_K:  1.309e-05  alpha:  1.142e-01
	Linear fluid (dielectric constant: 78.4, screening length: 8.12261 Bohr) occupying 0.378649 of unit cell:	Completed after 24 iterations at t[s]:    992.51
	Linear fluid (dielectric constant: 78.4, screening length: 8.12261 Bohr) occupying 0.378929 of unit cell:	Completed after 24 iterations at t[s]:   1016.83
	FillingsUpdate:  mu: -0.134500000  nElectrons: 304.173843  magneticMoment: [ Abs: 0.00030  Tot: -0.00029 ]
	SubspaceRotationAdjust: set factor to 0.0104
ElecMinimize: Iter:   9  G: -1649.595038558641136  |grad|_K:  8.694e-06  alpha:  2.771e-01  linmin: -1.370e-03  t[s]:   1051.62
	Linear fluid (dielectric constant: 78.4, screening length: 8.12261 Bohr) occupying 0.376480 of unit cell:	Completed after 24 iterations at t[s]:   1081.36
	Linear fluid (dielectric constant: 78.4, screening length: 8.12261 Bohr) occupying 0.377223 of unit cell:	Completed after 23 iterations at t[s]:   1105.49
	FillingsUpdate:  mu: -0.134500000  nElectrons: 304.122961  magneticMoment: [ Abs: 0.00030  Tot: -0.00029 ]
	SubspaceRotationAdjust: set factor to 0.0064
ElecMinimize: Iter:  10  G: -1649.597326402955559  |grad|_K:  5.098e-06  alpha:  1.770e-01  linmin:  5.062e-05  t[s]:   1140.26
	Linear fluid (dielectric constant: 78.4, screening length: 8.12261 Bohr) occupying 0.376901 of unit cell:	Completed after 22 iterations at t[s]:   1169.72
	Linear fluid (dielectric constant: 78.4, screening length: 8.12261 Bohr) occupying 0.376379 of unit cell:	Completed after 22 iterations at t[s]:   1193.77
	FillingsUpdate:  mu: -0.134500000  nElectrons: 304.145070  magneticMoment: [ Abs: 0.00030  Tot: -0.00029 ]
	SubspaceRotationAdjust: set factor to 0.00738
ElecMinimize: Iter:  11  G: -1649.599442659521856  |grad|_K:  3.477e-06  alpha:  4.806e-01  linmin:  1.197e-03  t[s]:   1228.49
	Linear fluid (dielectric constant: 78.4, screening length: 8.12261 Bohr) occupying 0.375656 of unit cell:	Completed after 19 iterations at t[s]:   1257.62
	Linear fluid (dielectric constant: 78.4, screening length: 8.12261 Bohr) occupying 0.375489 of unit cell:	Completed after 16 iterations at t[s]:   1280.98
	FillingsUpdate:  mu: -0.134500000  nElectrons: 304.166574  magneticMoment: [ Abs: 0.00030  Tot: -0.00029 ]
	SubspaceRotationAdjust: set factor to 0.00863
ElecMinimize: Iter:  12  G: -1649.600656023301099  |grad|_K:  2.690e-06  alpha:  5.956e-01  linmin:  1.997e-03  t[s]:   1315.74
	Linear fluid (dielectric constant: 78.4, screening length: 8.12261 Bohr) occupying 0.374631 of unit cell:	Completed after 21 iterations at t[s]:   1345.14
	Linear fluid (dielectric constant: 78.4, screening length: 8.12261 Bohr) occupying 0.374695 of unit cell:	Completed after 13 iterations at t[s]:   1368.03
	FillingsUpdate:  mu: -0.134500000  nElectrons: 304.176783  magneticMoment: [ Abs: 0.00030  Tot: -0.00029 ]
	SubspaceRotationAdjust: set factor to 0.00986
ElecMinimize: Iter:  13  G: -1649.601322873235404  |grad|_K:  2.309e-06  alpha:  5.513e-01  linmin:  1.267e-03  t[s]:   1402.83
	Linear fluid (dielectric constant: 78.4, screening length: 8.12261 Bohr) occupying 0.375208 of unit cell:	Completed after 19 iterations at t[s]:   1432.00
	Linear fluid (dielectric constant: 78.4, screening length: 8.12261 Bohr) occupying 0.375012 of unit cell:	Completed after 16 iterations at t[s]:   1455.36
	FillingsUpdate:  mu: -0.134500000  nElectrons: 304.204906  magneticMoment: [ Abs: 0.00030  Tot: -0.00029 ]
	SubspaceRotationAdjust: set factor to 0.00764
ElecMinimize: Iter:  14  G: -1649.601655611733349  |grad|_K:  2.619e-06  alpha:  3.753e-01  linmin:  4.942e-04  t[s]:   1490.20
	Linear fluid (dielectric constant: 78.4, screening length: 8.12261 Bohr) occupying 0.374369 of unit cell:	Completed after 19 iterations at t[s]:   1519.28
	Linear fluid (dielectric constant: 78.4, screening length: 8.12261 Bohr) occupying 0.374335 of unit cell:	Completed after 12 iterations at t[s]:   1542.10
	FillingsUpdate:  mu: -0.134500000  nElectrons: 304.205836  magneticMoment: [ Abs: 0.00030  Tot: -0.00029 ]
	SubspaceRotationAdjust: set factor to 0.00729
ElecMinimize: Iter:  15  G: -1649.602108223034520  |grad|_K:  2.215e-06  alpha:  3.946e-01  linmin:  7.178e-04  t[s]:   1576.86
	Linear fluid (dielectric constant: 78.4, screening length: 8.12261 Bohr) occupying 0.374416 of unit cell:	Completed after 18 iterations at t[s]:   1605.83
	Linear fluid (dielectric constant: 78.4, screening length: 8.12261 Bohr) occupying 0.374517 of unit cell:	Completed after 19 iterations at t[s]:   1629.48
	FillingsUpdate:  mu: -0.134500000  nElectrons: 304.231246  magneticMoment: [ Abs: 0.00030  Tot: -0.00029 ]
	SubspaceRotationAdjust: set factor to 0.00791
ElecMinimize: Iter:  16  G: -1649.602807685684866  |grad|_K:  2.386e-06  alpha:  8.549e-01  linmin:  2.223e-04  t[s]:   1664.18
	Linear fluid (dielectric constant: 78.4, screening length: 8.12261 Bohr) occupying 0.374817 of unit cell:	Completed after 18 iterations at t[s]:   1693.13
	Linear fluid (dielectric constant: 78.4, screening length: 8.12261 Bohr) occupying 0.374853 of unit cell:	Completed after 9 iterations at t[s]:   1715.43
	FillingsUpdate:  mu: -0.134500000  nElectrons: 304.249226  magneticMoment: [ Abs: 0.00029  Tot: -0.00028 ]
	SubspaceRotationAdjust: set factor to 0.00852
ElecMinimize: Iter:  17  G: -1649.603743185807389  |grad|_K:  2.828e-06  alpha:  9.768e-01  linmin: -5.125e-04  t[s]:   1750.17
	Linear fluid (dielectric constant: 78.4, screening length: 8.12261 Bohr) occupying 0.375690 of unit cell:	Completed after 19 iterations at t[s]:   1779.33
	Linear fluid (dielectric constant: 78.4, screening length: 8.12261 Bohr) occupying 0.375645 of unit cell:	Completed after 10 iterations at t[s]:   1801.74
	FillingsUpdate:  mu: -0.134500000  nElectrons: 304.269232  magneticMoment: [ Abs: 0.00028  Tot: -0.00028 ]
	SubspaceRotationAdjust: set factor to 0.0091
ElecMinimize: Iter:  18  G: -1649.605011258718605  |grad|_K:  3.196e-06  alpha:  9.169e-01  linmin: -1.183e-03  t[s]:   1836.64
	Linear fluid (dielectric constant: 78.4, screening length: 8.12261 Bohr) occupying 0.375806 of unit cell:	Completed after 22 iterations at t[s]:   1866.09
	Linear fluid (dielectric constant: 78.4, screening length: 8.12261 Bohr) occupying 0.375804 of unit cell:	Completed after 14 iterations at t[s]:   1889.11
	FillingsUpdate:  mu: -0.134500000  nElectrons: 304.273616  magneticMoment: [ Abs: 0.00028  Tot: -0.00027 ]
	SubspaceRotationAdjust: set factor to 0.00937
ElecMinimize: Iter:  19  G: -1649.606478006192219  |grad|_K:  3.691e-06  alpha:  7.996e-01  linmin: -9.292e-04  t[s]:   1923.83
	Linear fluid (dielectric constant: 78.4, screening length: 8.12261 Bohr) occupying 0.378920 of unit cell:	Completed after 19 iterations at t[s]:   1952.93
	Linear fluid (dielectric constant: 78.4, screening length: 8.12261 Bohr) occupying 0.377563 of unit cell:	Completed after 18 iterations at t[s]:   1976.50
	FillingsUpdate:  mu: -0.134500000  nElectrons: 304.314169  magneticMoment: [ Abs: 0.00027  Tot: -0.00026 ]
	SubspaceRotationAdjust: set factor to 0.00778
ElecMinimize: Iter:  20  G: -1649.607602819948397  |grad|_K:  4.493e-06  alpha:  4.633e-01  linmin: -4.160e-04  t[s]:   2011.31
	Linear fluid (dielectric constant: 78.4, screening length: 8.12261 Bohr) occupying 0.376327 of unit cell:	Completed after 19 iterations at t[s]:   2040.31
	Linear fluid (dielectric constant: 78.4, screening length: 8.12261 Bohr) occupying 0.376627 of unit cell:	Completed after 16 iterations at t[s]:   2063.56
	FillingsUpdate:  mu: -0.134500000  nElectrons: 304.305170  magneticMoment: [ Abs: 0.00026  Tot: -0.00025 ]
	SubspaceRotationAdjust: set factor to 0.0063
ElecMinimize: Iter:  21  G: -1649.608857463496861  |grad|_K:  3.444e-06  alpha:  3.533e-01  linmin: -5.285e-04  t[s]:   2098.33
	Linear fluid (dielectric constant: 78.4, screening length: 8.12261 Bohr) occupying 0.376845 of unit cell:	Completed after 18 iterations at t[s]:   2127.32
	Linear fluid (dielectric constant: 78.4, screening length: 8.12261 Bohr) occupying 0.377049 of unit cell:	Completed after 19 iterations at t[s]:   2150.98
	FillingsUpdate:  mu: -0.134500000  nElectrons: 304.329505  magneticMoment: [ Abs: 0.00025  Tot: -0.00025 ]
	SubspaceRotationAdjust: set factor to 0.00729
ElecMinimize: Iter:  22  G: -1649.610205608516935  |grad|_K:  3.075e-06  alpha:  6.464e-01  linmin: -3.493e-04  t[s]:   2185.72
	Linear fluid (dielectric constant: 78.4, screening length: 8.12261 Bohr) occupying 0.377550 of unit cell:	Completed after 21 iterations at t[s]:   2215.11
	Linear fluid (dielectric constant: 78.4, screening length: 8.12261 Bohr) occupying 0.377574 of unit cell:	Completed after 12 iterations at t[s]:   2237.83
	FillingsUpdate:  mu: -0.134500000  nElectrons: 304.356505  magneticMoment: [ Abs: 0.00025  Tot: -0.00024 ]
	SubspaceRotationAdjust: set factor to 0.00776
ElecMinimize: Iter:  23  G: -1649.611306747080107  |grad|_K:  3.041e-06  alpha:  6.736e-01  linmin: -3.726e-05  t[s]:   2272.59
	Linear fluid (dielectric constant: 78.4, screening length: 8.12261 Bohr) occupying 0.375865 of unit cell:	Completed after 19 iterations at t[s]:   2301.71
	Linear fluid (dielectric constant: 78.4, screening length: 8.12261 Bohr) occupying 0.376352 of unit cell:	Completed after 17 iterations at t[s]:   2325.11
	FillingsUpdate:  mu: -0.134500000  nElectrons: 304.350045  magneticMoment: [ Abs: 0.00024  Tot: -0.00023 ]
	SubspaceRotationAdjust: set factor to 0.00692
ElecMinimize: Iter:  24  G: -1649.612066934071891  |grad|_K:  3.284e-06  alpha:  4.835e-01  linmin: -4.195e-05  t[s]:   2359.93
	Linear fluid (dielectric constant: 78.4, screening length: 8.12261 Bohr) occupying 0.377399 of unit cell:	Completed after 19 iterations at t[s]:   2389.06
	Linear fluid (dielectric constant: 78.4, screening length: 8.12261 Bohr) occupying 0.377190 of unit cell:	Completed after 15 iterations at t[s]:   2412.26
	FillingsUpdate:  mu: -0.134500000  nElectrons: 304.379292  magneticMoment: [ Abs: 0.00024  Tot: -0.00023 ]
	SubspaceRotationAdjust: set factor to 0.00601
ElecMinimize: Iter:  25  G: -1649.612778533681194  |grad|_K:  2.692e-06  alpha:  3.889e-01  linmin: -6.776e-05  t[s]:   2446.97
	Linear fluid (dielectric constant: 78.4, screening length: 8.12261 Bohr) occupying 0.376884 of unit cell:	Completed after 17 iterations at t[s]:   2475.54
	Linear fluid (dielectric constant: 78.4, screening length: 8.12261 Bohr) occupying 0.376585 of unit cell:	Completed after 17 iterations at t[s]:   2499.00
	FillingsUpdate:  mu: -0.134500000  nElectrons: 304.389130  magneticMoment: [ Abs: 0.00023  Tot: -0.00022 ]
	SubspaceRotationAdjust: set factor to 0.00667
ElecMinimize: Iter:  26  G: -1649.613661140713930  |grad|_K:  2.525e-06  alpha:  7.174e-01  linmin: -5.464e-05  t[s]:   2534.53
	Linear fluid (dielectric constant: 78.4, screening length: 8.12261 Bohr) occupying 0.375744 of unit cell:	Completed after 18 iterations at t[s]:   2563.26
	Linear fluid (dielectric constant: 78.4, screening length: 8.12261 Bohr) occupying 0.375798 of unit cell:	Completed after 13 iterations at t[s]:   2586.30
	FillingsUpdate:  mu: -0.134500000  nElectrons: 304.393305  magneticMoment: [ Abs: 0.00022  Tot: -0.00021 ]
	SubspaceRotationAdjust: set factor to 0.00702
ElecMinimize: Iter:  27  G: -1649.614393636876002  |grad|_K:  2.479e-06  alpha:  6.759e-01  linmin: -7.480e-05  t[s]:   2621.16
	Linear fluid (dielectric constant: 78.4, screening length: 8.12261 Bohr) occupying 0.376888 of unit cell:	Completed after 18 iterations at t[s]:   2650.28
	Linear fluid (dielectric constant: 78.4, screening length: 8.12261 Bohr) occupying 0.376605 of unit cell:	Completed after 15 iterations at t[s]:   2673.52
	FillingsUpdate:  mu: -0.134500000  nElectrons: 304.417169  magneticMoment: [ Abs: 0.00022  Tot: -0.00021 ]
	SubspaceRotationAdjust: set factor to 0.00626
ElecMinimize: Iter:  28  G: -1649.614907464625503  |grad|_K:  2.571e-06  alpha:  4.953e-01  linmin: -1.569e-04  t[s]:   2708.17
	Linear fluid (dielectric constant: 78.4, screening length: 8.12261 Bohr) occupying 0.375595 of unit cell:	Completed after 19 iterations at t[s]:   2737.49
	Linear fluid (dielectric constant: 78.4, screening length: 8.12261 Bohr) occupying 0.375729 of unit cell:	Completed after 14 iterations at t[s]:   2760.67
	FillingsUpdate:  mu: -0.134500000  nElectrons: 304.414343  magneticMoment: [ Abs: 0.00021  Tot: -0.00020 ]
	SubspaceRotationAdjust: set factor to 0.00578
ElecMinimize: Iter:  29  G: -1649.615398022500813  |grad|_K:  2.071e-06  alpha:  4.326e-01  linmin: -1.197e-05  t[s]:   2795.37
	Linear fluid (dielectric constant: 78.4, screening length: 8.12261 Bohr) occupying 0.376097 of unit cell:	Completed after 16 iterations at t[s]:   2824.28
	Linear fluid (dielectric constant: 78.4, screening length: 8.12261 Bohr) occupying 0.376262 of unit cell:	Completed after 15 iterations at t[s]:   2847.53
	FillingsUpdate:  mu: -0.134500000  nElectrons: 304.431533  magneticMoment: [ Abs: 0.00021  Tot: -0.00020 ]
	SubspaceRotationAdjust: set factor to 0.00661
ElecMinimize: Iter:  30  G: -1649.615863974486956  |grad|_K:  1.813e-06  alpha:  6.395e-01  linmin: -1.668e-04  t[s]:   2882.40
	Linear fluid (dielectric constant: 78.4, screening length: 8.12261 Bohr) occupying 0.377018 of unit cell:	Completed after 19 iterations at t[s]:   2911.67
	Linear fluid (dielectric constant: 78.4, screening length: 8.12261 Bohr) occupying 0.377069 of unit cell:	Completed after 11 iterations at t[s]:   2934.26
	FillingsUpdate:  mu: -0.134500000  nElectrons: 304.449984  magneticMoment: [ Abs: 0.00021  Tot: -0.00020 ]
	SubspaceRotationAdjust: set factor to 0.0075
ElecMinimize: Iter:  31  G: -1649.616247686620454  |grad|_K:  1.769e-06  alpha:  6.841e-01  linmin: -4.457e-05  t[s]:   2969.08
	Linear fluid (dielectric constant: 78.4, screening length: 8.12261 Bohr) occupying 0.377326 of unit cell:	Completed after 17 iterations at t[s]:   2997.76
	Linear fluid (dielectric constant: 78.4, screening length: 8.12261 Bohr) occupying 0.377289 of unit cell:	Completed after 14 iterations at t[s]:   3020.88
	FillingsUpdate:  mu: -0.134500000  nElectrons: 304.458047  magneticMoment: [ Abs: 0.00020  Tot: -0.00019 ]
	SubspaceRotationAdjust: set factor to 0.00737
ElecMinimize: Iter:  32  G: -1649.616553437213952  |grad|_K:  1.888e-06  alpha:  5.750e-01  linmin:  5.663e-05  t[s]:   3055.64
	Linear fluid (dielectric constant: 78.4, screening length: 8.12261 Bohr) occupying 0.379735 of unit cell:	Completed after 19 iterations at t[s]:   3084.74
	Linear fluid (dielectric constant: 78.4, screening length: 8.12261 Bohr) occupying 0.379048 of unit cell:	Completed after 16 iterations at t[s]:   3108.01
	FillingsUpdate:  mu: -0.134500000  nElectrons: 304.486700  magneticMoment: [ Abs: 0.00020  Tot: -0.00019 ]
	SubspaceRotationAdjust: set factor to 0.00646
ElecMinimize: Iter:  33  G: -1649.616801488443571  |grad|_K:  1.731e-06  alpha:  4.135e-01  linmin:  1.347e-05  t[s]:   3142.85
	Linear fluid (dielectric constant: 78.4, screening length: 8.12261 Bohr) occupying 0.379785 of unit cell:	Completed after 15 iterations at t[s]:   3171.52
	Linear fluid (dielectric constant: 78.4, screening length: 8.12261 Bohr) occupying 0.380093 of unit cell:	Completed after 15 iterations at t[s]:   3194.86
	FillingsUpdate:  mu: -0.134500000  nElectrons: 304.505822  magneticMoment: [ Abs: 0.00020  Tot: -0.00019 ]
	SubspaceRotationAdjust: set factor to 0.00655
ElecMinimize: Iter:  34  G: -1649.617100437909357  |grad|_K:  1.595e-06  alpha:  5.899e-01  linmin:  1.454e-04  t[s]:   3229.70
	Linear fluid (dielectric constant: 78.4, screening length: 8.12261 Bohr) occupying 0.381558 of unit cell:	Completed after 19 iterations at t[s]:   3258.71
	Linear fluid (dielectric constant: 78.4, screening length: 8.12261 Bohr) occupying 0.381815 of unit cell:	Completed after 15 iterations at t[s]:   3281.99
	FillingsUpdate:  mu: -0.134500000  nElectrons: 304.534465  magneticMoment: [ Abs: 0.00019  Tot: -0.00018 ]
	SubspaceRotationAdjust: set factor to 0.00709
ElecMinimize: Iter:  35  G: -1649.617397795331044  |grad|_K:  1.456e-06  alpha:  6.944e-01  linmin:  1.001e-04  t[s]:   3316.80
	Linear fluid (dielectric constant: 78.4, screening length: 8.12261 Bohr) occupying 0.383786 of unit cell:	Completed after 19 iterations at t[s]:   3345.87
	Linear fluid (dielectric constant: 78.4, screening length: 8.12261 Bohr) occupying 0.383664 of unit cell:	Completed after 14 iterations at t[s]:   3368.80
	FillingsUpdate:  mu: -0.134500000  nElectrons: 304.564339  magneticMoment: [ Abs: 0.00019  Tot: -0.00018 ]
	SubspaceRotationAdjust: set factor to 0.00706
ElecMinimize: Iter:  36  G: -1649.617630616115775  |grad|_K:  1.409e-06  alpha:  6.510e-01  linmin:  3.454e-05  t[s]:   3403.66
	Linear fluid (dielectric constant: 78.4, screening length: 8.12261 Bohr) occupying 0.384407 of unit cell:	Completed after 18 iterations at t[s]:   3432.74
	Linear fluid (dielectric constant: 78.4, screening length: 8.12261 Bohr) occupying 0.384189 of unit cell:	Completed after 15 iterations at t[s]:   3455.74
	FillingsUpdate:  mu: -0.134500000  nElectrons: 304.574752  magneticMoment: [ Abs: 0.00019  Tot: -0.00018 ]
	SubspaceRotationAdjust: set factor to 0.00598
ElecMinimize: Iter:  37  G: -1649.617784081923219  |grad|_K:  1.329e-06  alpha:  4.567e-01  linmin:  1.822e-05  t[s]:   3490.60
	Linear fluid (dielectric constant: 78.4, screening length: 8.12261 Bohr) occupying 0.385683 of unit cell:	Completed after 19 iterations at t[s]:   3519.80
	Linear fluid (dielectric constant: 78.4, screening length: 8.12261 Bohr) occupying 0.385532 of unit cell:	Completed after 14 iterations at t[s]:   3542.89
	FillingsUpdate:  mu: -0.134500000  nElectrons: 304.596457  magneticMoment: [ Abs: 0.00019  Tot: -0.00018 ]
	SubspaceRotationAdjust: set factor to 0.00537
ElecMinimize: Iter:  38  G: -1649.617906579026794  |grad|_K:  9.774e-07  alpha:  4.100e-01  linmin: -9.847e-06  t[s]:   3577.54
	Linear fluid (dielectric constant: 78.4, screening length: 8.12261 Bohr) occupying 0.385985 of unit cell:	Completed after 10 iterations at t[s]:   3605.49
	Linear fluid (dielectric constant: 78.4, screening length: 8.12261 Bohr) occupying 0.386166 of unit cell:	Completed after 9 iterations at t[s]:   3627.97
	FillingsUpdate:  mu: -0.134500000  nElectrons: 304.607889  magneticMoment: [ Abs: 0.00019  Tot: -0.00018 ]
	SubspaceRotationAdjust: set factor to 0.00593
ElecMinimize: Iter:  39  G: -1649.617999846467910  |grad|_K:  7.908e-07  alpha:  5.762e-01  linmin: -1.989e-05  t[s]:   3662.92
	Linear fluid (dielectric constant: 78.4, screening length: 8.12261 Bohr) occupying 0.386437 of unit cell:	Completed after 15 iterations at t[s]:   3691.41
	Linear fluid (dielectric constant: 78.4, screening length: 8.12261 Bohr) occupying 0.386433 of unit cell:	Completed after 2 iterations at t[s]:   3712.96
	FillingsUpdate:  mu: -0.134500000  nElectrons: 304.613474  magneticMoment: [ Abs: 0.00019  Tot: -0.00018 ]
	SubspaceRotationAdjust: set factor to 0.00633
ElecMinimize: Iter:  40  G: -1649.618060050167742  |grad|_K:  6.913e-07  alpha:  5.680e-01  linmin: -4.608e-05  t[s]:   3747.79
	Linear fluid (dielectric constant: 78.4, screening length: 8.12261 Bohr) occupying 0.386982 of unit cell:	Completed after 15 iterations at t[s]:   3776.46
	Linear fluid (dielectric constant: 78.4, screening length: 8.12261 Bohr) occupying 0.386877 of unit cell:	Completed after 14 iterations at t[s]:   3799.36
	FillingsUpdate:  mu: -0.134500000  nElectrons: 304.621072  magneticMoment: [ Abs: 0.00018  Tot: -0.00017 ]
	SubspaceRotationAdjust: set factor to 0.006
ElecMinimize: Iter:  41  G: -1649.618097203850311  |grad|_K:  6.237e-07  alpha:  4.587e-01  linmin: -9.825e-05  t[s]:   3834.19
	Linear fluid (dielectric constant: 78.4, screening length: 8.12261 Bohr) occupying 0.386816 of unit cell:	Completed after 15 iterations at t[s]:   3862.79
	Linear fluid (dielectric constant: 78.4, screening length: 8.12261 Bohr) occupying 0.386810 of unit cell:	Completed after 12 iterations at t[s]:   3885.69
	FillingsUpdate:  mu: -0.134500000  nElectrons: 304.621259  magneticMoment: [ Abs: 0.00018  Tot: -0.00017 ]
	SubspaceRotationAdjust: set factor to 0.00633
ElecMinimize: Iter:  42  G: -1649.618130415878341  |grad|_K:  5.497e-07  alpha:  5.024e-01  linmin: -9.861e-05  t[s]:   3920.51
	Linear fluid (dielectric constant: 78.4, screening length: 8.12261 Bohr) occupying 0.386869 of unit cell:	Completed after 14 iterations at t[s]:   3948.92
	Linear fluid (dielectric constant: 78.4, screening length: 8.12261 Bohr) occupying 0.386887 of unit cell:	Completed after 12 iterations at t[s]:   3971.61
	FillingsUpdate:  mu: -0.134500000  nElectrons: 304.623610  magneticMoment: [ Abs: 0.00018  Tot: -0.00017 ]
	SubspaceRotationAdjust: set factor to 0.00741
ElecMinimize: Iter:  43  G: -1649.618164337277676  |grad|_K:  5.280e-07  alpha:  6.604e-01  linmin: -1.733e-04  t[s]:   4006.51
	Linear fluid (dielectric constant: 78.4, screening length: 8.12261 Bohr) occupying 0.386922 of unit cell:	Completed after 14 iterations at t[s]:   4035.06
	Linear fluid (dielectric constant: 78.4, screening length: 8.12261 Bohr) occupying 0.386925 of unit cell:	Completed after 7 iterations at t[s]:   4057.03
	FillingsUpdate:  mu: -0.134500000  nElectrons: 304.625396  magneticMoment: [ Abs: 0.00018  Tot: -0.00017 ]
	SubspaceRotationAdjust: set factor to 0.00816
ElecMinimize: Iter:  44  G: -1649.618198288685107  |grad|_K:  5.849e-07  alpha:  7.144e-01  linmin: -1.587e-04  t[s]:   4091.78
	Linear fluid (dielectric constant: 78.4, screening length: 8.12261 Bohr) occupying 0.386409 of unit cell:	Completed after 16 iterations at t[s]:   4120.68
	Linear fluid (dielectric constant: 78.4, screening length: 8.12261 Bohr) occupying 0.386538 of unit cell:	Completed after 14 iterations at t[s]:   4143.76
	FillingsUpdate:  mu: -0.134500000  nElectrons: 304.620924  magneticMoment: [ Abs: 0.00018  Tot: -0.00017 ]
	SubspaceRotationAdjust: set factor to 0.00743
ElecMinimize: Iter:  45  G: -1649.618229687173425  |grad|_K:  6.916e-07  alpha:  5.366e-01  linmin: -9.426e-05  t[s]:   4178.45
	Linear fluid (dielectric constant: 78.4, screening length: 8.12261 Bohr) occupying 0.386621 of unit cell:	Completed after 15 iterations at t[s]:   4207.20
	Linear fluid (dielectric constant: 78.4, screening length: 8.12261 Bohr) occupying 0.386607 of unit cell:	Completed after 12 iterations at t[s]:   4230.05
	FillingsUpdate:  mu: -0.134500000  nElectrons: 304.623118  magneticMoment: [ Abs: 0.00018  Tot: -0.00017 ]
	SubspaceRotationAdjust: set factor to 0.00659
ElecMinimize: Iter:  46  G: -1649.618265493553054  |grad|_K:  6.095e-07  alpha:  4.392e-01  linmin: -1.476e-04  t[s]:   4264.95
	Linear fluid (dielectric constant: 78.4, screening length: 8.12261 Bohr) occupying 0.386398 of unit cell:	Completed after 14 iterations at t[s]:   4293.64
	Linear fluid (dielectric constant: 78.4, screening length: 8.12261 Bohr) occupying 0.386288 of unit cell:	Completed after 14 iterations at t[s]:   4316.73
	FillingsUpdate:  mu: -0.134500000  nElectrons: 304.619853  magneticMoment: [ Abs: 0.00018  Tot: -0.00017 ]
	SubspaceRotationAdjust: set factor to 0.00688
ElecMinimize: Iter:  47  G: -1649.618307815183925  |grad|_K:  5.623e-07  alpha:  6.666e-01  linmin: -1.156e-04  t[s]:   4351.35
	Linear fluid (dielectric constant: 78.4, screening length: 8.12261 Bohr) occupying 0.386034 of unit cell:	Completed after 14 iterations at t[s]:   4379.89
	Linear fluid (dielectric constant: 78.4, screening length: 8.12261 Bohr) occupying 0.386035 of unit cell:	Completed after 0 iterations at t[s]:   4401.14
	FillingsUpdate:  mu: -0.134500000  nElectrons: 304.617207  magneticMoment: [ Abs: 0.00017  Tot: -0.00016 ]
	SubspaceRotationAdjust: set factor to 0.00716
ElecMinimize: Iter:  48  G: -1649.618343570040906  |grad|_K:  5.188e-07  alpha:  6.632e-01  linmin: -4.978e-05  t[s]:   4435.72
	Linear fluid (dielectric constant: 78.4, screening length: 8.12261 Bohr) occupying 0.386156 of unit cell:	Completed after 15 iterations at t[s]:   4464.31
	Linear fluid (dielectric constant: 78.4, screening length: 8.12261 Bohr) occupying 0.386126 of unit cell:	Completed after 12 iterations at t[s]:   4486.93
	FillingsUpdate:  mu: -0.134500000  nElectrons: 304.619022  magneticMoment: [ Abs: 0.00017  Tot: -0.00016 ]
	SubspaceRotationAdjust: set factor to 0.00637
ElecMinimize: Iter:  49  G: -1649.618366155573767  |grad|_K:  4.833e-07  alpha:  4.944e-01  linmin: -3.121e-05  t[s]:   4521.31
	Linear fluid (dielectric constant: 78.4, screening length: 8.12261 Bohr) occupying 0.385863 of unit cell:	Completed after 15 iterations at t[s]:   4549.94
	Linear fluid (dielectric constant: 78.4, screening length: 8.12261 Bohr) occupying 0.385922 of unit cell:	Completed after 14 iterations at t[s]:   4573.06
	FillingsUpdate:  mu: -0.134500000  nElectrons: 304.616387  magneticMoment: [ Abs: 0.00017  Tot: -0.00016 ]
	SubspaceRotationAdjust: set factor to 0.00535
ElecMinimize: Iter:  50  G: -1649.618381440842995  |grad|_K:  3.802e-07  alpha:  3.854e-01  linmin:  4.391e-06  t[s]:   4607.75
	Linear fluid (dielectric constant: 78.4, screening length: 8.12261 Bohr) occupying 0.385974 of unit cell:	Completed after 14 iterations at t[s]:   4636.32
	Linear fluid (dielectric constant: 78.4, screening length: 8.12261 Bohr) occupying 0.385993 of unit cell:	Completed after 12 iterations at t[s]:   4659.06
	FillingsUpdate:  mu: -0.134500000  nElectrons: 304.617584  magneticMoment: [ Abs: 0.00017  Tot: -0.00016 ]
	SubspaceRotationAdjust: set factor to 0.006
ElecMinimize: Iter:  51  G: -1649.618394359257763  |grad|_K:  2.948e-07  alpha:  5.275e-01  linmin: -2.344e-05  t[s]:   4693.88
	Linear fluid (dielectric constant: 78.4, screening length: 8.12261 Bohr) occupying 0.386069 of unit cell:	Completed after 14 iterations at t[s]:   4722.44
	Linear fluid (dielectric constant: 78.4, screening length: 8.12261 Bohr) occupying 0.386075 of unit cell:	Completed after 2 iterations at t[s]:   4743.84
	FillingsUpdate:  mu: -0.134500000  nElectrons: 304.618833  magneticMoment: [ Abs: 0.00017  Tot: -0.00016 ]
	SubspaceRotationAdjust: set factor to 0.00672
ElecMinimize: Iter:  52  G: -1649.618402787328023  |grad|_K:  2.532e-07  alpha:  5.717e-01  linmin: -6.638e-05  t[s]:   4778.56
	Linear fluid (dielectric constant: 78.4, screening length: 8.12261 Bohr) occupying 0.386043 of unit cell:	Completed after 14 iterations at t[s]:   4807.27
	Linear fluid (dielectric constant: 78.4, screening length: 8.12261 Bohr) occupying 0.386045 of unit cell:	Completed after 7 iterations at t[s]:   4829.48
	FillingsUpdate:  mu: -0.134500000  nElectrons: 304.618467  magneticMoment: [ Abs: 0.00017  Tot: -0.00016 ]
	SubspaceRotationAdjust: set factor to 0.00681
ElecMinimize: Iter:  53  G: -1649.618408576276352  |grad|_K:  2.536e-07  alpha:  5.311e-01  linmin:  3.724e-05  t[s]:   4864.25
	Linear fluid (dielectric constant: 78.4, screening length: 8.12261 Bohr) occupying 0.386225 of unit cell:	Completed after 13 iterations at t[s]:   4892.78
	Linear fluid (dielectric constant: 78.4, screening length: 8.12261 Bohr) occupying 0.386205 of unit cell:	Completed after 10 iterations at t[s]:   4915.57
	FillingsUpdate:  mu: -0.134500000  nElectrons: 304.620833  magneticMoment: [ Abs: 0.00017  Tot: -0.00016 ]
	SubspaceRotationAdjust: set factor to 0.00683
ElecMinimize: Iter:  54  G: -1649.618413695854770  |grad|_K:  2.350e-07  alpha:  4.710e-01  linmin: -6.592e-05  t[s]:   4950.38
	Linear fluid (dielectric constant: 78.4, screening length: 8.12261 Bohr) occupying 0.386245 of unit cell:	Completed after 14 iterations at t[s]:   4978.81
	Linear fluid (dielectric constant: 78.4, screening length: 8.12261 Bohr) occupying 0.386261 of unit cell:	Completed after 9 iterations at t[s]:   5001.30
	FillingsUpdate:  mu: -0.134500000  nElectrons: 304.621781  magneticMoment: [ Abs: 0.00017  Tot: -0.00016 ]
	SubspaceRotationAdjust: set factor to 0.00777
ElecMinimize: Iter:  55  G: -1649.618419814891240  |grad|_K:  2.342e-07  alpha:  6.515e-01  linmin: -6.390e-05  t[s]:   5036.24
	Linear fluid (dielectric constant: 78.4, screening length: 8.12261 Bohr) occupying 0.386367 of unit cell:	Completed after 9 iterations at t[s]:   5064.11
	Linear fluid (dielectric constant: 78.4, screening length: 8.12261 Bohr) occupying 0.386395 of unit cell:	Completed after 5 iterations at t[s]:   5086.06
	FillingsUpdate:  mu: -0.134500000  nElectrons: 304.623985  magneticMoment: [ Abs: 0.00017  Tot: -0.00016 ]
	SubspaceRotationAdjust: set factor to 0.00875
ElecMinimize: Iter:  56  G: -1649.618427544330416  |grad|_K:  2.640e-07  alpha:  8.281e-01  linmin: -6.026e-05  t[s]:   5120.81
	Linear fluid (dielectric constant: 78.4, screening length: 8.12261 Bohr) occupying 0.386660 of unit cell:	Completed after 15 iterations at t[s]:   5149.54
	Linear fluid (dielectric constant: 78.4, screening length: 8.12261 Bohr) occupying 0.386636 of unit cell:	Completed after 9 iterations at t[s]:   5171.85
	FillingsUpdate:  mu: -0.134500000  nElectrons: 304.627832  magneticMoment: [ Abs: 0.00016  Tot: -0.00015 ]
	SubspaceRotationAdjust: set factor to 0.00903
ElecMinimize: Iter:  57  G: -1649.618436465390232  |grad|_K:  3.282e-07  alpha:  7.518e-01  linmin: -5.067e-05  t[s]:   5206.81
	Linear fluid (dielectric constant: 78.4, screening length: 8.12261 Bohr) occupying 0.386597 of unit cell:	Completed after 16 iterations at t[s]:   5235.56
	Linear fluid (dielectric constant: 78.4, screening length: 8.12261 Bohr) occupying 0.386614 of unit cell:	Completed after 13 iterations at t[s]:   5258.49
	FillingsUpdate:  mu: -0.134500000  nElectrons: 304.627906  magneticMoment: [ Abs: 0.00016  Tot: -0.00015 ]
	SubspaceRotationAdjust: set factor to 0.00771
ElecMinimize: Iter:  58  G: -1649.618444449921299  |grad|_K:  3.760e-07  alpha:  4.347e-01  linmin: -2.428e-05  t[s]:   5293.36
	Linear fluid (dielectric constant: 78.4, screening length: 8.12261 Bohr) occupying 0.386880 of unit cell:	Completed after 15 iterations at t[s]:   5322.09
	Linear fluid (dielectric constant: 78.4, screening length: 8.12261 Bohr) occupying 0.386922 of unit cell:	Completed after 11 iterations at t[s]:   5344.70
	FillingsUpdate:  mu: -0.134500000  nElectrons: 304.632956  magneticMoment: [ Abs: 0.00016  Tot: -0.00015 ]
	SubspaceRotationAdjust: set factor to 0.00728
ElecMinimize: Iter:  59  G: -1649.618456521441203  |grad|_K:  3.553e-07  alpha:  5.021e-01  linmin: -3.415e-05  t[s]:   5379.57
	Linear fluid (dielectric constant: 78.4, screening length: 8.12261 Bohr) occupying 0.387043 of unit cell:	Completed after 9 iterations at t[s]:   5407.40
	Linear fluid (dielectric constant: 78.4, screening length: 8.12261 Bohr) occupying 0.387099 of unit cell:	Completed after 6 iterations at t[s]:   5429.44
	FillingsUpdate:  mu: -0.134500000  nElectrons: 304.636322  magneticMoment: [ Abs: 0.00015  Tot: -0.00014 ]
	SubspaceRotationAdjust: set factor to 0.00799
ElecMinimize: Iter:  60  G: -1649.618472371008238  |grad|_K:  3.628e-07  alpha:  7.370e-01  linmin: -3.463e-05  t[s]:   5464.26
	Linear fluid (dielectric constant: 78.4, screening length: 8.12261 Bohr) occupying 0.387176 of unit cell:	Completed after 14 iterations at t[s]:   5492.92
	Linear fluid (dielectric constant: 78.4, screening length: 8.12261 Bohr) occupying 0.387173 of unit cell:	Completed after 2 iterations at t[s]:   5514.48
	FillingsUpdate:  mu: -0.134500000  nElectrons: 304.638154  magneticMoment: [ Abs: 0.00014  Tot: -0.00014 ]
	SubspaceRotationAdjust: set factor to 0.00851
ElecMinimize: Iter:  61  G: -1649.618488227480839  |grad|_K:  3.938e-07  alpha:  7.074e-01  linmin: -1.297e-05  t[s]:   5549.25
	Linear fluid (dielectric constant: 78.4, screening length: 8.12261 Bohr) occupying 0.387520 of unit cell:	Completed after 15 iterations at t[s]:   5578.09
	Linear fluid (dielectric constant: 78.4, screening length: 8.12261 Bohr) occupying 0.387403 of unit cell:	Completed after 14 iterations at t[s]:   5601.05
	FillingsUpdate:  mu: -0.134500000  nElectrons: 304.642065  magneticMoment: [ Abs: 0.00014  Tot: -0.00013 ]
	SubspaceRotationAdjust: set factor to 0.00763
ElecMinimize: Iter:  62  G: -1649.618500533465749  |grad|_K:  4.346e-07  alpha:  4.690e-01  linmin: -1.237e-05  t[s]:   5635.80
	Linear fluid (dielectric constant: 78.4, screening length: 8.12261 Bohr) occupying 0.387238 of unit cell:	Completed after 15 iterations at t[s]:   5664.58
	Linear fluid (dielectric constant: 78.4, screening length: 8.12261 Bohr) occupying 0.387264 of unit cell:	Completed after 12 iterations at t[s]:   5687.36
	FillingsUpdate:  mu: -0.134500000  nElectrons: 304.640587  magneticMoment: [ Abs: 0.00013  Tot: -0.00012 ]
	SubspaceRotationAdjust: set factor to 0.00691
ElecMinimize: Iter:  63  G: -1649.618513180783793  |grad|_K:  3.556e-07  alpha:  3.941e-01  linmin: -1.076e-06  t[s]:   5722.06
	Linear fluid (dielectric constant: 78.4, screening length: 8.12261 Bohr) occupying 0.387259 of unit cell:	Completed after 12 iterations at t[s]:   5750.42
	Linear fluid (dielectric constant: 78.4, screening length: 8.12261 Bohr) occupying 0.387255 of unit cell:	Completed after 12 iterations at t[s]:   5773.08
	FillingsUpdate:  mu: -0.134500000  nElectrons: 304.640991  magneticMoment: [ Abs: 0.00013  Tot: -0.00012 ]
	SubspaceRotationAdjust: set factor to 0.00782
ElecMinimize: Iter:  64  G: -1649.618526875101907  |grad|_K:  3.205e-07  alpha:  6.392e-01  linmin:  2.992e-07  t[s]:   5807.78
	Linear fluid (dielectric constant: 78.4, screening length: 8.12261 Bohr) occupying 0.387246 of unit cell:	Completed after 14 iterations at t[s]:   5836.44
	Linear fluid (dielectric constant: 78.4, screening length: 8.12261 Bohr) occupying 0.387246 of unit cell:	Completed after 0 iterations at t[s]:   5857.56
	FillingsUpdate:  mu: -0.134500000  nElectrons: 304.641241  magneticMoment: [ Abs: 0.00012  Tot: -0.00011 ]
	SubspaceRotationAdjust: set factor to 0.00813
ElecMinimize: Iter:  65  G: -1649.618537782109797  |grad|_K:  3.052e-07  alpha:  6.268e-01  linmin:  1.079e-05  t[s]:   5892.56
	Linear fluid (dielectric constant: 78.4, screening length: 8.12261 Bohr) occupying 0.386961 of unit cell:	Completed after 15 iterations at t[s]:   5921.38
	Linear fluid (dielectric constant: 78.4, screening length: 8.12261 Bohr) occupying 0.387059 of unit cell:	Completed after 14 iterations at t[s]:   5944.27
	FillingsUpdate:  mu: -0.134500000  nElectrons: 304.638731  magneticMoment: [ Abs: 0.00012  Tot: -0.00011 ]
	SubspaceRotationAdjust: set factor to 0.00697
ElecMinimize: Iter:  66  G: -1649.618544265927540  |grad|_K:  2.956e-07  alpha:  4.122e-01  linmin: -3.412e-06  t[s]:   5979.04
	Linear fluid (dielectric constant: 78.4, screening length: 8.12261 Bohr) occupying 0.387081 of unit cell:	Completed after 12 iterations at t[s]:   6007.40
	Linear fluid (dielectric constant: 78.4, screening length: 8.12261 Bohr) occupying 0.387079 of unit cell:	Completed after 7 iterations at t[s]:   6029.55
	FillingsUpdate:  mu: -0.134500000  nElectrons: 304.639183  magneticMoment: [ Abs: 0.00012  Tot: -0.00011 ]
	SubspaceRotationAdjust: set factor to 0.00616
ElecMinimize: Iter:  67  G: -1649.618549795345643  |grad|_K:  2.185e-07  alpha:  3.734e-01  linmin:  1.572e-05  t[s]:   6064.21
	Linear fluid (dielectric constant: 78.4, screening length: 8.12261 Bohr) occupying 0.387017 of unit cell:	Completed after 11 iterations at t[s]:   6092.52
	Linear fluid (dielectric constant: 78.4, screening length: 8.12261 Bohr) occupying 0.386988 of unit cell:	Completed after 9 iterations at t[s]:   6114.76
	FillingsUpdate:  mu: -0.134500000  nElectrons: 304.637970  magneticMoment: [ Abs: 0.00012  Tot: -0.00011 ]
	SubspaceRotationAdjust: set factor to 0.00679
ElecMinimize: Iter:  68  G: -1649.618554254753690  |grad|_K:  1.698e-07  alpha:  5.515e-01  linmin: -1.678e-05  t[s]:   6149.62
	Linear fluid (dielectric constant: 78.4, screening length: 8.12261 Bohr) occupying 0.386893 of unit cell:	Completed after 14 iterations at t[s]:   6178.29
	Linear fluid (dielectric constant: 78.4, screening length: 8.12261 Bohr) occupying 0.386898 of unit cell:	Completed after 2 iterations at t[s]:   6199.88
	FillingsUpdate:  mu: -0.134500000  nElectrons: 304.636742  magneticMoment: [ Abs: 0.00011  Tot: -0.00011 ]
	SubspaceRotationAdjust: set factor to 0.00681
ElecMinimize: Iter:  69  G: -1649.618556791508354  |grad|_K:  1.449e-07  alpha:  5.188e-01  linmin:  3.424e-05  t[s]:   6234.50
	Linear fluid (dielectric constant: 78.4, screening length: 8.12261 Bohr) occupying 0.386925 of unit cell:	Completed after 12 iterations at t[s]:   6262.99
	Linear fluid (dielectric constant: 78.4, screening length: 8.12261 Bohr) occupying 0.386918 of unit cell:	Completed after 10 iterations at t[s]:   6285.42
	FillingsUpdate:  mu: -0.134500000  nElectrons: 304.637065  magneticMoment: [ Abs: 0.00011  Tot: -0.00011 ]
	SubspaceRotationAdjust: set factor to 0.00582
ElecMinimize: Iter:  70  G: -1649.618558129548319  |grad|_K:  1.218e-07  alpha:  3.793e-01  linmin: -2.865e-05  t[s]:   6320.12
	Linear fluid (dielectric constant: 78.4, screening length: 8.12261 Bohr) occupying 0.386866 of unit cell:	Completed after 13 iterations at t[s]:   6348.64
	Linear fluid (dielectric constant: 78.4, screening length: 8.12261 Bohr) occupying 0.386859 of unit cell:	Completed after 5 iterations at t[s]:   6370.57
	FillingsUpdate:  mu: -0.134500000  nElectrons: 304.636245  magneticMoment: [ Abs: 0.00011  Tot: -0.00011 ]
	SubspaceRotationAdjust: set factor to 0.00632
ElecMinimize: Iter:  71  G: -1649.618559216923131  |grad|_K:  8.843e-08  alpha:  4.314e-01  linmin: -3.787e-05  t[s]:   6405.22
	Linear fluid (dielectric constant: 78.4, screening length: 8.12261 Bohr) occupying 0.386835 of unit cell:	Completed after 9 iterations at t[s]:   6433.18
	Linear fluid (dielectric constant: 78.4, screening length: 8.12261 Bohr) occupying 0.386828 of unit cell:	Completed after 2 iterations at t[s]:   6454.68
	FillingsUpdate:  mu: -0.134500000  nElectrons: 304.635832  magneticMoment: [ Abs: 0.00011  Tot: -0.00011 ]
	SubspaceRotationAdjust: set factor to 0.00751
ElecMinimize: Iter:  72  G: -1649.618559959350932  |grad|_K:  7.684e-08  alpha:  5.577e-01  linmin: -4.468e-05  t[s]:   6489.36
	Linear fluid (dielectric constant: 78.4, screening length: 8.12261 Bohr) occupying 0.386840 of unit cell:	Completed after 12 iterations at t[s]:   6517.78
	Linear fluid (dielectric constant: 78.4, screening length: 8.12261 Bohr) occupying 0.386839 of unit cell:	Completed after 2 iterations at t[s]:   6539.06
	FillingsUpdate:  mu: -0.134500000  nElectrons: 304.636019  magneticMoment: [ Abs: 0.00011  Tot: -0.00011 ]
	SubspaceRotationAdjust: set factor to 0.00764
ElecMinimize: Iter:  73  G: -1649.618560466734834  |grad|_K:  8.094e-08  alpha:  5.037e-01  linmin:  9.242e-05  t[s]:   6573.99
	Linear fluid (dielectric constant: 78.4, screening length: 8.12261 Bohr) occupying 0.386788 of unit cell:	Completed after 13 iterations at t[s]:   6602.26
	Linear fluid (dielectric constant: 78.4, screening length: 8.12261 Bohr) occupying 0.386798 of unit cell:	Completed after 7 iterations at t[s]:   6624.52
	FillingsUpdate:  mu: -0.134500000  nElectrons: 304.635453  magneticMoment: [ Abs: 0.00011  Tot: -0.00011 ]
	SubspaceRotationAdjust: set factor to 0.00766
ElecMinimize: Iter:  74  G: -1649.618560906406174  |grad|_K:  7.412e-08  alpha:  4.040e-01  linmin: -7.319e-06  t[s]:   6659.34
	Linear fluid (dielectric constant: 78.4, screening length: 8.12261 Bohr) occupying 0.386799 of unit cell:	Completed after 9 iterations at t[s]:   6687.26
	Linear fluid (dielectric constant: 78.4, screening length: 8.12261 Bohr) occupying 0.386800 of unit cell:	Completed after 6 iterations at t[s]:   6709.19
	FillingsUpdate:  mu: -0.134500000  nElectrons: 304.635512  magneticMoment: [ Abs: 0.00011  Tot: -0.00010 ]
	SubspaceRotationAdjust: set factor to 0.00899
ElecMinimize: Iter:  75  G: -1649.618561501566546  |grad|_K:  7.407e-08  alpha:  6.373e-01  linmin: -2.138e-05  t[s]:   6743.93
	Linear fluid (dielectric constant: 78.4, screening length: 8.12261 Bohr) occupying 0.386802 of unit cell:	Completed after 9 iterations at t[s]:   6771.79
	Linear fluid (dielectric constant: 78.4, screening length: 8.12261 Bohr) occupying 0.386802 of unit cell:	Completed after 2 iterations at t[s]:   6793.39
	FillingsUpdate:  mu: -0.134500000  nElectrons: 304.635579  magneticMoment: [ Abs: 0.00012  Tot: -0.00009 ]
	SubspaceRotationAdjust: set factor to 0.00999
ElecMinimize: Iter:  76  G: -1649.618562239595803  |grad|_K:  8.700e-08  alpha:  7.901e-01  linmin: -2.175e-05  t[s]:   6828.23
	Linear fluid (dielectric constant: 78.4, screening length: 8.12261 Bohr) occupying 0.386746 of unit cell:	Completed after 14 iterations at t[s]:   6856.59
	Linear fluid (dielectric constant: 78.4, screening length: 8.12261 Bohr) occupying 0.386762 of unit cell:	Completed after 11 iterations at t[s]:   6879.28
	FillingsUpdate:  mu: -0.134500000  nElectrons: 304.635006  magneticMoment: [ Abs: 0.00011  Tot: -0.00008 ]
	SubspaceRotationAdjust: set factor to 0.00932
ElecMinimize: Iter:  77  G: -1649.618562981036803  |grad|_K:  1.096e-07  alpha:  5.719e-01  linmin:  8.203e-06  t[s]:   6914.30
	Linear fluid (dielectric constant: 78.4, screening length: 8.12261 Bohr) occupying 0.386836 of unit cell:	Completed after 15 iterations at t[s]:   6942.87
	Linear fluid (dielectric constant: 78.4, screening length: 8.12261 Bohr) occupying 0.386807 of unit cell:	Completed after 13 iterations at t[s]:   6965.88
	FillingsUpdate:  mu: -0.134500000  nElectrons: 304.635654  magneticMoment: [ Abs: 0.00010  Tot: -0.00007 ]
	SubspaceRotationAdjust: set factor to 0.00753
ElecMinimize: Iter:  78  G: -1649.618563681472551  |grad|_K:  9.891e-08  alpha:  3.452e-01  linmin: -5.384e-06  t[s]:   7000.72
	Linear fluid (dielectric constant: 78.4, screening length: 8.12261 Bohr) occupying 0.386796 of unit cell:	Completed after 9 iterations at t[s]:   7028.47
	Linear fluid (dielectric constant: 78.4, screening length: 8.12261 Bohr) occupying 0.386789 of unit cell:	Completed after 9 iterations at t[s]:   7051.08
	FillingsUpdate:  mu: -0.134500000  nElectrons: 304.635381  magneticMoment: [ Abs: 0.00008  Tot: -0.00006 ]
	SubspaceRotationAdjust: set factor to 0.00756
ElecMinimize: Iter:  79  G: -1649.618564647720632  |grad|_K:  8.860e-08  alpha:  5.840e-01  linmin:  5.765e-06  t[s]:   7086.08
	Linear fluid (dielectric constant: 78.4, screening length: 8.12261 Bohr) occupying 0.386790 of unit cell:	Completed after 3 iterations at t[s]:   7113.23
	Linear fluid (dielectric constant: 78.4, screening length: 8.12261 Bohr) occupying 0.386790 of unit cell:	Completed after 0 iterations at t[s]:   7134.34
	FillingsUpdate:  mu: -0.134500000  nElectrons: 304.635350  magneticMoment: [ Abs: 0.00006  Tot: -0.00005 ]
	SubspaceRotationAdjust: set factor to 0.00801
ElecMinimize: Iter:  80  G: -1649.618565459616093  |grad|_K:  7.550e-08  alpha:  6.116e-01  linmin: -3.790e-05  t[s]:   7169.09
	Linear fluid (dielectric constant: 78.4, screening length: 8.12261 Bohr) occupying 0.386805 of unit cell:	Completed after 12 iterations at t[s]:   7197.50
	Linear fluid (dielectric constant: 78.4, screening length: 8.12261 Bohr) occupying 0.386804 of unit cell:	Completed after 0 iterations at t[s]:   7218.71
	FillingsUpdate:  mu: -0.134500000  nElectrons: 304.635515  magneticMoment: [ Abs: 0.00006  Tot: -0.00004 ]
	SubspaceRotationAdjust: set factor to 0.00825
ElecMinimize: Iter:  81  G: -1649.618566012239398  |grad|_K:  6.681e-08  alpha:  5.677e-01  linmin:  1.817e-05  t[s]:   7253.83
	Linear fluid (dielectric constant: 78.4, screening length: 8.12261 Bohr) occupying 0.386773 of unit cell:	Completed after 12 iterations at t[s]:   7282.26
	Linear fluid (dielectric constant: 78.4, screening length: 8.12261 Bohr) occupying 0.386782 of unit cell:	Completed after 7 iterations at t[s]:   7304.69
	FillingsUpdate:  mu: -0.134500000  nElectrons: 304.635159  magneticMoment: [ Abs: 0.00005  Tot: -0.00004 ]
	SubspaceRotationAdjust: set factor to 0.00735
ElecMinimize: Iter:  82  G: -1649.618566316280976  |grad|_K:  6.307e-08  alpha:  4.054e-01  linmin:  3.705e-07  t[s]:   7339.60
	Linear fluid (dielectric constant: 78.4, screening length: 8.12261 Bohr) occupying 0.386809 of unit cell:	Completed after 12 iterations at t[s]:   7368.06
	Linear fluid (dielectric constant: 78.4, screening length: 8.12261 Bohr) occupying 0.386805 of unit cell:	Completed after 4 iterations at t[s]:   7389.76
	FillingsUpdate:  mu: -0.134500000  nElectrons: 304.635458  magneticMoment: [ Abs: 0.00005  Tot: -0.00003 ]
	SubspaceRotationAdjust: set factor to 0.00678
ElecMinimize: Iter:  83  G: -1649.618566543381121  |grad|_K:  4.749e-08  alpha:  3.382e-01  linmin:  1.046e-05  t[s]:   7424.18
	Linear fluid (dielectric constant: 78.4, screening length: 8.12261 Bohr) occupying 0.386801 of unit cell:	Completed after 7 iterations at t[s]:   7451.59
	Linear fluid (dielectric constant: 78.4, screening length: 8.12261 Bohr) occupying 0.386800 of unit cell:	Completed after 2 iterations at t[s]:   7472.78
	FillingsUpdate:  mu: -0.134500000  nElectrons: 304.635349  magneticMoment: [ Abs: 0.00005  Tot: -0.00003 ]
	SubspaceRotationAdjust: set factor to 0.00854
ElecMinimize: Iter:  84  G: -1649.618566748222975  |grad|_K:  3.896e-08  alpha:  5.320e-01  linmin: -1.542e-04  t[s]:   7507.38
	Linear fluid (dielectric constant: 78.4, screening length: 8.12261 Bohr) occupying 0.386792 of unit cell:	Completed after 9 iterations at t[s]:   7535.25
	Linear fluid (dielectric constant: 78.4, screening length: 8.12261 Bohr) occupying 0.386791 of unit cell:	Completed after 0 iterations at t[s]:   7556.45
	FillingsUpdate:  mu: -0.134500000  nElectrons: 304.635185  magneticMoment: [ Abs: 0.00005  Tot: -0.00003 ]
	SubspaceRotationAdjust: set factor to 0.00984
ElecMinimize: Iter:  85  G: -1649.618566905249281  |grad|_K:  4.155e-08  alpha:  5.971e-01  linmin: -1.333e-04  t[s]:   7591.17
	Linear fluid (dielectric constant: 78.4, screening length: 8.12261 Bohr) occupying 0.386816 of unit cell:	Completed after 12 iterations at t[s]:   7619.32
	Linear fluid (dielectric constant: 78.4, screening length: 8.12261 Bohr) occupying 0.386808 of unit cell:	Completed after 7 iterations at t[s]:   7641.42
	FillingsUpdate:  mu: -0.134500000  nElectrons: 304.635405  magneticMoment: [ Abs: 0.00005  Tot: -0.00003 ]
	SubspaceRotationAdjust: set factor to 0.00924
ElecMinimize: Iter:  86  G: -1649.618567026227538  |grad|_K:  4.665e-08  alpha:  3.973e-01  linmin:  4.352e-05  t[s]:   7676.16
	Linear fluid (dielectric constant: 78.4, screening length: 8.12261 Bohr) occupying 0.386792 of unit cell:	Completed after 11 iterations at t[s]:   7704.43
	Linear fluid (dielectric constant: 78.4, screening length: 8.12261 Bohr) occupying 0.386792 of unit cell:	Completed after 0 iterations at t[s]:   7725.42
	FillingsUpdate:  mu: -0.134500000  nElectrons: 304.635131  magneticMoment: [ Abs: 0.00005  Tot: -0.00003 ]
	SubspaceRotationAdjust: set factor to 0.00972
ElecMinimize: Iter:  87  G: -1649.618567173640940  |grad|_K:  4.082e-08  alpha:  4.059e-01  linmin: -7.663e-05  t[s]:   7760.12
	Linear fluid (dielectric constant: 78.4, screening length: 8.12261 Bohr) occupying 0.386791 of unit cell:	Completed after 2 iterations at t[s]:   7787.15
	Linear fluid (dielectric constant: 78.4, screening length: 8.12261 Bohr) occupying 0.386790 of unit cell:	Completed after 2 iterations at t[s]:   7808.85
	FillingsUpdate:  mu: -0.134500000  nElectrons: 304.635059  magneticMoment: [ Abs: 0.00005  Tot: -0.00003 ]
	SubspaceRotationAdjust: set factor to 0.0112
ElecMinimize: Iter:  88  G: -1649.618567378720854  |grad|_K:  4.349e-08  alpha:  7.089e-01  linmin: -3.206e-05  t[s]:   7843.52
	Linear fluid (dielectric constant: 78.4, screening length: 8.12261 Bohr) occupying 0.386809 of unit cell:	Completed after 12 iterations at t[s]:   7871.69
	Linear fluid (dielectric constant: 78.4, screening length: 8.12261 Bohr) occupying 0.386806 of unit cell:	Completed after 2 iterations at t[s]:   7893.17
	FillingsUpdate:  mu: -0.134500000  nElectrons: 304.635229  magneticMoment: [ Abs: 0.00005  Tot: -0.00003 ]
	SubspaceRotationAdjust: set factor to 0.011
ElecMinimize: Iter:  89  G: -1649.618567569448714  |grad|_K:  5.676e-08  alpha:  5.880e-01  linmin:  2.322e-05  t[s]:   7927.93
	Linear fluid (dielectric constant: 78.4, screening length: 8.12261 Bohr) occupying 0.386755 of unit cell:	Completed after 14 iterations at t[s]:   7956.40
	Linear fluid (dielectric constant: 78.4, screening length: 8.12261 Bohr) occupying 0.386785 of unit cell:	Completed after 13 iterations at t[s]:   7979.46
	FillingsUpdate:  mu: -0.134500000  nElectrons: 304.634897  magneticMoment: [ Abs: 0.00005  Tot: -0.00003 ]
	SubspaceRotationAdjust: set factor to 0.00881
ElecMinimize: Iter:  90  G: -1649.618567690610917  |grad|_K:  4.947e-08  alpha:  2.377e-01  linmin:  1.485e-05  t[s]:   8014.17
	Linear fluid (dielectric constant: 78.4, screening length: 8.12261 Bohr) occupying 0.386791 of unit cell:	Completed after 3 iterations at t[s]:   8041.30
	Linear fluid (dielectric constant: 78.4, screening length: 8.12261 Bohr) occupying 0.386798 of unit cell:	Completed after 7 iterations at t[s]:   8063.63
	FillingsUpdate:  mu: -0.134500000  nElectrons: 304.635013  magneticMoment: [ Abs: 0.00006  Tot: -0.00003 ]
	SubspaceRotationAdjust: set factor to 0.0104
ElecMinimize: Iter:  91  G: -1649.618567898055517  |grad|_K:  4.377e-08  alpha:  5.121e-01  linmin:  4.686e-05  t[s]:   8098.08
	Linear fluid (dielectric constant: 78.4, screening length: 8.12261 Bohr) occupying 0.386819 of unit cell:	Completed after 11 iterations at t[s]:   8126.29
	Linear fluid (dielectric constant: 78.4, screening length: 8.12261 Bohr) occupying 0.386819 of unit cell:	Completed after 0 iterations at t[s]:   8147.52
	FillingsUpdate:  mu: -0.134500000  nElectrons: 304.635258  magneticMoment: [ Abs: 0.00005  Tot: -0.00003 ]
	SubspaceRotationAdjust: set factor to 0.0107
ElecMinimize: Iter:  92  G: -1649.618568059482641  |grad|_K:  4.960e-08  alpha:  5.074e-01  linmin: -6.168e-06  t[s]:   8182.06
	Linear fluid (dielectric constant: 78.4, screening length: 8.12261 Bohr) occupying 0.386793 of unit cell:	Completed after 12 iterations at t[s]:   8210.41
	Linear fluid (dielectric constant: 78.4, screening length: 8.12261 Bohr) occupying 0.386806 of unit cell:	Completed after 12 iterations at t[s]:   8233.14
	FillingsUpdate:  mu: -0.134500000  nElectrons: 304.635031  magneticMoment: [ Abs: 0.00005  Tot: -0.00003 ]
	SubspaceRotationAdjust: set factor to 0.0093
ElecMinimize: Iter:  93  G: -1649.618568165989927  |grad|_K:  4.319e-08  alpha:  2.571e-01  linmin:  4.896e-06  t[s]:   8267.79
	Linear fluid (dielectric constant: 78.4, screening length: 8.12261 Bohr) occupying 0.386815 of unit cell:	Completed after 2 iterations at t[s]:   8294.75
	Linear fluid (dielectric constant: 78.4, screening length: 8.12261 Bohr) occupying 0.386825 of unit cell:	Completed after 5 iterations at t[s]:   8316.77
	FillingsUpdate:  mu: -0.134500000  nElectrons: 304.635244  magneticMoment: [ Abs: 0.00004  Tot: -0.00003 ]
	SubspaceRotationAdjust: set factor to 0.0122
ElecMinimize: Iter:  94  G: -1649.618568326414561  |grad|_K:  3.887e-08  alpha:  5.123e-01  linmin:  1.975e-05  t[s]:   8351.21
	Linear fluid (dielectric constant: 78.4, screening length: 8.12261 Bohr) occupying 0.386855 of unit cell:	Completed after 11 iterations at t[s]:   8379.52
	Linear fluid (dielectric constant: 78.4, screening length: 8.12261 Bohr) occupying 0.386850 of unit cell:	Completed after 2 iterations at t[s]:   8401.14
	FillingsUpdate:  mu: -0.134500000  nElectrons: 304.635566  magneticMoment: [ Abs: 0.00011  Tot: -0.00001 ]
	SubspaceRotationAdjust: set factor to 0.00999
ElecMinimize: Iter:  95  G: -1649.618568436455007  |grad|_K:  5.365e-08  alpha:  4.375e-01  linmin: -2.319e-05  t[s]:   8435.78
	Linear fluid (dielectric constant: 78.4, screening length: 8.12261 Bohr) occupying 0.386835 of unit cell:	Completed after 12 iterations at t[s]:   8463.90
	Linear fluid (dielectric constant: 78.4, screening length: 8.12261 Bohr) occupying 0.386843 of unit cell:	Completed after 9 iterations at t[s]:   8486.43
	FillingsUpdate:  mu: -0.134500000  nElectrons: 304.635420  magneticMoment: [ Abs: 0.00014  Tot: +0.00001 ]
	SubspaceRotationAdjust: set factor to 0.00959
ElecMinimize: Iter:  96  G: -1649.618568536127214  |grad|_K:  3.999e-08  alpha:  2.086e-01  linmin:  1.316e-05  t[s]:   8521.21
	Linear fluid (dielectric constant: 78.4, screening length: 8.12261 Bohr) occupying 0.386847 of unit cell:	Completed after 2 iterations at t[s]:   8548.22
	Linear fluid (dielectric constant: 78.4, screening length: 8.12261 Bohr) occupying 0.386854 of unit cell:	Completed after 5 iterations at t[s]:   8570.21
	FillingsUpdate:  mu: -0.134500000  nElectrons: 304.635501  magneticMoment: [ Abs: 0.00013  Tot: +0.00003 ]
	SubspaceRotationAdjust: set factor to 0.0119
ElecMinimize: Iter:  97  G: -1649.618568690960956  |grad|_K:  4.560e-08  alpha:  5.765e-01  linmin:  1.786e-05  t[s]:   8604.83
	Linear fluid (dielectric constant: 78.4, screening length: 8.12261 Bohr) occupying 0.386913 of unit cell:	Completed after 13 iterations at t[s]:   8633.26
	Linear fluid (dielectric constant: 78.4, screening length: 8.12261 Bohr) occupying 0.386886 of unit cell:	Completed after 11 iterations at t[s]:   8656.02
	FillingsUpdate:  mu: -0.134500000  nElectrons: 304.635916  magneticMoment: [ Abs: 0.00011  Tot: +0.00004 ]
	SubspaceRotationAdjust: set factor to 0.0104
[...]
	FillingsUpdate:  mu: -0.134500000  nElectrons: 304.634799  magneticMoment: [ Abs: 0.00029  Tot: +0.00010 ]
	SubspaceRotationAdjust: set factor to 0.00942
ElecMinimize: Iter:  14  G: -1649.618676102105155  |grad|_K:  1.278e-07  alpha:  6.418e-01  linmin:  1.511e-04  t[s]:  12217.64
	Linear fluid (dielectric constant: 78.4, screening length: 8.12261 Bohr) occupying 0.386560 of unit cell:	Completed after 13 iterations at t[s]:  12246.19
	Linear fluid (dielectric constant: 78.4, screening length: 8.12261 Bohr) occupying 0.386576 of unit cell:	Completed after 12 iterations at t[s]:  12269.12
	FillingsUpdate:  mu: -0.134500000  nElectrons: 304.634394  magneticMoment: [ Abs: 0.00029  Tot: +0.00010 ]
	SubspaceRotationAdjust: set factor to 0.00887
ElecMinimize: Iter:  15  G: -1649.618677244136734  |grad|_K:  1.484e-07  alpha:  4.173e-01  linmin: -9.931e-05  t[s]:  12303.90
	Linear fluid (dielectric constant: 78.4, screening length: 8.12261 Bohr) occupying 0.386675 of unit cell:	Completed after 14 iterations at t[s]:  12332.36
	Linear fluid (dielectric constant: 78.4, screening length: 8.12261 Bohr) occupying 0.386689 of unit cell:	Completed after 7 iterations at t[s]:  12354.41
	FillingsUpdate:  mu: -0.134500000  nElectrons: 304.636067  magneticMoment: [ Abs: 0.00029  Tot: +0.00010 ]
	SubspaceRotationAdjust: set factor to 0.0092
ElecMinimize: Iter:  16  G: -1649.618679030744033  |grad|_K:  1.398e-07  alpha:  4.769e-01  linmin: -1.158e-04  t[s]:  12389.11
	Linear fluid (dielectric constant: 78.4, screening length: 8.12261 Bohr) occupying 0.386750 of unit cell:	Completed after 8 iterations at t[s]:  12416.71
	Linear fluid (dielectric constant: 78.4, screening length: 8.12261 Bohr) occupying 0.386784 of unit cell:	Completed after 6 iterations at t[s]:  12438.92
	FillingsUpdate:  mu: -0.134500000  nElectrons: 304.637553  magneticMoment: [ Abs: 0.00028  Tot: +0.00009 ]
	SubspaceRotationAdjust: set factor to 0.0104
ElecMinimize: Iter:  17  G: -1649.618681513080219  |grad|_K:  1.515e-07  alpha:  7.469e-01  linmin: -6.681e-05  t[s]:  12473.59
	Linear fluid (dielectric constant: 78.4, screening length: 8.12261 Bohr) occupying 0.386852 of unit cell:	Completed after 14 iterations at t[s]:  12502.22
	Linear fluid (dielectric constant: 78.4, screening length: 8.12261 Bohr) occupying 0.386847 of unit cell:	Completed after 4 iterations at t[s]:  12524.02
	FillingsUpdate:  mu: -0.134500000  nElectrons: 304.638603  magneticMoment: [ Abs: 0.00027  Tot: +0.00009 ]
	SubspaceRotationAdjust: set factor to 0.0105
ElecMinimize: Iter:  18  G: -1649.618684209706316  |grad|_K:  1.831e-07  alpha:  6.915e-01  linmin:  1.010e-04  t[s]:  12558.53
	Linear fluid (dielectric constant: 78.4, screening length: 8.12261 Bohr) occupying 0.387178 of unit cell:	Completed after 15 iterations at t[s]:  12587.29
	Linear fluid (dielectric constant: 78.4, screening length: 8.12261 Bohr) occupying 0.386994 of unit cell:	Completed after 14 iterations at t[s]:  12610.41
	FillingsUpdate:  mu: -0.134500000  nElectrons: 304.640835  magneticMoment: [ Abs: 0.00026  Tot: +0.00009 ]
	SubspaceRotationAdjust: set factor to 0.00826
ElecMinimize: Iter:  19  G: -1649.618685912541650  |grad|_K:  1.809e-07  alpha:  3.061e-01  linmin:  8.970e-05  t[s]:  12644.90
	Linear fluid (dielectric constant: 78.4, screening length: 8.12261 Bohr) occupying 0.387012 of unit cell:	Completed after 13 iterations at t[s]:  12673.33
	Linear fluid (dielectric constant: 78.4, screening length: 8.12261 Bohr) occupying 0.387019 of unit cell:	Completed after 12 iterations at t[s]:  12696.27
	FillingsUpdate:  mu: -0.134500000  nElectrons: 304.641333  magneticMoment: [ Abs: 0.00023  Tot: +0.00008 ]
	SubspaceRotationAdjust: set factor to 0.00809
ElecMinimize: Iter:  20  G: -1649.618688261213947  |grad|_K:  1.429e-07  alpha:  4.257e-01  linmin:  8.532e-05  t[s]:  12730.92
	Linear fluid (dielectric constant: 78.4, screening length: 8.12261 Bohr) occupying 0.387048 of unit cell:	Completed after 5 iterations at t[s]:  12758.22
	Linear fluid (dielectric constant: 78.4, screening length: 8.12261 Bohr) occupying 0.387059 of unit cell:	Completed after 3 iterations at t[s]:  12779.92
	FillingsUpdate:  mu: -0.134500000  nElectrons: 304.642055  magneticMoment: [ Abs: 0.00021  Tot: +0.00008 ]
	SubspaceRotationAdjust: set factor to 0.00933
ElecMinimize: Iter:  21  G: -1649.618690316469156  |grad|_K:  1.214e-07  alpha:  5.952e-01  linmin: -2.044e-05  t[s]:  12814.48
	Linear fluid (dielectric constant: 78.4, screening length: 8.12261 Bohr) occupying 0.387115 of unit cell:	Completed after 14 iterations at t[s]:  12843.14
	Linear fluid (dielectric constant: 78.4, screening length: 8.12261 Bohr) occupying 0.387107 of unit cell:	Completed after 6 iterations at t[s]:  12865.22
	FillingsUpdate:  mu: -0.134500000  nElectrons: 304.642843  magneticMoment: [ Abs: 0.00020  Tot: +0.00008 ]
	SubspaceRotationAdjust: set factor to 0.00936
ElecMinimize: Iter:  22  G: -1649.618691596474946  |grad|_K:  1.188e-07  alpha:  5.123e-01  linmin:  1.183e-04  t[s]:  12900.00
	Linear fluid (dielectric constant: 78.4, screening length: 8.12261 Bohr) occupying 0.387016 of unit cell:	Completed after 14 iterations at t[s]:  12928.36
	Linear fluid (dielectric constant: 78.4, screening length: 8.12261 Bohr) occupying 0.387051 of unit cell:	Completed after 12 iterations at t[s]:  12951.27
	FillingsUpdate:  mu: -0.134500000  nElectrons: 304.642076  magneticMoment: [ Abs: 0.00019  Tot: +0.00007 ]
	SubspaceRotationAdjust: set factor to 0.00807
ElecMinimize: Iter:  23  G: -1649.618692340445705  |grad|_K:  1.051e-07  alpha:  3.138e-01  linmin: -4.760e-05  t[s]:  12985.93
	Linear fluid (dielectric constant: 78.4, screening length: 8.12261 Bohr) occupying 0.387052 of unit cell:	Completed after 12 iterations at t[s]:  13014.23
	Linear fluid (dielectric constant: 78.4, screening length: 8.12261 Bohr) occupying 0.387052 of unit cell:	Completed after 7 iterations at t[s]:  13036.49
	FillingsUpdate:  mu: -0.134500000  nElectrons: 304.642122  magneticMoment: [ Abs: 0.00017  Tot: +0.00007 ]
	SubspaceRotationAdjust: set factor to 0.00916
ElecMinimize: Iter:  24  G: -1649.618693151588559  |grad|_K:  8.056e-08  alpha:  4.333e-01  linmin: -1.769e-05  t[s]:  13071.11
	Linear fluid (dielectric constant: 78.4, screening length: 8.12261 Bohr) occupying 0.387026 of unit cell:	Completed after 3 iterations at t[s]:  13098.14
	Linear fluid (dielectric constant: 78.4, screening length: 8.12261 Bohr) occupying 0.387016 of unit cell:	Completed after 2 iterations at t[s]:  13119.85
	FillingsUpdate:  mu: -0.134500000  nElectrons: 304.641633  magneticMoment: [ Abs: 0.00017  Tot: +0.00007 ]
	SubspaceRotationAdjust: set factor to 0.0111
ElecMinimize: Iter:  25  G: -1649.618693813305526  |grad|_K:  6.933e-08  alpha:  6.016e-01  linmin: -3.005e-05  t[s]:  13154.59
	Linear fluid (dielectric constant: 78.4, screening length: 8.12261 Bohr) occupying 0.386949 of unit cell:	Completed after 12 iterations at t[s]:  13182.72
	Linear fluid (dielectric constant: 78.4, screening length: 8.12261 Bohr) occupying 0.386954 of unit cell:	Completed after 2 iterations at t[s]:  13204.43
	FillingsUpdate:  mu: -0.134500000  nElectrons: 304.640750  magneticMoment: [ Abs: 0.00016  Tot: +0.00007 ]
	SubspaceRotationAdjust: set factor to 0.0115
ElecMinimize: Iter:  26  G: -1649.618694264182750  |grad|_K:  7.837e-08  alpha:  5.529e-01  linmin:  2.998e-04  t[s]:  13239.30
	Linear fluid (dielectric constant: 78.4, screening length: 8.12261 Bohr) occupying 0.386956 of unit cell:	Completed after 13 iterations at t[s]:  13267.59
	Linear fluid (dielectric constant: 78.4, screening length: 8.12261 Bohr) occupying 0.386955 of unit cell:	Completed after 12 iterations at t[s]:  13290.49
	FillingsUpdate:  mu: -0.134500000  nElectrons: 304.640773  magneticMoment: [ Abs: 0.00016  Tot: +0.00007 ]
	SubspaceRotationAdjust: set factor to 0.00914
ElecMinimize: Iter:  27  G: -1649.618694514151230  |grad|_K:  6.778e-08  alpha:  2.486e-01  linmin:  1.031e-04  t[s]:  13325.17
	Linear fluid (dielectric constant: 78.4, screening length: 8.12261 Bohr) occupying 0.386915 of unit cell:	Completed after 9 iterations at t[s]:  13353.00
	Linear fluid (dielectric constant: 78.4, screening length: 8.12261 Bohr) occupying 0.386892 of unit cell:	Completed after 9 iterations at t[s]:  13375.64
	FillingsUpdate:  mu: -0.134500000  nElectrons: 304.639871  magneticMoment: [ Abs: 0.00015  Tot: +0.00007 ]
	SubspaceRotationAdjust: set factor to 0.00949
ElecMinimize: Iter:  28  G: -1649.618694822055659  |grad|_K:  4.873e-08  alpha:  3.967e-01  linmin: -1.164e-04  t[s]:  13410.33
	Linear fluid (dielectric constant: 78.4, screening length: 8.12261 Bohr) occupying 0.386865 of unit cell:	Completed after 5 iterations at t[s]:  13437.68
	Linear fluid (dielectric constant: 78.4, screening length: 8.12261 Bohr) occupying 0.386852 of unit cell:	Completed after 2 iterations at t[s]:  13459.24
	FillingsUpdate:  mu: -0.134500000  nElectrons: 304.639315  magneticMoment: [ Abs: 0.00015  Tot: +0.00007 ]
	SubspaceRotationAdjust: set factor to 0.0109
ElecMinimize: Iter:  29  G: -1649.618695058069989  |grad|_K:  4.099e-08  alpha:  5.853e-01  linmin: -1.299e-04  t[s]:  13494.05
	Linear fluid (dielectric constant: 78.4, screening length: 8.12261 Bohr) occupying 0.386834 of unit cell:	Completed after 6 iterations at t[s]:  13521.41
	Linear fluid (dielectric constant: 78.4, screening length: 8.12261 Bohr) occupying 0.386835 of unit cell:	Completed after 0 iterations at t[s]:  13542.44
	FillingsUpdate:  mu: -0.134500000  nElectrons: 304.639082  magneticMoment: [ Abs: 0.00015  Tot: +0.00007 ]
	SubspaceRotationAdjust: set factor to 0.0118
ElecMinimize: Iter:  30  G: -1649.618695215310709  |grad|_K:  3.764e-08  alpha:  5.505e-01  linmin:  3.831e-04  t[s]:  13577.15
	Linear fluid (dielectric constant: 78.4, screening length: 8.12261 Bohr) occupying 0.386792 of unit cell:	Completed after 12 iterations at t[s]:  13605.40
	Linear fluid (dielectric constant: 78.4, screening length: 8.12261 Bohr) occupying 0.386806 of unit cell:	Completed after 6 iterations at t[s]:  13627.49
	FillingsUpdate:  mu: -0.134500000  nElectrons: 304.638682  magneticMoment: [ Abs: 0.00015  Tot: +0.00007 ]
	SubspaceRotationAdjust: set factor to 0.0101
ElecMinimize: Iter:  31  G: -1649.618695303841150  |grad|_K:  4.187e-08  alpha:  3.670e-01  linmin:  9.072e-04  t[s]:  13662.24
	Linear fluid (dielectric constant: 78.4, screening length: 8.12261 Bohr) occupying 0.386815 of unit cell:	Completed after 10 iterations at t[s]:  13690.14
	Linear fluid (dielectric constant: 78.4, screening length: 8.12261 Bohr) occupying 0.386813 of unit cell:	Completed after 4 iterations at t[s]:  13712.13
	FillingsUpdate:  mu: -0.134500000  nElectrons: 304.638791  magneticMoment: [ Abs: 0.00015  Tot: +0.00007 ]
	SubspaceRotationAdjust: set factor to 0.00894
ElecMinimize: Iter:  32  G: -1649.618695383798240  |grad|_K:  3.137e-08  alpha:  2.768e-01  linmin:  4.208e-04  t[s]:  13746.85
ElecMinimize: Converged (|Delta G|<1.000000e-07 for 2 iters).
Setting wave functions to eigenvectors of Hamiltonian
Converging empty states (this may take a while): |deigs|: 6.945e-08

Computing DFT-D3 correction:
# coordination-number Pt 5.964 7.058 8.553 5.964 9.199 9.392 9.502 9.527 9.570 9.563 9.576 9.564 9.572 9.528 9.502 9.392 9.199 8.553 7.059
# diagonal-C6 Pt 336.87 336.87 336.87 336.87 336.87 336.87 336.87 336.87 336.87 336.87 336.87 336.87 336.87 336.87 336.87 336.87 336.87 336.87 336.87
EvdW_6 =   -0.179048
EvdW_8 =   -0.282294

# Ionic positions in cartesian coordinates:
ion Pt  -0.003698304453188   7.037629446598105  63.419696201108962 1
ion Pt   2.611284699248743   2.920550252246770  62.136899577881110 1
ion Pt   2.611575906192633  10.309694517183534  60.488904199665093 1
ion Pt   0.004009508406384   0.163792159725246  33.336839679705648 1
ion Pt  -0.008806751152832   6.052552334523691  58.440361171024982 1
ion Pt   2.606559360508752   1.790201032328562  56.912460883672090 1
ion Pt   2.605303550816337   9.070511242447141  55.153343011453366 1
ion Pt  -0.007775107416896   4.824669532418940  53.476145954117328 1
ion Pt   2.609549983249801   0.617243254442145  51.778829804725049 1
ion Pt   2.612348343036143   7.802666690315486  50.057975646929002 1
ion Pt  -0.000214067086564   3.601115009845379  48.377842889330658 1
ion Pt   0.003772036794698  10.802742278466788  46.698010532839476 1
ion Pt   2.622222453326649   6.584929766836272  44.977465153977647 1
ion Pt   0.007690857305595   2.377485831571278  43.280762295170604 1
ion Pt   0.010722582325004   9.534027793479959  41.603316184480327 1
ion Pt   2.625166349356358   5.411726646670758  39.844594748278162 1
ion Pt   0.009175579736704   1.149126393040917  38.316031817907813 1
ion Pt   0.004269401023834   8.294756091757019  36.267896240487431 1
ion Pt   2.620828618781828   4.280395726102014  34.619982007245156 1

# Forces in Cartesian coordinates:
force Pt   0.000006555743300   0.000271759247486   0.000327529601051 1
force Pt  -0.000023186476494   0.000073604069241   0.000727249839183 1
force Pt  -0.000034990129784  -0.000234940222562  -0.000218595136844 1
force Pt  -0.000008576571126  -0.000329907601590  -0.000296001814013 1
force Pt  -0.000119459265000  -0.000402575539268  -0.000757351533168 1
force Pt  -0.000026100358500   0.000023723411918   0.000037135849214 1
force Pt  -0.000027307556214   0.000163420895546  -0.000166724721310 1
force Pt   0.000026682723117  -0.000399031113104  -0.001239024005324 1
force Pt  -0.000024580513062  -0.000238256115615  -0.000215660228043 1
force Pt  -0.000022447669057   0.000270661610486   0.000105536455573 1
force Pt  -0.000000571071730   0.000006631387163   0.000036780202731 1
force Pt   0.000023112147123  -0.000304017669308  -0.000109400438106 1
force Pt   0.000025124514504   0.000267988967766   0.000214719840182 1
force Pt  -0.000026644641178   0.000366309462196   0.001118627536944 1
force Pt   0.000029218329422  -0.000120620271499   0.000096186133786 1
force Pt   0.000024969705224  -0.000057850915777  -0.000143290693712 1
force Pt   0.000118769892657   0.000415397848750   0.000780808433620 1
force Pt   0.000032986182684   0.000222788362320   0.000211161767324 1
force Pt   0.000021344019770  -0.000040128049433  -0.000639131011530 1

# Energy components:
   A_diel =       -0.3078969979492200
   Eewald =    11605.2352594933217915
       EH =    13180.8590022558782948
     Eloc =   -26769.4218649029753578
      Enl =      -20.0152186121531344
     EvdW =       -0.4613418382548954
      Exc =     -540.7915521660626155
 Exc_core =      311.4362495696909718
       KE =      542.9279486338089100
  MuShift =       -0.0500681222731871
-------------------------------------
     Etot =    -1690.5894826869698591
       TS =        0.0031300771163259
-------------------------------------
        F =    -1690.5926127640861978
      muN =      -40.9739173802879648
-------------------------------------
        G =    -1649.6186953837982401


Dumping 'jdft.fillings' ... done
Dumping 'jdft.wfns' ... done
Dumping 'jdft.fluidState' ... done
Dumping 'jdft.ionpos' ... done
Dumping 'jdft.lattice' ... done
Dumping 'jdft.eigenvals' ... done
Dumping 'jdft.eigStats' ... 
	eMin: -2.084428 at state 23 ( [ +0.454545 +0.000000 +0.000000 ] spin 1 )
	HOMO: -0.134505 at state 34 ( [ +0.090909 -0.400000 +0.000000 ] spin -1 )
	mu  : -0.134500
	LUMO: -0.134324 at state 55 ( [ +0.454545 -0.200000 +0.000000 ] spin -1 )
	eMax: +0.183211 at state 48 ( [ +0.363636 +0.400000 +0.000000 ] spin -1 )
	HOMO-LUMO gap: +0.000180
	Optical gap  : +0.000681 at state 18 ( [ +0.363636 +0.000000 +0.000000 ] spin 1 )
Dumping 'jdft.Ecomponents' ... done
IonicMinimize: Iter:   2  G: -1649.618695383798240  |grad|_K:  3.421e-04  alpha:  1.000e+00  linmin: -8.991e-01  t[s]:  13836.77
IonicMinimize: Converged (|Delta G|<1.000000e-04 for 2 iters).

#--- Lowdin population analysis ---
# oxidation-state Pt -0.135 -0.098 -0.065 -0.130 +0.001 +0.007 +0.016 +0.013 +0.012 +0.011 +0.014 +0.010 +0.010 +0.010 +0.013 +0.006 +0.001 -0.061 -0.093
# magnetic-moments Pt +0.000 -0.000 +0.000 +0.000 +0.000 +0.000 +0.000 +0.000 +0.000 +0.000 -0.000 +0.000 +0.000 +0.000 +0.000 +0.000 +0.000 +0.000 +0.000


Dumping 'jdft.n_up' ... done
Dumping 'jdft.n_dn' ... done
Dumping 'jdft.tau_up' ... done
Dumping 'jdft.tau_dn' ... done
Dumping 'jdft.eigenvals' ... done
Dumping 'jdft.eigStats' ... 
	eMin: -2.084428 at state 23 ( [ +0.454545 +0.000000 +0.000000 ] spin 1 )
	HOMO: -0.134505 at state 34 ( [ +0.090909 -0.400000 +0.000000 ] spin -1 )
	mu  : -0.134500
	LUMO: -0.134324 at state 55 ( [ +0.454545 -0.200000 +0.000000 ] spin -1 )
	eMax: +0.183211 at state 48 ( [ +0.363636 +0.400000 +0.000000 ] spin -1 )
	HOMO-LUMO gap: +0.000180
	Optical gap  : +0.000681 at state 18 ( [ +0.363636 +0.000000 +0.000000 ] spin 1 )
Dumping 'jdft.kPts' ... done
Dumping 'jdft.kMap' ... done
Dumping 'jdft.dosUp' ... done.
Dumping 'jdft.dosDn' ... done.
End date and time: Sat Sep 10 15:21:42 2022  (Duration: 0-3:51:31.78)
Done!

PROFILER:             augmentDensityGrid     4.532648 +/-     0.054075 s,  313 calls,   1418.718937 s total
PROFILER:         augmentDensityGridGrad     0.238461 +/-     0.046140 s,  161 calls,     38.392278 s total
PROFILER:        augmentDensitySpherical     0.002185 +/-     0.000099 s,  626 calls,      1.367504 s total
PROFILER:    augmentDensitySphericalGrad     0.002485 +/-     0.000432 s,  345 calls,      0.857381 s total
PROFILER:                 augmentOverlap     1.405143 +/-     0.097434 s, 1290 calls,   1812.634788 s total
PROFILER:                     diagouterI     3.931247 +/-     0.037593 s,  632 calls,   2484.548175 s total
PROFILER:              EdensityAndVscloc     2.904334 +/-     0.914068 s,  313 calls,    909.056475 s total
PROFILER:                     EnlAndGrad     0.007851 +/-     0.001014 s,  655 calls,      5.142157 s total
PROFILER:            ExCorrCommunication     0.023353 +/-     0.081912 s, 1913 calls,     44.674325 s total
PROFILER:               ExCorrFunctional     0.004089 +/-     0.000390 s,  323 calls,      1.320758 s total
PROFILER:                    ExCorrTotal     0.194323 +/-     0.177479 s,  323 calls,     62.766411 s total
PROFILER:                   Idag_DiagV_I     7.645280 +/-     1.159722 s,  339 calls,   2591.749855 s total
PROFILER:                    initWeights     1.924392 +/-     0.000000 s,    1 calls,      1.924392 s total
PROFILER:                    inv(matrix)     0.004323 +/-     0.000340 s,  620 calls,      2.680303 s total
PROFILER:            matrix::diagonalize     0.013173 +/-     0.004936 s,  963 calls,     12.685925 s total
PROFILER:                    matrix::set     0.000009 +/-     0.000009 s, 19160 calls,      0.179817 s total
PROFILER:            orthoMatrix(matrix)     0.002196 +/-     0.000945 s,  639 calls,      1.403439 s total
PROFILER:     RadialFunctionR::transform     0.051222 +/-     0.359815 s,   55 calls,      2.817227 s total
PROFILER:                    reduceKmesh     0.003462 +/-     0.000000 s,    1 calls,      0.003462 s total
PROFILER:   VanDerWaalsD3::energyAndGrad     0.013389 +/-     0.001184 s,    7 calls,      0.093720 s total
PROFILER:               WavefunctionDrag    13.179564 +/-     3.200687 s,    3 calls,     39.538693 s total
PROFILER:                            Y*M     0.426300 +/-     0.144831 s, 4204 calls,   1792.163810 s total
PROFILER:                          Y1^Y2     0.461497 +/-     0.148552 s, 2648 calls,   1222.044334 s total

MEMUSAGE:                   ColumnBundle     0.487638 GB
MEMUSAGE:        complexScalarFieldTilde     0.009270 GB
MEMUSAGE:                    IndexArrays     0.013718 GB
MEMUSAGE:                         matrix     0.026054 GB
MEMUSAGE:                           misc     0.009328 GB
MEMUSAGE:                    ScalarField     0.067205 GB
MEMUSAGE:               ScalarFieldTilde     0.049026 GB
MEMUSAGE:                          Total     0.563891 GB
