
*************** JDFTx 1.6.0  ***************

Start date and time: Mon Dec  6 17:07:54 2021
Executable /projects/musgravc/apps/jdftx-1.6.1/build/jdftx with command-line: -i in
Running on hosts (process indices):  shas0856.rc.int.colorado.edu (0-23)
Divided in process groups (process indices):  0 (0)  1 (1)  2 (2)  3 (3)  4 (4)  5 (5)  6 (6)  7 (7)  8 (8)  9 (9)  10 (10)  11 (11)  12 (12)  13 (13)  14 (14)  15 (15)  16 (16)  17 (17)  18 (18)  19 (19)  20 (20)  21 (21)  22 (22)  23 (23)
Resource initialization completed at t[s]:      0.00
Run totals: 24 processes, 24 threads, 0 GPUs


Input parsed successfully to the following command list (including defaults):

basis kpoint-dependent
converge-empty-states yes
coords-type Cartesian
core-overlap-check none
coulomb-interaction Periodic
davidson-band-ratio 1.1
density-of-states Etol 1.000000e-06 Esigma 1.000000e-03 \
		Complete \
	Total \
	OrthoOrbital Ag 1   s \
	OrthoOrbital Ag 1   p \
	OrthoOrbital Ag 1   px \
	OrthoOrbital Ag 1   py \
	OrthoOrbital Ag 1   pz \
	OrthoOrbital Ag 1   d \
	OrthoOrbital Ag 1   dxy \
	OrthoOrbital Ag 1   dyz \
	OrthoOrbital Ag 1   dz2 \
	OrthoOrbital Ag 1   dxz \
	OrthoOrbital Ag 1   dx2-y2 \
	OrthoOrbital Ag 2   s \
	OrthoOrbital Ag 2   p \
	OrthoOrbital Ag 2   px \
	OrthoOrbital Ag 2   py \
	OrthoOrbital Ag 2   pz \
	OrthoOrbital Ag 2   d \
	OrthoOrbital Ag 2   dxy \
	OrthoOrbital Ag 2   dyz \
	OrthoOrbital Ag 2   dz2 \
	OrthoOrbital Ag 2   dxz \
	OrthoOrbital Ag 2   dx2-y2 \
	OrthoOrbital Ag 3   s \
	OrthoOrbital Ag 3   p \
	OrthoOrbital Ag 3   px \
	OrthoOrbital Ag 3   py \
	OrthoOrbital Ag 3   pz \
	OrthoOrbital Ag 3   d \
	OrthoOrbital Ag 3   dxy \
	OrthoOrbital Ag 3   dyz \
	OrthoOrbital Ag 3   dz2 \
	OrthoOrbital Ag 3   dxz \
	OrthoOrbital Ag 3   dx2-y2 \
	OrthoOrbital Ag 4   s \
	OrthoOrbital Ag 4   p \
	OrthoOrbital Ag 4   px \
	OrthoOrbital Ag 4   py \
	OrthoOrbital Ag 4   pz \
	OrthoOrbital Ag 4   d \
	OrthoOrbital Ag 4   dxy \
	OrthoOrbital Ag 4   dyz \
	OrthoOrbital Ag 4   dz2 \
	OrthoOrbital Ag 4   dxz \
	OrthoOrbital Ag 4   dx2-y2 \
	OrthoOrbital Ag 5   s \
	OrthoOrbital Ag 5   p \
	OrthoOrbital Ag 5   px \
	OrthoOrbital Ag 5   py \
	OrthoOrbital Ag 5   pz \
	OrthoOrbital Ag 5   d \
	OrthoOrbital Ag 5   dxy \
	OrthoOrbital Ag 5   dyz \
	OrthoOrbital Ag 5   dz2 \
	OrthoOrbital Ag 5   dxz \
	OrthoOrbital Ag 5   dx2-y2 \
	OrthoOrbital Ag 6   s \
	OrthoOrbital Ag 6   p \
	OrthoOrbital Ag 6   px \
	OrthoOrbital Ag 6   py \
	OrthoOrbital Ag 6   pz \
	OrthoOrbital Ag 6   d \
	OrthoOrbital Ag 6   dxy \
	OrthoOrbital Ag 6   dyz \
	OrthoOrbital Ag 6   dz2 \
	OrthoOrbital Ag 6   dxz \
	OrthoOrbital Ag 6   dx2-y2 \
	OrthoOrbital Ag 7   s \
	OrthoOrbital Ag 7   p \
	OrthoOrbital Ag 7   px \
	OrthoOrbital Ag 7   py \
	OrthoOrbital Ag 7   pz \
	OrthoOrbital Ag 7   d \
	OrthoOrbital Ag 7   dxy \
	OrthoOrbital Ag 7   dyz \
	OrthoOrbital Ag 7   dz2 \
	OrthoOrbital Ag 7   dxz \
	OrthoOrbital Ag 7   dx2-y2 \
	OrthoOrbital Ag 8   s \
	OrthoOrbital Ag 8   p \
	OrthoOrbital Ag 8   px \
	OrthoOrbital Ag 8   py \
	OrthoOrbital Ag 8   pz \
	OrthoOrbital Ag 8   d \
	OrthoOrbital Ag 8   dxy \
	OrthoOrbital Ag 8   dyz \
	OrthoOrbital Ag 8   dz2 \
	OrthoOrbital Ag 8   dxz \
	OrthoOrbital Ag 8   dx2-y2 \
	OrthoOrbital Ag 9   s \
	OrthoOrbital Ag 9   p \
	OrthoOrbital Ag 9   px \
	OrthoOrbital Ag 9   py \
	OrthoOrbital Ag 9   pz \
	OrthoOrbital Ag 9   d \
	OrthoOrbital Ag 9   dxy \
	OrthoOrbital Ag 9   dyz \
	OrthoOrbital Ag 9   dz2 \
	OrthoOrbital Ag 9   dxz \
	OrthoOrbital Ag 9   dx2-y2 \
	OrthoOrbital Ag 10   s \
	OrthoOrbital Ag 10   p \
	OrthoOrbital Ag 10   px \
	OrthoOrbital Ag 10   py \
	OrthoOrbital Ag 10   pz \
	OrthoOrbital Ag 10   d \
	OrthoOrbital Ag 10   dxy \
	OrthoOrbital Ag 10   dyz \
	OrthoOrbital Ag 10   dz2 \
	OrthoOrbital Ag 10   dxz \
	OrthoOrbital Ag 10   dx2-y2 \
	OrthoOrbital Ag 11   s \
	OrthoOrbital Ag 11   p \
	OrthoOrbital Ag 11   px \
	OrthoOrbital Ag 11   py \
	OrthoOrbital Ag 11   pz \
	OrthoOrbital Ag 11   d \
	OrthoOrbital Ag 11   dxy \
	OrthoOrbital Ag 11   dyz \
	OrthoOrbital Ag 11   dz2 \
	OrthoOrbital Ag 11   dxz \
	OrthoOrbital Ag 11   dx2-y2
dump End ElecDensity KEdensity BandEigs EigStats RhoAtom DOS Kpoints
dump Ionic State IonicPositions Lattice EigStats Ecomponents
dump 
dump 
dump 
dump 
dump 
dump 
dump 
dump 
dump-name jdft.$VAR
elec-cutoff 20
elec-eigen-algo Davidson
elec-ex-corr gga-PBE
elec-initial-magnetization 0.000000 no
elec-n-bands 126
elec-smearing Fermi 0.001
electronic-minimize  \
	dirUpdateScheme      FletcherReeves \
	linminMethod         DirUpdateRecommended \
	nIterations          100 \
	history              15 \
	knormThreshold       0 \
	energyDiffThreshold  1e-07 \
	nEnergyDiff          2 \
	alphaTstart          1 \
	alphaTmin            1e-10 \
	updateTestStepSize   yes \
	alphaTreduceFactor   0.1 \
	alphaTincreaseFactor 3 \
	nAlphaAdjustMax      3 \
	wolfeEnergy          0.0001 \
	wolfeGradient        0.9 \
	fdTest               no
exchange-regularization WignerSeitzTruncated
fluid None
fluid-ex-corr lda-TF lda-PZ
fluid-gummel-loop 10 1.000000e-05
fluid-minimize  \
	dirUpdateScheme      PolakRibiere \
	linminMethod         DirUpdateRecommended \
	nIterations          100 \
	history              15 \
	knormThreshold       0 \
	energyDiffThreshold  0 \
	nEnergyDiff          2 \
	alphaTstart          1 \
	alphaTmin            1e-10 \
	updateTestStepSize   yes \
	alphaTreduceFactor   0.1 \
	alphaTincreaseFactor 3 \
	nAlphaAdjustMax      3 \
	wolfeEnergy          0.0001 \
	wolfeGradient        0.9 \
	fdTest               no
fluid-solvent H2O 55.338 ScalarEOS \
	epsBulk 78.4 \
	pMol 0.92466 \
	epsInf 1.77 \
	Pvap 1.06736e-10 \
	sigmaBulk 4.62e-05 \
	Rvdw 2.61727 \
	Res 1.42 \
	tauNuc 343133 \
	poleEl 15 7 1
forces-output-coords Positions
ion Ag   0.000000000000000   0.000000000000000  24.268516999999999 1
ion Ag  -0.000002000000000   4.902982000000000   1.155680000000000 1
ion Ag   2.710226000000000   0.817162000000000   3.466964000000000 1
ion Ag   2.710224000000000   5.720144000000000   5.778247000000000 1
ion Ag   0.000000000000000   1.634324000000000   8.089530999999999 1
ion Ag  -0.000002000000000   6.537306000000000  10.400814999999998 1
ion Ag   2.710226000000000   2.451486000000000  12.712097999999997 1
ion Ag   2.710224000000001   7.354468000000001  15.023381999999998 1
ion Ag   0.000000000000000   3.268648000000000  17.334665999999999 1
ion Ag  -0.000002000000000   8.171630000000000  19.645949000000002 1
ion Ag   2.710227000000000   4.085811000000000  21.957232999999999 1
ion-species /projects/musgravc/apps/jdftx-1.6.0/build/pseudopotentials/GBRV_v1.5/$ID_pbe_v1.uspp
ion-species /projects/musgravc/apps/jdftx-1.6.0/build/pseudopotentials/GBRV_v1.5/$ID_pbe_v1.2.uspp
ion-species /projects/musgravc/apps/jdftx-1.6.0/build/pseudopotentials/GBRV_v1.5/$ID_pbe_v1.4.uspp
ion-species /projects/musgravc/apps/jdftx-1.6.0/build/pseudopotentials/GBRV_v1.5/$ID_pbe_v1.5.uspp
ion-width 0
ionic-minimize  \
	dirUpdateScheme      L-BFGS \
	linminMethod         DirUpdateRecommended \
	nIterations          100 \
	history              15 \
	knormThreshold       0.0001 \
	energyDiffThreshold  1e-06 \
	nEnergyDiff          2 \
	alphaTstart          1 \
	alphaTmin            1e-10 \
	updateTestStepSize   yes \
	alphaTreduceFactor   0.1 \
	alphaTincreaseFactor 3 \
	nAlphaAdjustMax      3 \
	wolfeEnergy          0.0001 \
	wolfeGradient        0.9 \
	fdTest               no
kpoint   0.000000000000   0.000000000000   0.000000000000  1.00000000000000
kpoint-folding 13 7 1 
latt-move-scale 0 0 0
latt-scale 1 1 1 
lattice  \
	   5.420447000000000   -2.710223000000000    0.000000000000000  \
	   0.000000000000000    8.988792000000000    0.000000000000000  \
	   0.000000000000000    0.000000000000000   76.272437999999994 
lattice-minimize  \
	dirUpdateScheme      L-BFGS \
	linminMethod         DirUpdateRecommended \
	nIterations          0 \
	history              15 \
	knormThreshold       0 \
	energyDiffThreshold  1e-06 \
	nEnergyDiff          2 \
	alphaTstart          1 \
	alphaTmin            1e-10 \
	updateTestStepSize   yes \
	alphaTreduceFactor   0.1 \
	alphaTincreaseFactor 3 \
	nAlphaAdjustMax      3 \
	wolfeEnergy          0.0001 \
	wolfeGradient        0.9 \
	fdTest               no
lcao-params 30 1e-06 0.001
pcm-variant GLSSA13
spintype z-spin
subspace-rotation-factor 1 yes
symmetries none
symmetry-threshold 0.0001
van-der-waals D3


Applied RMS atom displacement 0 bohrs to make symmetries exact.

---------- Initializing the Grid ----------
R = 
[      5.42045     -2.71022            0  ]
[            0      8.98879            0  ]
[            0            0      76.2724  ]
unit cell volume = 3716.24
G =
[    1.15916   0.349501         -0  ]
[          0   0.699002          0  ]
[          0         -0  0.0823782  ]
Minimum fftbox size, Smin = [  24  40  308  ]
Chosen fftbox size, S = [  24  40  320  ]

---------- Exchange Correlation functional ----------
Initalized PBE GGA exchange.
Initalized PBE GGA correlation.

---------- Setting up pseudopotentials ----------
Width of ionic core gaussian charges (only for fluid interactions / plotting) set to 0

Reading pseudopotential file '/projects/musgravc/apps/jdftx-1.6.0/build/pseudopotentials/GBRV_v1.5/ag_pbe_v1.4.uspp':
  Title: Ag.  Created by USPP 7.3.6 on 1-4-15
  Reference state energy: -147.606242.  19 valence electrons in orbitals:
    |400>  occupation: 2  eigenvalue: -3.637437
    |410>  occupation: 6  eigenvalue: -2.297267
    |420>  occupation: 10  eigenvalue: -0.417763
    |500>  occupation: 0.5  eigenvalue: -0.283525
    |510>  occupation: 0  eigenvalue: -0.122889
  lMax: 2  lLocal: 0  QijEcut: 5.5
  6 projectors sampled on a log grid with 717 points:
    l: 0  eig: -0.283528  rCut: 1.5
    l: 0  eig: -3.637440  rCut: 1.5
    l: 1  eig: -0.122892  rCut: 1.5
    l: 1  eig: -2.297267  rCut: 1.5
    l: 2  eig: -0.417762  rCut: 1.7
    l: 2  eig: -1.000000  rCut: 1.7
  Partial core density with radius 1.2
  Transforming core density to a uniform radial grid of dG=0.02 with 1326 points.
  Transforming local potential to a uniform radial grid of dG=0.02 with 1326 points.
  Transforming nonlocal projectors to a uniform radial grid of dG=0.02 with 432 points.
  Transforming density augmentations to a uniform radial grid of dG=0.02 with 1326 points.
  Transforming atomic orbitals to a uniform radial grid of dG=0.02 with 432 points.
  Core radius for overlap checks: 1.70 bohrs.

Initialized 1 species with 11 total atoms.

Folded 1 k-points by 13x7x1 to 91 k-points.

---------- Setting up k-points, bands, fillings ----------
No reducable k-points. 
Computing the number of bands and number of electrons
Calculating initial fillings.
nElectrons: 209.000000   nBands: 126   nStates: 182

----- Setting up reduced wavefunction bases (one per k-point) -----
average nbasis = 15874.978 , ideal nbasis = 15876.072

----- Initializing Supercell corresponding to k-point mesh -----
Lattice vector linear combinations in supercell:
[  13   0   0  ]
[   0   7   0  ]
[   0   0   1  ]
Supercell lattice vectors:
[  70.4658  -18.9716  0  ]
[  0  62.9215  0  ]
[  0  0  76.2724  ]

Initializing DFT-D3 calculator:
	Parameters set for gga-PBE functional
	s6:  1.000  s_r6:  1.217
	s8:  0.722  s_r8:  1.000
	Per-atom parameters loaded for:
	Ag:  sqrtQ[a0]:  5.443  Rcov[a0]:  2.173  CN: [ 0.00 0.97 ]

---------- Setting up ewald sum ----------
Optimum gaussian width for ewald sums = 4.143614 bohr.
Real space sum over 1235 unit cells with max indices [  9  6  2  ]
Reciprocal space sum over 4543 terms with max indices [  3  5  29  ]

Computing DFT-D3 correction:
# coordination-number Ag 5.364 5.364 7.664 9.176 9.205 9.210 9.210 9.210 9.205 9.176 7.664
# diagonal-C6 Ag 268.61 268.61 268.61 268.61 268.61 268.61 268.61 268.61 268.61 268.61 268.61
EvdW_6 =   -0.070449
EvdW_8 =   -0.095628

---------- Allocating electronic variables ----------
Initializing wave functions:  linear combination of atomic orbitals
Ag pseudo-atom occupations:   s ( 2 1 )  p ( 6 0 )  d ( 10 )
	FillingsUpdate:  mu: -0.049973516  nElectrons: 209.000000  magneticMoment: [ Abs: 0.00065  Tot: +0.00005 ]
LCAOMinimize: Iter:   0  F: -1623.5093045801711469  |grad|_K:  7.046e-04  alpha:  1.000e+00
	FillingsUpdate:  mu: +0.295457589  nElectrons: 209.000000  magneticMoment: [ Abs: 0.00054  Tot: +0.00001 ]
LCAOMinimize: Iter:   1  F: -1623.5279827387691967  |grad|_K:  8.576e-04  alpha:  1.343e-01  linmin:  8.348e-02  cgtest: -6.795e-01  t[s]:     98.47
LCAOMinimize: 	Bad step direction: g.d > 0.
LCAOMinimize: 	Undoing step.
LCAOMinimize: 	Step failed: resetting search direction.
	FillingsUpdate:  mu: +0.295457589  nElectrons: 209.000000  magneticMoment: [ Abs: 0.00054  Tot: +0.00001 ]
LCAOMinimize: Iter:   2  F: -1623.5279827387691967  |grad|_K:  8.576e-04  alpha:  0.000e+00
	FillingsUpdate:  mu: +0.087032654  nElectrons: 209.000000  magneticMoment: [ Abs: 0.00054  Tot: -0.00003 ]
LCAOMinimize: Iter:   3  F: -1623.6139470701232312  |grad|_K:  2.278e-04  alpha:  5.965e-02  linmin: -8.312e-03  cgtest:  8.088e-02  t[s]:    167.91
LCAOMinimize: 	Predicted alpha/alphaT>3.000000, increasing alphaT to 1.789473e-01.
	FillingsUpdate:  mu: +0.118255704  nElectrons: 209.000000  magneticMoment: [ Abs: 0.00040  Tot: -0.00000 ]
LCAOMinimize: Iter:   4  F: -1623.6607405113279583  |grad|_K:  1.256e-04  alpha:  4.445e-01  linmin: -2.314e-02  cgtest:  1.704e-01  t[s]:    218.21
	FillingsUpdate:  mu: +0.117050108  nElectrons: 209.000000  magneticMoment: [ Abs: 0.00040  Tot: -0.00000 ]
LCAOMinimize: Iter:   5  F: -1623.6617391534241506  |grad|_K:  4.815e-05  alpha:  3.090e-02  linmin: -8.955e-04  cgtest: -2.113e-01  t[s]:    257.82
LCAOMinimize: 	Predicted alpha/alphaT>3.000000, increasing alphaT to 9.269035e-02.
	FillingsUpdate:  mu: +0.102841239  nElectrons: 209.000000  magneticMoment: [ Abs: 0.00039  Tot: -0.00002 ]
LCAOMinimize: Iter:   6  F: -1623.6624342864506616  |grad|_K:  4.886e-05  alpha:  1.581e-01  linmin:  8.911e-06  cgtest:  1.378e-01  t[s]:    307.92
	FillingsUpdate:  mu: +0.107948257  nElectrons: 209.000000  magneticMoment: [ Abs: 0.00039  Tot: -0.00002 ]
LCAOMinimize: Iter:   7  F: -1623.6628200855766408  |grad|_K:  4.399e-05  alpha:  8.616e-02  linmin:  1.927e-04  cgtest: -1.303e-03  t[s]:    347.87
	FillingsUpdate:  mu: +0.111255944  nElectrons: 209.000000  magneticMoment: [ Abs: 0.00039  Tot: -0.00002 ]
LCAOMinimize: Iter:   8  F: -1623.6629527922129910  |grad|_K:  1.279e-05  alpha:  3.657e-02  linmin:  8.178e-04  cgtest: -1.029e-02  t[s]:    387.87
LCAOMinimize: 	Predicted alpha/alphaT>3.000000, increasing alphaT to 1.097219e-01.
	FillingsUpdate:  mu: +0.109410675  nElectrons: 209.000000  magneticMoment: [ Abs: 0.00038  Tot: -0.00002 ]
LCAOMinimize: Iter:   9  F: -1623.6629996047061013  |grad|_K:  1.219e-05  alpha:  1.519e-01  linmin: -1.665e-04  cgtest:  3.949e-03  t[s]:    437.86
	FillingsUpdate:  mu: +0.109799306  nElectrons: 209.000000  magneticMoment: [ Abs: 0.00038  Tot: -0.00002 ]
LCAOMinimize: Iter:  10  F: -1623.6630105004192046  |grad|_K:  6.701e-06  alpha:  3.889e-02  linmin:  2.478e-04  cgtest: -9.995e-03  t[s]:    477.69
	FillingsUpdate:  mu: +0.111199100  nElectrons: 209.000000  magneticMoment: [ Abs: 0.00038  Tot: -0.00002 ]
LCAOMinimize: Iter:  11  F: -1623.6630163697861917  |grad|_K:  2.176e-06  alpha:  6.939e-02  linmin: -2.573e-04  cgtest:  1.225e-02  t[s]:    517.57
	FillingsUpdate:  mu: +0.111008210  nElectrons: 209.000000  magneticMoment: [ Abs: 0.00038  Tot: -0.00002 ]
LCAOMinimize: Iter:  12  F: -1623.6630171903739210  |grad|_K:  3.046e-06  alpha:  9.176e-02  linmin: -1.694e-05  cgtest: -6.441e-04  t[s]:    557.38
	FillingsUpdate:  mu: +0.110580492  nElectrons: 209.000000  magneticMoment: [ Abs: 0.00038  Tot: -0.00002 ]
LCAOMinimize: Iter:  13  F: -1623.6630186404279357  |grad|_K:  1.747e-06  alpha:  8.282e-02  linmin: -1.348e-05  cgtest:  5.711e-04  t[s]:    597.38
	FillingsUpdate:  mu: +0.110911189  nElectrons: 209.000000  magneticMoment: [ Abs: 0.00038  Tot: -0.00002 ]
LCAOMinimize: Iter:  14  F: -1623.6630191615890908  |grad|_K:  9.867e-07  alpha:  9.052e-02  linmin: -3.959e-05  cgtest: -8.849e-05  t[s]:    637.31
	FillingsUpdate:  mu: +0.110939259  nElectrons: 209.000000  magneticMoment: [ Abs: 0.00038  Tot: -0.00002 ]
LCAOMinimize: Iter:  15  F: -1623.6630192282309508  |grad|_K:  6.030e-07  alpha:  3.620e-02  linmin:  9.525e-05  cgtest: -1.407e-03  t[s]:    677.15
LCAOMinimize: Converged (|Delta F|<1.000000e-06 for 2 iters).


---- Citations for features of the code used in this run ----

   Software package:
      R. Sundararaman, K. Letchworth-Weaver, K.A. Schwarz, D. Gunceler, Y. Ozhabes and T.A. Arias, 'JDFTx: software for joint density-functional theory', SoftwareX 6, 278 (2017)

   gga-PBE exchange-correlation functional:
      J.P. Perdew, K. Burke and M. Ernzerhof, Phys. Rev. Lett. 77, 3865 (1996)

   Pseudopotentials:
      KF Garrity, JW Bennett, KM Rabe and D Vanderbilt, Comput. Mater. Sci. 81, 446 (2014)

   DFT-D3 dispersion correction:
      S. Grimme, J. Antony, S. Ehrlich and H. Krieg, J. Chem. Phys. 132, 154104 (2010)

   Total energy minimization with Auxiliary Hamiltonian:
      C. Freysoldt, S. Boeck, and J. Neugebauer, Phys. Rev. B 79, 241103(R) (2009)

   Linear-tetrahedron sampling for density of states:
      G. Lehmann and M. Taut, Phys. status solidi (b) 54, 469 (1972)

This list may not be complete. Please suggest additional citations or
report any other bugs at https://github.com/shankar1729/jdftx/issues

Initialization completed successfully at t[s]:    682.14


Computing DFT-D3 correction:
# coordination-number Ag 5.364 5.364 7.664 9.176 9.205 9.210 9.210 9.210 9.205 9.176 7.664
# diagonal-C6 Ag 268.61 268.61 268.61 268.61 268.61 268.61 268.61 268.61 268.61 268.61 268.61
EvdW_6 =   -0.070449
EvdW_8 =   -0.095628

-------- Electronic minimization -----------
	FillingsUpdate:  mu: +0.110939260  nElectrons: 209.000000  magneticMoment: [ Abs: 0.00038  Tot: -0.00002 ]
ElecMinimize: Iter:   0  F: -1623.663019228238227  |grad|_K:  1.710e-05  alpha:  1.000e+00
	FillingsUpdate:  mu: +0.118447094  nElectrons: 209.000000  magneticMoment: [ Abs: 0.00029  Tot: -0.00002 ]
	SubspaceRotationAdjust: set factor to 1
ElecMinimize: Iter:   1  F: -1623.709065030976035  |grad|_K:  1.175e-05  alpha:  4.323e-01  linmin:  2.723e-05  t[s]:    767.68
	FillingsUpdate:  mu: +0.103388607  nElectrons: 209.000000  magneticMoment: [ Abs: 0.00022  Tot: -0.00003 ]
	SubspaceRotationAdjust: set factor to 0.905
ElecMinimize: Iter:   2  F: -1623.722837446378662  |grad|_K:  7.064e-06  alpha:  2.726e-01  linmin: -1.433e-05  t[s]:    819.83
	FillingsUpdate:  mu: +0.112475971  nElectrons: 209.000000  magneticMoment: [ Abs: 0.00020  Tot: -0.00003 ]
	SubspaceRotationAdjust: set factor to 0.627
ElecMinimize: Iter:   3  F: -1623.724097312482400  |grad|_K:  7.532e-06  alpha:  6.916e-02  linmin:  1.081e-05  t[s]:    872.52
	FillingsUpdate:  mu: +0.129165348  nElectrons: 209.000000  magneticMoment: [ Abs: 0.00017  Tot: -0.00002 ]
	SubspaceRotationAdjust: set factor to 0.432
ElecMinimize: Iter:   4  F: -1623.726267585325104  |grad|_K:  5.601e-06  alpha:  1.048e-01  linmin: -7.822e-06  t[s]:    924.87
	FillingsUpdate:  mu: +0.115138179  nElectrons: 209.000000  magneticMoment: [ Abs: 0.00013  Tot: -0.00003 ]
	SubspaceRotationAdjust: set factor to 0.589
ElecMinimize: Iter:   5  F: -1623.728027692151045  |grad|_K:  2.770e-06  alpha:  1.535e-01  linmin:  1.866e-05  t[s]:    976.89
	FillingsUpdate:  mu: +0.110981367  nElectrons: 209.000000  magneticMoment: [ Abs: 0.00011  Tot: -0.00003 ]
	SubspaceRotationAdjust: set factor to 0.395
ElecMinimize: Iter:   6  F: -1623.728488330393930  |grad|_K:  3.532e-06  alpha:  1.645e-01  linmin:  4.612e-06  t[s]:   1029.38
	FillingsUpdate:  mu: +0.111536467  nElectrons: 209.000000  magneticMoment: [ Abs: 0.00009  Tot: -0.00003 ]
	SubspaceRotationAdjust: set factor to 0.326
ElecMinimize: Iter:   7  F: -1623.729074745735261  |grad|_K:  1.743e-06  alpha:  1.286e-01  linmin:  2.051e-06  t[s]:   1082.06
	FillingsUpdate:  mu: +0.118684840  nElectrons: 209.000000  magneticMoment: [ Abs: 0.00007  Tot: -0.00003 ]
	SubspaceRotationAdjust: set factor to 0.22
ElecMinimize: Iter:   8  F: -1623.729341162281116  |grad|_K:  1.308e-06  alpha:  2.398e-01  linmin: -2.585e-05  t[s]:   1134.37
	FillingsUpdate:  mu: +0.117716655  nElectrons: 209.000000  magneticMoment: [ Abs: 0.00006  Tot: -0.00003 ]
	SubspaceRotationAdjust: set factor to 0.224
ElecMinimize: Iter:   9  F: -1623.729519104016390  |grad|_K:  9.374e-07  alpha:  2.841e-01  linmin:  2.430e-05  t[s]:   1186.51
	FillingsUpdate:  mu: +0.115519532  nElectrons: 209.000000  magneticMoment: [ Abs: 0.00005  Tot: -0.00003 ]
	SubspaceRotationAdjust: set factor to 0.158
ElecMinimize: Iter:  10  F: -1623.729593504217291  |grad|_K:  6.485e-07  alpha:  2.319e-01  linmin:  6.878e-06  t[s]:   1238.89
	FillingsUpdate:  mu: +0.115463356  nElectrons: 209.000000  magneticMoment: [ Abs: 0.00005  Tot: -0.00003 ]
	SubspaceRotationAdjust: set factor to 0.163
ElecMinimize: Iter:  11  F: -1623.729645286067125  |grad|_K:  4.850e-07  alpha:  3.375e-01  linmin:  2.327e-05  t[s]:   1291.14
	FillingsUpdate:  mu: +0.116814503  nElectrons: 209.000000  magneticMoment: [ Abs: 0.00004  Tot: -0.00002 ]
	SubspaceRotationAdjust: set factor to 0.182
ElecMinimize: Iter:  12  F: -1623.729673483602937  |grad|_K:  3.134e-07  alpha:  3.288e-01  linmin:  3.811e-06  t[s]:   1343.17
	FillingsUpdate:  mu: +0.117023377  nElectrons: 209.000000  magneticMoment: [ Abs: 0.00004  Tot: -0.00002 ]
	SubspaceRotationAdjust: set factor to 0.19
ElecMinimize: Iter:  13  F: -1623.729688440942255  |grad|_K:  2.656e-07  alpha:  4.171e-01  linmin:  1.104e-05  t[s]:   1395.18
	FillingsUpdate:  mu: +0.116721554  nElectrons: 209.000000  magneticMoment: [ Abs: 0.00004  Tot: -0.00002 ]
	SubspaceRotationAdjust: set factor to 0.167
ElecMinimize: Iter:  14  F: -1623.729695808283850  |grad|_K:  2.149e-07  alpha:  2.859e-01  linmin:  4.123e-07  t[s]:   1447.35
	FillingsUpdate:  mu: +0.116621945  nElectrons: 209.000000  magneticMoment: [ Abs: 0.00003  Tot: -0.00002 ]
	SubspaceRotationAdjust: set factor to 0.185
ElecMinimize: Iter:  15  F: -1623.729702488132034  |grad|_K:  1.685e-07  alpha:  3.963e-01  linmin:  9.099e-06  t[s]:   1500.19
	FillingsUpdate:  mu: +0.117048170  nElectrons: 209.000000  magneticMoment: [ Abs: 0.00003  Tot: -0.00001 ]
	SubspaceRotationAdjust: set factor to 0.209
ElecMinimize: Iter:  16  F: -1623.729706874949215  |grad|_K:  1.495e-07  alpha:  4.242e-01  linmin:  2.071e-06  t[s]:   1552.36
	FillingsUpdate:  mu: +0.117176677  nElectrons: 209.000000  magneticMoment: [ Abs: 0.00003  Tot: -0.00001 ]
	SubspaceRotationAdjust: set factor to 0.21
ElecMinimize: Iter:  17  F: -1623.729709989727553  |grad|_K:  1.318e-07  alpha:  3.817e-01  linmin:  2.964e-06  t[s]:   1604.39
	FillingsUpdate:  mu: +0.117017537  nElectrons: 209.000000  magneticMoment: [ Abs: 0.00002  Tot: -0.00001 ]
	SubspaceRotationAdjust: set factor to 0.171
ElecMinimize: Iter:  18  F: -1623.729711836585921  |grad|_K:  1.092e-07  alpha:  2.911e-01  linmin:  1.013e-06  t[s]:   1656.19
	FillingsUpdate:  mu: +0.116960170  nElectrons: 209.000000  magneticMoment: [ Abs: 0.00002  Tot: -0.00001 ]
	SubspaceRotationAdjust: set factor to 0.164
ElecMinimize: Iter:  19  F: -1623.729713124460432  |grad|_K:  7.594e-08  alpha:  2.960e-01  linmin:  1.717e-06  t[s]:   1708.05
	FillingsUpdate:  mu: +0.117139483  nElectrons: 209.000000  magneticMoment: [ Abs: 0.00001  Tot: -0.00000 ]
	SubspaceRotationAdjust: set factor to 0.177
ElecMinimize: Iter:  20  F: -1623.729713967788257  |grad|_K:  5.638e-08  alpha:  4.007e-01  linmin:  2.906e-07  t[s]:   1759.63
	FillingsUpdate:  mu: +0.117175227  nElectrons: 209.000000  magneticMoment: [ Abs: 0.00001  Tot: -0.00000 ]
	SubspaceRotationAdjust: set factor to 0.165
ElecMinimize: Iter:  21  F: -1623.729714344023932  |grad|_K:  4.484e-08  alpha:  3.239e-01  linmin: -2.291e-08  t[s]:   1811.84
	FillingsUpdate:  mu: +0.117117249  nElectrons: 209.000000  magneticMoment: [ Abs: 0.00001  Tot: -0.00000 ]
	SubspaceRotationAdjust: set factor to 0.143
ElecMinimize: Iter:  22  F: -1623.729714575538310  |grad|_K:  3.180e-08  alpha:  3.153e-01  linmin:  5.520e-07  t[s]:   1863.73
	FillingsUpdate:  mu: +0.117094746  nElectrons: 209.000000  magneticMoment: [ Abs: 0.00001  Tot: -0.00000 ]
	SubspaceRotationAdjust: set factor to 0.154
ElecMinimize: Iter:  23  F: -1623.729714699816668  |grad|_K:  2.334e-08  alpha:  3.365e-01  linmin: -4.596e-07  t[s]:   1915.65
	FillingsUpdate:  mu: +0.117121541  nElectrons: 209.000000  magneticMoment: [ Abs: 0.00001  Tot: -0.00000 ]
	SubspaceRotationAdjust: set factor to 0.167
ElecMinimize: Iter:  24  F: -1623.729714770129249  |grad|_K:  1.718e-08  alpha:  3.530e-01  linmin:  7.440e-07  t[s]:   1967.62
	FillingsUpdate:  mu: +0.117135452  nElectrons: 209.000000  magneticMoment: [ Abs: 0.00000  Tot: -0.00000 ]
	SubspaceRotationAdjust: set factor to 0.164
ElecMinimize: Iter:  25  F: -1623.729714807953314  |grad|_K:  1.416e-08  alpha:  3.513e-01  linmin:  5.129e-07  t[s]:   2019.59
ElecMinimize: Converged (|Delta F|<1.000000e-07 for 2 iters).
Setting wave functions to eigenvectors of Hamiltonian
Converging empty states (this may take a while): |deigs|: 1.793e-02

Computing DFT-D3 correction:
# coordination-number Ag 5.364 5.364 7.664 9.176 9.205 9.210 9.210 9.210 9.205 9.176 7.664
# diagonal-C6 Ag 268.61 268.61 268.61 268.61 268.61 268.61 268.61 268.61 268.61 268.61 268.61
EvdW_6 =   -0.070449
EvdW_8 =   -0.095628

# Ionic positions in cartesian coordinates:
ion Ag   0.000000000000000   0.000000000000000  24.268516999999999 1
ion Ag  -0.000002000000000   4.902982000000000   1.155680000000000 1
ion Ag   2.710226000000000   0.817162000000000   3.466964000000000 1
ion Ag   2.710224000000000   5.720144000000000   5.778247000000000 1
ion Ag   0.000000000000000   1.634324000000000   8.089530999999999 1
ion Ag  -0.000002000000000   6.537306000000000  10.400814999999998 1
ion Ag   2.710226000000000   2.451486000000000  12.712097999999997 1
ion Ag   2.710224000000001   7.354468000000001  15.023381999999998 1
ion Ag   0.000000000000000   3.268648000000000  17.334665999999999 1
ion Ag  -0.000002000000000   8.171630000000000  19.645949000000002 1
ion Ag   2.710227000000000   4.085811000000000  21.957232999999999 1

# Forces in Cartesian coordinates:
force Ag  -0.000012165637286  -0.001246273967673  -0.001567378713229 1
force Ag   0.000032643475829   0.001315824930036   0.001303910071153 1
force Ag  -0.000042031644004  -0.001287639802671  -0.005827884954223 1
force Ag   0.000001586784048   0.000845135614299  -0.000620316900188 1
force Ag   0.000019324708296  -0.000659012054613   0.001949961169126 1
force Ag   0.000036161120484  -0.000423985166114   0.000091699549923 1
force Ag  -0.000028017243865   0.000015679983478   0.000069226649206 1
force Ag   0.000011801228741   0.000460077651865   0.000120401845489 1
force Ag  -0.000051116602219   0.000595222803656  -0.001812512461259 1
force Ag   0.000018735047525  -0.000877881186447   0.000713288754465 1
force Ag   0.000004860071055   0.001289657387312   0.005891771403384 1

# Energy components:
   Eewald =    14808.5158420382340410
       EH =    16273.3698911928022426
     Eloc =   -32960.6912936377339065
      Enl =       43.3850599413712601
     EvdW =       -0.1660768711704258
      Exc =     -159.4201934375869882
 Exc_core =        2.2898749859692806
       KE =      368.9874115118963118
-------------------------------------
     Etot =    -1623.7294842762180451
       TS =        0.0002305317351829
-------------------------------------
        F =    -1623.7297148079533144


Dumping 'jdft.fillings' ... done
Dumping 'jdft.wfns' ... done
Dumping 'jdft.ionpos' ... done
Dumping 'jdft.lattice' ... done
Dumping 'jdft.eigenvals' ... done
Dumping 'jdft.eigStats' ... 
	eMin: -3.268194 at state 0 ( [ +0.000000 +0.000000 +0.000000 ] spin 1 )
	HOMO: +0.116980 at state 90 ( [ -0.076923 -0.142857 +0.000000 ] spin 1 )
	mu  : +0.117135
	LUMO: +0.117692 at state 128 ( [ +0.384615 +0.285714 +0.000000 ] spin -1 )
	eMax: +0.444859 at state 135 ( [ +0.461538 +0.285714 +0.000000 ] spin -1 )
	HOMO-LUMO gap: +0.000712
	Optical gap  : +0.007006 at state 145 ( [ -0.461538 -0.285714 +0.000000 ] spin -1 )
Dumping 'jdft.Ecomponents' ... done
IonicMinimize: Iter:   0  F: -1623.729714807953314  |grad|_K:  1.652e-03  t[s]:   2206.23

#--- Lowdin population analysis ---
# oxidation-state Ag +0.098 +0.097 -0.036 -0.040 +0.003 +0.002 +0.003 +0.002 +0.003 -0.039 -0.036
# magnetic-moments Ag -0.000 -0.000 -0.000 -0.000 -0.000 -0.000 -0.000 -0.000 -0.000 -0.000 -0.000


Computing DFT-D3 correction:
# coordination-number Ag 5.372 5.371 7.657 9.171 9.198 9.211 9.214 9.211 9.198 9.172 7.657
# diagonal-C6 Ag 268.61 268.61 268.61 268.61 268.61 268.61 268.61 268.61 268.61 268.61 268.61
EvdW_6 =   -0.070440
EvdW_8 =   -0.095616

-------- Electronic minimization -----------
	FillingsUpdate:  mu: +0.116848093  nElectrons: 209.000000  magneticMoment: [ Abs: 0.00000  Tot: -0.00000 ]
ElecMinimize: Iter:   0  F: -1623.729784031643703  |grad|_K:  2.556e-07  alpha:  1.000e+00
	FillingsUpdate:  mu: +0.116990332  nElectrons: 209.000000  magneticMoment: [ Abs: 0.00000  Tot: -0.00000 ]
	SubspaceRotationAdjust: set factor to 0.126
ElecMinimize: Iter:   1  F: -1623.729787950672971  |grad|_K:  1.146e-07  alpha:  1.642e-01  linmin:  8.047e-06  t[s]:   2301.55
ElecMinimize: 	Predicted alpha/alphaT>3.000000, increasing alphaT to 4.925014e-01.
	FillingsUpdate:  mu: +0.117343993  nElectrons: 209.000000  magneticMoment: [ Abs: 0.00000  Tot: -0.00000 ]
	SubspaceRotationAdjust: set factor to 0.167
ElecMinimize: Iter:   2  F: -1623.729791851052823  |grad|_K:  1.213e-07  alpha:  8.126e-01  linmin:  1.152e-06  t[s]:   2367.17
	FillingsUpdate:  mu: +0.117025214  nElectrons: 209.000000  magneticMoment: [ Abs: 0.00000  Tot: -0.00000 ]
	SubspaceRotationAdjust: set factor to 0.184
ElecMinimize: Iter:   3  F: -1623.729796201014324  |grad|_K:  1.385e-07  alpha:  8.095e-01  linmin:  3.741e-07  t[s]:   2419.59
	FillingsUpdate:  mu: +0.117065098  nElectrons: 209.000000  magneticMoment: [ Abs: 0.00000  Tot: -0.00000 ]
	SubspaceRotationAdjust: set factor to 0.203
ElecMinimize: Iter:   4  F: -1623.729799554684632  |grad|_K:  1.113e-07  alpha:  4.782e-01  linmin: -1.804e-07  t[s]:   2472.07
	FillingsUpdate:  mu: +0.117225038  nElectrons: 209.000000  magneticMoment: [ Abs: 0.00000  Tot: -0.00000 ]
	SubspaceRotationAdjust: set factor to 0.208
ElecMinimize: Iter:   5  F: -1623.729801532824240  |grad|_K:  7.108e-08  alpha:  4.367e-01  linmin:  6.222e-07  t[s]:   2523.98
	FillingsUpdate:  mu: +0.117052388  nElectrons: 209.000000  magneticMoment: [ Abs: 0.00000  Tot: -0.00000 ]
	SubspaceRotationAdjust: set factor to 0.188
ElecMinimize: Iter:   6  F: -1623.729802325174205  |grad|_K:  4.713e-08  alpha:  4.290e-01  linmin:  5.819e-06  t[s]:   2576.03
	FillingsUpdate:  mu: +0.117074841  nElectrons: 209.000000  magneticMoment: [ Abs: 0.00000  Tot: -0.00000 ]
	SubspaceRotationAdjust: set factor to 0.134
ElecMinimize: Iter:   7  F: -1623.729802572958761  |grad|_K:  3.773e-08  alpha:  3.055e-01  linmin:  2.526e-06  t[s]:   2627.92
	FillingsUpdate:  mu: +0.117110753  nElectrons: 209.000000  magneticMoment: [ Abs: 0.00000  Tot: -0.00000 ]
	SubspaceRotationAdjust: set factor to 0.0928
ElecMinimize: Iter:   8  F: -1623.729802699635229  |grad|_K:  2.051e-08  alpha:  2.434e-01  linmin: -5.560e-05  t[s]:   2680.08
	FillingsUpdate:  mu: +0.117099329  nElectrons: 209.000000  magneticMoment: [ Abs: 0.00000  Tot: -0.00000 ]
	SubspaceRotationAdjust: set factor to 0.114
ElecMinimize: Iter:   9  F: -1623.729802762674808  |grad|_K:  1.342e-08  alpha:  4.100e-01  linmin:  5.704e-05  t[s]:   2732.23
	FillingsUpdate:  mu: +0.117084629  nElectrons: 209.000000  magneticMoment: [ Abs: 0.00000  Tot: -0.00000 ]
	SubspaceRotationAdjust: set factor to 0.0963
ElecMinimize: Iter:  10  F: -1623.729802785719585  |grad|_K:  8.239e-09  alpha:  3.488e-01  linmin:  6.556e-05  t[s]:   2784.38
ElecMinimize: Converged (|Delta F|<1.000000e-07 for 2 iters).
Setting wave functions to eigenvectors of Hamiltonian
Converging empty states (this may take a while): |deigs|: 1.918e-08

Computing DFT-D3 correction:
# coordination-number Ag 5.372 5.371 7.657 9.171 9.198 9.211 9.214 9.211 9.198 9.172 7.657
# diagonal-C6 Ag 268.61 268.61 268.61 268.61 268.61 268.61 268.61 268.61 268.61 268.61 268.61
EvdW_6 =   -0.070440
EvdW_8 =   -0.095616
IonicMinimize: 	Wolfe criterion not satisfied: alpha: 1  (E-E0)/|gdotd0|: -0.976299  gdotd/gdotd0: 0.948456 (taking cubic step)

Computing DFT-D3 correction:
# coordination-number Ag 5.386 5.384 7.643 9.163 9.184 9.212 9.222 9.213 9.184 9.164 7.644
# diagonal-C6 Ag 268.61 268.61 268.61 268.61 268.61 268.61 268.61 268.61 268.61 268.61 268.61
EvdW_6 =   -0.070423
EvdW_8 =   -0.095593

-------- Electronic minimization -----------
	FillingsUpdate:  mu: +0.117094350  nElectrons: 209.000000  magneticMoment: [ Abs: 0.00000  Tot: -0.00000 ]
ElecMinimize: Iter:   0  F: -1623.729896728107860  |grad|_K:  2.605e-07  alpha:  1.000e+00
	FillingsUpdate:  mu: +0.117026360  nElectrons: 209.000000  magneticMoment: [ Abs: 0.00000  Tot: -0.00000 ]
	SubspaceRotationAdjust: set factor to 0.0772
ElecMinimize: Iter:   1  F: -1623.729906289822338  |grad|_K:  1.981e-07  alpha:  3.855e-01  linmin:  1.200e-06  t[s]:   2931.26
	FillingsUpdate:  mu: +0.117035954  nElectrons: 209.000000  magneticMoment: [ Abs: 0.00000  Tot: -0.00000 ]
	SubspaceRotationAdjust: set factor to 0.0949
ElecMinimize: Iter:   2  F: -1623.729916385061188  |grad|_K:  2.065e-07  alpha:  7.042e-01  linmin:  3.877e-07  t[s]:   2983.73
	FillingsUpdate:  mu: +0.117141981  nElectrons: 209.000000  magneticMoment: [ Abs: 0.00000  Tot: -0.00000 ]
	SubspaceRotationAdjust: set factor to 0.107
ElecMinimize: Iter:   3  F: -1623.729929582462319  |grad|_K:  2.610e-07  alpha:  8.472e-01  linmin:  5.719e-08  t[s]:   3035.79
	FillingsUpdate:  mu: +0.117092231  nElectrons: 209.000000  magneticMoment: [ Abs: 0.00000  Tot: -0.00000 ]
	SubspaceRotationAdjust: set factor to 0.111
ElecMinimize: Iter:   4  F: -1623.729942457951438  |grad|_K:  2.364e-07  alpha:  5.172e-01  linmin: -1.189e-07  t[s]:   3087.86
	FillingsUpdate:  mu: +0.117029332  nElectrons: 209.000000  magneticMoment: [ Abs: 0.00000  Tot: -0.00000 ]
	SubspaceRotationAdjust: set factor to 0.111
ElecMinimize: Iter:   5  F: -1623.729953957749331  |grad|_K:  1.698e-07  alpha:  5.628e-01  linmin:  2.011e-07  t[s]:   3139.64
	FillingsUpdate:  mu: +0.117132440  nElectrons: 209.000000  magneticMoment: [ Abs: 0.00000  Tot: -0.00000 ]
	SubspaceRotationAdjust: set factor to 0.109
ElecMinimize: Iter:   6  F: -1623.729959505056513  |grad|_K:  1.184e-07  alpha:  5.265e-01  linmin:  3.383e-07  t[s]:   3191.67
	FillingsUpdate:  mu: +0.117105381  nElectrons: 209.000000  magneticMoment: [ Abs: 0.00000  Tot: -0.00000 ]
	SubspaceRotationAdjust: set factor to 0.108
ElecMinimize: Iter:   7  F: -1623.729961608166377  |grad|_K:  7.687e-08  alpha:  4.108e-01  linmin:  5.205e-07  t[s]:   3244.49
	FillingsUpdate:  mu: +0.117053613  nElectrons: 209.000000  magneticMoment: [ Abs: 0.00000  Tot: -0.00000 ]
	SubspaceRotationAdjust: set factor to 0.109
ElecMinimize: Iter:   8  F: -1623.729962518772027  |grad|_K:  4.714e-08  alpha:  4.217e-01  linmin:  2.749e-06  t[s]:   3296.44
	FillingsUpdate:  mu: +0.117053803  nElectrons: 209.000000  magneticMoment: [ Abs: 0.00000  Tot: -0.00000 ]
	SubspaceRotationAdjust: set factor to 0.112
ElecMinimize: Iter:   9  F: -1623.729962831146395  |grad|_K:  3.041e-08  alpha:  3.847e-01  linmin: -7.047e-07  t[s]:   3348.52
	FillingsUpdate:  mu: +0.117060886  nElectrons: 209.000000  magneticMoment: [ Abs: 0.00000  Tot: -0.00000 ]
	SubspaceRotationAdjust: set factor to 0.118
ElecMinimize: Iter:  10  F: -1623.729962967422125  |grad|_K:  1.778e-08  alpha:  4.037e-01  linmin:  2.529e-05  t[s]:   3400.58
	FillingsUpdate:  mu: +0.117050145  nElectrons: 209.000000  magneticMoment: [ Abs: 0.00000  Tot: -0.00000 ]
	SubspaceRotationAdjust: set factor to 0.128
ElecMinimize: Iter:  11  F: -1623.729963020030254  |grad|_K:  1.140e-08  alpha:  4.557e-01  linmin:  1.919e-04  t[s]:   3452.85
	FillingsUpdate:  mu: +0.117049187  nElectrons: 209.000000  magneticMoment: [ Abs: 0.00000  Tot: -0.00000 ]
	SubspaceRotationAdjust: set factor to 0.142
ElecMinimize: Iter:  12  F: -1623.729963040899975  |grad|_K:  8.061e-09  alpha:  4.408e-01  linmin: -2.253e-04  t[s]:   3504.71
ElecMinimize: Converged (|Delta F|<1.000000e-07 for 2 iters).
Setting wave functions to eigenvectors of Hamiltonian
Converging empty states (this may take a while): |deigs|: 2.453e-08

Computing DFT-D3 correction:
# coordination-number Ag 5.386 5.384 7.643 9.163 9.184 9.212 9.222 9.213 9.184 9.164 7.644
# diagonal-C6 Ag 268.61 268.61 268.61 268.61 268.61 268.61 268.61 268.61 268.61 268.61 268.61
EvdW_6 =   -0.070423
EvdW_8 =   -0.095593

# Ionic positions in cartesian coordinates:
ion Ag  -0.000034255450568  -0.003746132682964  24.263729727565625 1
ion Ag   0.000098171888776   4.906922164010165   1.159506593918775 1
ion Ag   2.710102146529279   0.813291769812043   3.449395208842645 1
ion Ag   2.710231001813435   5.722672096062955   5.776300913004753 1
ion Ag   0.000060215586179   1.632339653056218   8.095295747212692 1
ion Ag   0.000108724822741   6.536026733721713  10.401004962355083 1
ion Ag   2.710144189729697   2.451525729170489  12.712220543652929 1
ion Ag   2.710261645147513   7.355840922175651  15.023658069241780 1
ion Ag  -0.000151108345368   3.270426357631024  17.329143326321539 1
ion Ag   0.000056446603865   8.168989045660716  19.648003729968710 1
ion Ag   2.710243821674454   4.089672661381992  21.974823177915468 1

# Forces in Cartesian coordinates:
force Ag  -0.000012319337755  -0.001086324722331  -0.001226843022378 1
force Ag   0.000032650900115   0.001153688047117   0.000960131093495 1
force Ag  -0.000037805624305  -0.000955549772111  -0.005216029594474 1
force Ag   0.000002715208741   0.000588357294781  -0.000546928118591 1
force Ag   0.000016410963891  -0.000555310919079   0.001029133251128 1
force Ag   0.000033133404704  -0.000430998522147  -0.000082357595197 1
force Ag  -0.000025459828664   0.000014917094796   0.000011640663391 1
force Ag   0.000011488408196   0.000460249718813   0.000180797772014 1
force Ag  -0.000047218280219   0.000506956270399  -0.000976303134092 1
force Ag   0.000017814377361  -0.000623655409754   0.000569388001119 1
force Ag   0.000007503263986   0.000949970116703   0.005212267686865 1

# Energy components:
   Eewald =    14802.9030151182851114
       EH =    16267.7439080009426107
     Eloc =   -32949.4511499948712299
      Enl =       43.3853651698790515
     EvdW =       -0.1660161536757485
      Exc =     -159.4190990594762809
 Exc_core =        2.2898748711788093
       KE =      368.9843700771807562
-------------------------------------
     Etot =    -1623.7297319705569407
       TS =        0.0002310703430583
-------------------------------------
        F =    -1623.7299630408999747


Dumping 'jdft.fillings' ... done
Dumping 'jdft.wfns' ... done
Dumping 'jdft.ionpos' ... done
Dumping 'jdft.lattice' ... done
Dumping 'jdft.eigenvals' ... done
Dumping 'jdft.eigStats' ... 
	eMin: -3.268342 at state 91 ( [ +0.000000 +0.000000 +0.000000 ] spin -1 )
	HOMO: +0.116905 at state 8 ( [ +0.076923 +0.142857 +0.000000 ] spin 1 )
	mu  : +0.117049
	LUMO: +0.117625 at state 152 ( [ -0.384615 -0.285714 +0.000000 ] spin -1 )
	eMax: +0.444792 at state 135 ( [ +0.461538 +0.285714 +0.000000 ] spin -1 )
	HOMO-LUMO gap: +0.000720
	Optical gap  : +0.007004 at state 54 ( [ -0.461538 -0.285714 +0.000000 ] spin 1 )
Dumping 'jdft.Ecomponents' ... done
IonicMinimize: Iter:   1  F: -1623.729963040899975  |grad|_K:  1.409e-03  alpha:  3.000e+00  linmin: -9.926e-01  t[s]:   3557.31

#--- Lowdin population analysis ---
# oxidation-state Ag +0.097 +0.096 -0.036 -0.040 +0.003 +0.002 +0.002 +0.002 +0.004 -0.039 -0.035
# magnetic-moments Ag +0.000 -0.000 -0.000 +0.000 -0.000 -0.000 -0.000 +0.000 -0.000 -0.000 +0.000


Computing DFT-D3 correction:
# coordination-number Ag 5.487 5.478 7.539 9.110 9.068 9.191 9.201 9.190 9.068 9.117 7.545
# diagonal-C6 Ag 268.61 268.61 268.61 268.61 268.61 268.61 268.61 268.61 268.61 268.61 268.61
EvdW_6 =   -0.070211
EvdW_8 =   -0.095349

-------- Electronic minimization -----------
	FillingsUpdate:  mu: +0.275256634  nElectrons: 209.000000  magneticMoment: [ Abs: 0.00000  Tot: -0.00000 ]
ElecMinimize: Iter:   0  F: -1622.870053508812362  |grad|_K:  9.163e-05  alpha:  1.000e+00
	FillingsUpdate:  mu: +0.052298446  nElectrons: 209.000000  magneticMoment: [ Abs: 0.00000  Tot: -0.00000 ]
	SubspaceRotationAdjust: set factor to 0.119
ElecMinimize: Iter:   1  F: -1623.632353326194561  |grad|_K:  2.777e-05  alpha:  2.717e-01  linmin:  1.374e-02  t[s]:   3650.77
	FillingsUpdate:  mu: +0.082560768  nElectrons: 209.000000  magneticMoment: [ Abs: 0.00000  Tot: -0.00000 ]
	SubspaceRotationAdjust: set factor to 0.181
ElecMinimize: Iter:   2  F: -1623.700604077119579  |grad|_K:  8.812e-06  alpha:  2.626e-01  linmin: -1.415e-04  t[s]:   3702.96
	FillingsUpdate:  mu: +0.112800080  nElectrons: 209.000000  magneticMoment: [ Abs: 0.00000  Tot: -0.00000 ]
	SubspaceRotationAdjust: set factor to 0.236
ElecMinimize: Iter:   3  F: -1623.709876357518851  |grad|_K:  5.147e-06  alpha:  3.263e-01  linmin: -4.393e-07  t[s]:   3755.23
	FillingsUpdate:  mu: +0.120734714  nElectrons: 209.000000  magneticMoment: [ Abs: 0.00000  Tot: -0.00000 ]
	SubspaceRotationAdjust: set factor to 0.305
ElecMinimize: Iter:   4  F: -1623.715147163836718  |grad|_K:  5.392e-06  alpha:  5.443e-01  linmin: -7.544e-07  t[s]:   3807.04
	FillingsUpdate:  mu: +0.114157574  nElectrons: 209.000000  magneticMoment: [ Abs: 0.00000  Tot: -0.00000 ]
	SubspaceRotationAdjust: set factor to 0.359
ElecMinimize: Iter:   5  F: -1623.721087804674426  |grad|_K:  5.274e-06  alpha:  5.587e-01  linmin: -5.741e-05  t[s]:   3858.80
	FillingsUpdate:  mu: +0.120605480  nElectrons: 209.000000  magneticMoment: [ Abs: 0.00000  Tot: -0.00000 ]
	SubspaceRotationAdjust: set factor to 0.259
ElecMinimize: Iter:   6  F: -1623.724319417816787  |grad|_K:  6.574e-06  alpha:  3.147e-01  linmin: -5.386e-07  t[s]:   3910.82
	FillingsUpdate:  mu: +0.125607316  nElectrons: 209.000000  magneticMoment: [ Abs: 0.00000  Tot: -0.00000 ]
	SubspaceRotationAdjust: set factor to 0.189
ElecMinimize: Iter:   7  F: -1623.726875755271976  |grad|_K:  4.181e-06  alpha:  1.612e-01  linmin: -8.918e-06  t[s]:   3962.74
	FillingsUpdate:  mu: +0.116300636  nElectrons: 209.000000  magneticMoment: [ Abs: 0.00000  Tot: -0.00000 ]
	SubspaceRotationAdjust: set factor to 0.211
ElecMinimize: Iter:   8  F: -1623.729101846376352  |grad|_K:  2.733e-06  alpha:  3.485e-01  linmin:  2.295e-05  t[s]:   4014.68
	FillingsUpdate:  mu: +0.114938410  nElectrons: 209.000000  magneticMoment: [ Abs: 0.00000  Tot: -0.00000 ]
	SubspaceRotationAdjust: set factor to 0.188
ElecMinimize: Iter:   9  F: -1623.729986795881587  |grad|_K:  1.955e-06  alpha:  3.261e-01  linmin: -1.748e-06  t[s]:   4066.62
	FillingsUpdate:  mu: +0.116763786  nElectrons: 209.000000  magneticMoment: [ Abs: 0.00000  Tot: -0.00000 ]
	SubspaceRotationAdjust: set factor to 0.125
ElecMinimize: Iter:  10  F: -1623.730289620633812  |grad|_K:  1.332e-06  alpha:  2.167e-01  linmin: -6.922e-08  t[s]:   4118.76
	FillingsUpdate:  mu: +0.118058482  nElectrons: 209.000000  magneticMoment: [ Abs: 0.00000  Tot: -0.00000 ]
	SubspaceRotationAdjust: set factor to 0.146
ElecMinimize: Iter:  11  F: -1623.730490044170665  |grad|_K:  7.974e-07  alpha:  3.090e-01  linmin:  9.220e-06  t[s]:   4170.90
	FillingsUpdate:  mu: +0.117110216  nElectrons: 209.000000  magneticMoment: [ Abs: 0.00000  Tot: -0.00000 ]
	SubspaceRotationAdjust: set factor to 0.159
ElecMinimize: Iter:  12  F: -1623.730571106421394  |grad|_K:  5.713e-07  alpha:  3.490e-01  linmin: -4.870e-06  t[s]:   4222.97
	FillingsUpdate:  mu: +0.116415064  nElectrons: 209.000000  magneticMoment: [ Abs: 0.00000  Tot: -0.00000 ]
	SubspaceRotationAdjust: set factor to 0.149
ElecMinimize: Iter:  13  F: -1623.730608094675517  |grad|_K:  4.206e-07  alpha:  3.101e-01  linmin: -1.108e-06  t[s]:   4275.09
	FillingsUpdate:  mu: +0.116462397  nElectrons: 209.000000  magneticMoment: [ Abs: 0.00000  Tot: -0.00000 ]
	SubspaceRotationAdjust: set factor to 0.194
ElecMinimize: Iter:  14  F: -1623.730632389067750  |grad|_K:  3.283e-07  alpha:  3.757e-01  linmin:  2.953e-07  t[s]:   4327.24
	FillingsUpdate:  mu: +0.116685973  nElectrons: 209.000000  magneticMoment: [ Abs: 0.00000  Tot: -0.00000 ]
	SubspaceRotationAdjust: set factor to 0.233
ElecMinimize: Iter:  15  F: -1623.730650240426485  |grad|_K:  3.103e-07  alpha:  4.532e-01  linmin: -1.363e-06  t[s]:   4379.62
	FillingsUpdate:  mu: +0.116571640  nElectrons: 209.000000  magneticMoment: [ Abs: 0.00000  Tot: -0.00000 ]
	SubspaceRotationAdjust: set factor to 0.219
ElecMinimize: Iter:  16  F: -1623.730663678908513  |grad|_K:  3.617e-07  alpha:  3.818e-01  linmin: -7.521e-07  t[s]:   4431.62
	FillingsUpdate:  mu: +0.116485725  nElectrons: 209.000000  magneticMoment: [ Abs: 0.00000  Tot: -0.00000 ]
	SubspaceRotationAdjust: set factor to 0.207
ElecMinimize: Iter:  17  F: -1623.730677389236689  |grad|_K:  2.712e-07  alpha:  2.868e-01  linmin: -5.935e-07  t[s]:   4483.97
	FillingsUpdate:  mu: +0.116804321  nElectrons: 209.000000  magneticMoment: [ Abs: 0.00000  Tot: -0.00000 ]
	SubspaceRotationAdjust: set factor to 0.223
ElecMinimize: Iter:  18  F: -1623.730689990804422  |grad|_K:  2.311e-07  alpha:  4.686e-01  linmin: -2.887e-06  t[s]:   4536.07
	FillingsUpdate:  mu: +0.116796132  nElectrons: 209.000000  magneticMoment: [ Abs: 0.00000  Tot: -0.00000 ]
	SubspaceRotationAdjust: set factor to 0.229
ElecMinimize: Iter:  19  F: -1623.730698009773278  |grad|_K:  1.754e-07  alpha:  4.104e-01  linmin: -1.361e-06  t[s]:   4588.22
	FillingsUpdate:  mu: +0.116659546  nElectrons: 209.000000  magneticMoment: [ Abs: 0.00000  Tot: -0.00000 ]
	SubspaceRotationAdjust: set factor to 0.194
ElecMinimize: Iter:  20  F: -1623.730701843993529  |grad|_K:  1.524e-07  alpha:  3.407e-01  linmin: -3.622e-07  t[s]:   4640.44
	FillingsUpdate:  mu: +0.116648779  nElectrons: 209.000000  magneticMoment: [ Abs: 0.00000  Tot: +0.00000 ]
	SubspaceRotationAdjust: set factor to 0.14
ElecMinimize: Iter:  21  F: -1623.730703752519958  |grad|_K:  1.078e-07  alpha:  2.247e-01  linmin: -1.557e-08  t[s]:   4692.61
	FillingsUpdate:  mu: +0.116711948  nElectrons: 209.000000  magneticMoment: [ Abs: 0.00000  Tot: +0.00000 ]
	SubspaceRotationAdjust: set factor to 0.165
ElecMinimize: Iter:  22  F: -1623.730705223706764  |grad|_K:  7.066e-08  alpha:  3.463e-01  linmin:  1.219e-06  t[s]:   4744.67
	FillingsUpdate:  mu: +0.116703975  nElectrons: 209.000000  magneticMoment: [ Abs: 0.00000  Tot: +0.00000 ]
	SubspaceRotationAdjust: set factor to 0.18
ElecMinimize: Iter:  23  F: -1623.730705876307638  |grad|_K:  5.487e-08  alpha:  3.576e-01  linmin: -8.945e-06  t[s]:   4796.71
	FillingsUpdate:  mu: +0.116684931  nElectrons: 209.000000  magneticMoment: [ Abs: 0.00000  Tot: +0.00000 ]
	SubspaceRotationAdjust: set factor to 0.177
ElecMinimize: Iter:  24  F: -1623.730706225142740  |grad|_K:  4.499e-08  alpha:  3.170e-01  linmin:  1.268e-05  t[s]:   4848.56
	FillingsUpdate:  mu: +0.116679033  nElectrons: 209.000000  magneticMoment: [ Abs: 0.00000  Tot: +0.00000 ]
	SubspaceRotationAdjust: set factor to 0.223
ElecMinimize: Iter:  25  F: -1623.730706488993064  |grad|_K:  3.553e-08  alpha:  3.571e-01  linmin:  2.588e-06  t[s]:   4900.38
	FillingsUpdate:  mu: +0.116682469  nElectrons: 209.000000  magneticMoment: [ Abs: 0.00000  Tot: +0.00000 ]
	SubspaceRotationAdjust: set factor to 0.286
ElecMinimize: Iter:  26  F: -1623.730706719599084  |grad|_K:  3.418e-08  alpha:  5.002e-01  linmin:  3.585e-06  t[s]:   4952.60
	FillingsUpdate:  mu: +0.116673090  nElectrons: 209.000000  magneticMoment: [ Abs: 0.00000  Tot: +0.00000 ]
	SubspaceRotationAdjust: set factor to 0.264
ElecMinimize: Iter:  27  F: -1623.730706876110844  |grad|_K:  3.825e-08  alpha:  3.662e-01  linmin:  6.979e-07  t[s]:   5004.50
	FillingsUpdate:  mu: +0.116664127  nElectrons: 209.000000  magneticMoment: [ Abs: 0.00000  Tot: +0.00000 ]
	SubspaceRotationAdjust: set factor to 0.213
ElecMinimize: Iter:  28  F: -1623.730706989005739  |grad|_K:  3.159e-08  alpha:  2.112e-01  linmin: -2.926e-06  t[s]:   5056.48
	FillingsUpdate:  mu: +0.116665611  nElectrons: 209.000000  magneticMoment: [ Abs: 0.00000  Tot: +0.00000 ]
	SubspaceRotationAdjust: set factor to 0.232
ElecMinimize: Iter:  29  F: -1623.730707117613292  |grad|_K:  2.318e-08  alpha:  3.528e-01  linmin: -1.020e-06  t[s]:   5108.47
	FillingsUpdate:  mu: +0.116676027  nElectrons: 209.000000  magneticMoment: [ Abs: 0.00000  Tot: +0.00000 ]
	SubspaceRotationAdjust: set factor to 0.244
ElecMinimize: Iter:  30  F: -1623.730707196594722  |grad|_K:  1.912e-08  alpha:  4.021e-01  linmin:  1.108e-05  t[s]:   5161.05
	FillingsUpdate:  mu: +0.116675110  nElectrons: 209.000000  magneticMoment: [ Abs: 0.00000  Tot: +0.00000 ]
	SubspaceRotationAdjust: set factor to 0.208
ElecMinimize: Iter:  31  F: -1623.730707236060425  |grad|_K:  1.780e-08  alpha:  2.964e-01  linmin:  6.679e-06  t[s]:   5213.16
ElecMinimize: Converged (|Delta F|<1.000000e-07 for 2 iters).
Setting wave functions to eigenvectors of Hamiltonian
Converging empty states (this may take a while): |deigs|: 3.323e-06

Computing DFT-D3 correction:
# coordination-number Ag 5.487 5.478 7.539 9.110 9.068 9.191 9.201 9.190 9.068 9.117 7.545
# diagonal-C6 Ag 268.61 268.61 268.61 268.61 268.61 268.61 268.61 268.61 268.61 268.61 268.61
EvdW_6 =   -0.070211
EvdW_8 =   -0.095349

# Ionic positions in cartesian coordinates:
ion Ag  -0.000343010986968  -0.023612218803748  24.247963753673503 1
ion Ag   0.000833729839806   4.928205916992245   1.171739174712464 1
ion Ag   2.709348742651093   0.802114646387360   3.350394436432336 1
ion Ag   2.710311822041072   5.727778307472813   5.767448507116956 1
ion Ag   0.000324384831905   1.622890413299133   8.090124062234329 1
ion Ag   0.000755503059636   6.525804535302426  10.394739356678835 1
ion Ag   2.709621091158306   2.451811914630300  12.711961355299879 1
ion Ag   2.710497713604774   7.366447016161955  15.031191534936243 1
ion Ag  -0.001132774620409   3.279199861440839  17.335485267220125 1
ion Ag   0.000418659961520   8.162916559991967  19.657789147259578 1
ion Ag   2.710485138459266   4.100404047124712  22.074245404435750 1

# Forces in Cartesian coordinates:
force Ag  -0.000009394415606  -0.000316963622870   0.000248108534785 1
force Ag   0.000031980434663   0.000320628973939  -0.000451723835271 1
force Ag  -0.000021423298543   0.000123664987142  -0.001717567042086 1
force Ag   0.000001767674461   0.000170033582980  -0.000396606718263 1
force Ag   0.000001926035863  -0.000387174488786  -0.001048911255552 1
force Ag   0.000015294548185  -0.000046888191535   0.000102926506226 1
force Ag  -0.000009363125061   0.000009173245134  -0.000112279539279 1
force Ag   0.000003476773012   0.000066892653615  -0.000325926967840 1
force Ag  -0.000021318866548   0.000377705925267   0.000739449682753 1
force Ag   0.000013896094958  -0.000195571353388   0.000162991936123 1
force Ag  -0.000001795500605  -0.000078282799396   0.001701583017162 1

# Energy components:
   Eewald =    14755.6635201261633483
       EH =    16220.4620650757460680
     Eloc =   -32854.9236643562035169
      Enl =       43.3865368210647091
     EvdW =       -0.1655599141090815
      Exc =     -159.4130623140931675
 Exc_core =        2.2898752917224829
       KE =      368.9698186533314015
-------------------------------------
     Etot =    -1623.7304706163777155
       TS =        0.0002366196828167
-------------------------------------
        F =    -1623.7307072360604252


Dumping 'jdft.fillings' ... done
Dumping 'jdft.wfns' ... done
Dumping 'jdft.ionpos' ... done
Dumping 'jdft.lattice' ... done
Dumping 'jdft.eigenvals' ... done
Dumping 'jdft.eigStats' ... 
	eMin: -3.268597 at state 91 ( [ +0.000000 +0.000000 +0.000000 ] spin -1 )
	HOMO: +0.116529 at state 90 ( [ -0.076923 -0.142857 +0.000000 ] spin 1 )
	mu  : +0.116675
	LUMO: +0.117358 at state 128 ( [ +0.384615 +0.285714 +0.000000 ] spin -1 )
	eMax: +0.444512 at state 145 ( [ -0.461538 -0.285714 +0.000000 ] spin -1 )
	HOMO-LUMO gap: +0.000828
	Optical gap  : +0.006973 at state 145 ( [ -0.461538 -0.285714 +0.000000 ] spin -1 )
Dumping 'jdft.Ecomponents' ... done
IonicMinimize: Iter:   2  F: -1623.730707236060425  |grad|_K:  5.092e-04  alpha:  6.411e-01  linmin: -8.325e-01  t[s]:   5301.84

#--- Lowdin population analysis ---
# oxidation-state Ag +0.092 +0.093 -0.033 -0.038 +0.006 +0.001 +0.002 +0.000 +0.006 -0.039 -0.034
# magnetic-moments Ag +0.000 +0.000 -0.000 +0.000 -0.000 -0.000 +0.000 +0.000 -0.000 +0.000 -0.000


Computing DFT-D3 correction:
# coordination-number Ag 5.526 5.514 7.490 9.063 8.986 9.168 9.155 9.169 8.979 9.063 7.484
# diagonal-C6 Ag 268.61 268.61 268.61 268.61 268.61 268.61 268.61 268.61 268.61 268.61 268.61
EvdW_6 =   -0.070016
EvdW_8 =   -0.095116

-------- Electronic minimization -----------
	FillingsUpdate:  mu: +0.264420152  nElectrons: 209.000000  magneticMoment: [ Abs: 0.00000  Tot: -0.00000 ]
ElecMinimize: Iter:   0  F: -1623.311197640800856  |grad|_K:  6.610e-05  alpha:  1.000e+00
	FillingsUpdate:  mu: +0.051929748  nElectrons: 209.000000  magneticMoment: [ Abs: 0.00000  Tot: +0.00000 ]
	SubspaceRotationAdjust: set factor to 0.123
ElecMinimize: Iter:   1  F: -1623.679819368850303  |grad|_K:  1.845e-05  alpha:  2.367e-01  linmin:  2.947e-03  t[s]:   5395.78
	FillingsUpdate:  mu: +0.103633824  nElectrons: 209.000000  magneticMoment: [ Abs: 0.00000  Tot: -0.00000 ]
	SubspaceRotationAdjust: set factor to 0.192
ElecMinimize: Iter:   2  F: -1623.716960820540180  |grad|_K:  5.944e-06  alpha:  3.052e-01  linmin: -1.304e-04  t[s]:   5448.11
	FillingsUpdate:  mu: +0.111290864  nElectrons: 209.000000  magneticMoment: [ Abs: 0.00000  Tot: -0.00000 ]
	SubspaceRotationAdjust: set factor to 0.218
ElecMinimize: Iter:   3  F: -1623.721194414431693  |grad|_K:  3.953e-06  alpha:  3.271e-01  linmin: -8.845e-06  t[s]:   5500.44
	FillingsUpdate:  mu: +0.115660860  nElectrons: 209.000000  magneticMoment: [ Abs: 0.00000  Tot: -0.00000 ]
	SubspaceRotationAdjust: set factor to 0.189
ElecMinimize: Iter:   4  F: -1623.723649323114387  |grad|_K:  3.849e-06  alpha:  4.297e-01  linmin: -2.109e-06  t[s]:   5552.46
	FillingsUpdate:  mu: +0.117446798  nElectrons: 209.000000  magneticMoment: [ Abs: 0.00000  Tot: -0.00000 ]
	SubspaceRotationAdjust: set factor to 0.159
ElecMinimize: Iter:   5  F: -1623.725566617448067  |grad|_K:  3.885e-06  alpha:  3.542e-01  linmin: -2.888e-06  t[s]:   5604.49
	FillingsUpdate:  mu: +0.119677910  nElectrons: 209.000000  magneticMoment: [ Abs: 0.00000  Tot: -0.00000 ]
	SubspaceRotationAdjust: set factor to 0.168
ElecMinimize: Iter:   6  F: -1623.727608963215062  |grad|_K:  2.743e-06  alpha:  3.701e-01  linmin: -1.492e-05  t[s]:   5656.65
	FillingsUpdate:  mu: +0.121306713  nElectrons: 209.000000  magneticMoment: [ Abs: 0.00000  Tot: -0.00000 ]
	SubspaceRotationAdjust: set factor to 0.197
ElecMinimize: Iter:   7  F: -1623.729209876632012  |grad|_K:  2.431e-06  alpha:  5.808e-01  linmin:  4.624e-06  t[s]:   5708.80
	FillingsUpdate:  mu: +0.117769196  nElectrons: 209.000000  magneticMoment: [ Abs: 0.00000  Tot: -0.00000 ]
	SubspaceRotationAdjust: set factor to 0.189
ElecMinimize: Iter:   8  F: -1623.730144508521789  |grad|_K:  1.900e-06  alpha:  4.331e-01  linmin: -2.131e-07  t[s]:   5760.87
	FillingsUpdate:  mu: +0.116346952  nElectrons: 209.000000  magneticMoment: [ Abs: 0.00000  Tot: -0.00000 ]
	SubspaceRotationAdjust: set factor to 0.125
ElecMinimize: Iter:   9  F: -1623.730481389677152  |grad|_K:  1.433e-06  alpha:  2.555e-01  linmin:  4.202e-07  t[s]:   5812.63
	FillingsUpdate:  mu: +0.116571422  nElectrons: 209.000000  magneticMoment: [ Abs: 0.00000  Tot: -0.00000 ]
	SubspaceRotationAdjust: set factor to 0.109
ElecMinimize: Iter:  10  F: -1623.730719211235055  |grad|_K:  8.327e-07  alpha:  3.170e-01  linmin:  2.788e-06  t[s]:   5864.68
	FillingsUpdate:  mu: +0.117266707  nElectrons: 209.000000  magneticMoment: [ Abs: 0.00000  Tot: -0.00000 ]
	SubspaceRotationAdjust: set factor to 0.119
ElecMinimize: Iter:  11  F: -1623.730823836878244  |grad|_K:  5.357e-07  alpha:  4.130e-01  linmin:  2.164e-06  t[s]:   5916.97
	FillingsUpdate:  mu: +0.117063151  nElectrons: 209.000000  magneticMoment: [ Abs: 0.00000  Tot: -0.00000 ]
	SubspaceRotationAdjust: set factor to 0.101
ElecMinimize: Iter:  12  F: -1623.730859549676325  |grad|_K:  3.290e-07  alpha:  3.405e-01  linmin: -4.981e-07  t[s]:   5969.27
	FillingsUpdate:  mu: +0.116501854  nElectrons: 209.000000  magneticMoment: [ Abs: 0.00000  Tot: -0.00000 ]
	SubspaceRotationAdjust: set factor to 0.0911
ElecMinimize: Iter:  13  F: -1623.730875081600061  |grad|_K:  2.051e-07  alpha:  3.926e-01  linmin:  4.148e-07  t[s]:   6021.44
	FillingsUpdate:  mu: +0.116474239  nElectrons: 209.000000  magneticMoment: [ Abs: 0.00000  Tot: -0.00000 ]
	SubspaceRotationAdjust: set factor to 0.0974
ElecMinimize: Iter:  14  F: -1623.730880904104879  |grad|_K:  1.294e-07  alpha:  3.786e-01  linmin:  1.598e-06  t[s]:   6073.62
	FillingsUpdate:  mu: +0.116553312  nElectrons: 209.000000  magneticMoment: [ Abs: 0.00000  Tot: -0.00000 ]
	SubspaceRotationAdjust: set factor to 0.0949
ElecMinimize: Iter:  15  F: -1623.730883260180008  |grad|_K:  8.281e-08  alpha:  3.848e-01  linmin: -5.585e-06  t[s]:   6125.95
	FillingsUpdate:  mu: +0.116472828  nElectrons: 209.000000  magneticMoment: [ Abs: 0.00000  Tot: -0.00000 ]
	SubspaceRotationAdjust: set factor to 0.0965
ElecMinimize: Iter:  16  F: -1623.730884292892824  |grad|_K:  5.277e-08  alpha:  4.121e-01  linmin:  4.152e-06  t[s]:   6177.97
	FillingsUpdate:  mu: +0.116434539  nElectrons: 209.000000  magneticMoment: [ Abs: 0.00000  Tot: -0.00000 ]
	SubspaceRotationAdjust: set factor to 0.111
ElecMinimize: Iter:  17  F: -1623.730884695729173  |grad|_K:  3.773e-08  alpha:  3.959e-01  linmin: -6.171e-06  t[s]:   6229.94
	FillingsUpdate:  mu: +0.116442560  nElectrons: 209.000000  magneticMoment: [ Abs: 0.00000  Tot: -0.00000 ]
	SubspaceRotationAdjust: set factor to 0.132
ElecMinimize: Iter:  18  F: -1623.730884916561536  |grad|_K:  2.641e-08  alpha:  4.244e-01  linmin:  1.955e-05  t[s]:   6282.73
	FillingsUpdate:  mu: +0.116425327  nElectrons: 209.000000  magneticMoment: [ Abs: 0.00000  Tot: -0.00000 ]
	SubspaceRotationAdjust: set factor to 0.154
ElecMinimize: Iter:  19  F: -1623.730885047494894  |grad|_K:  2.445e-08  alpha:  5.149e-01  linmin:  3.557e-05  t[s]:   6334.85
	FillingsUpdate:  mu: +0.116395436  nElectrons: 209.000000  magneticMoment: [ Abs: 0.00000  Tot: -0.00000 ]
	SubspaceRotationAdjust: set factor to 0.178
ElecMinimize: Iter:  20  F: -1623.730885155815031  |grad|_K:  2.270e-08  alpha:  4.973e-01  linmin: -1.713e-06  t[s]:   6387.32
	FillingsUpdate:  mu: +0.116389138  nElectrons: 209.000000  magneticMoment: [ Abs: 0.00000  Tot: -0.00000 ]
	SubspaceRotationAdjust: set factor to 0.204
ElecMinimize: Iter:  21  F: -1623.730885256151169  |grad|_K:  2.039e-08  alpha:  5.317e-01  linmin: -1.787e-05  t[s]:   6439.60
	FillingsUpdate:  mu: +0.116396495  nElectrons: 209.000000  magneticMoment: [ Abs: 0.00000  Tot: -0.00000 ]
	SubspaceRotationAdjust: set factor to 0.223
ElecMinimize: Iter:  22  F: -1623.730885328638351  |grad|_K:  1.674e-08  alpha:  4.761e-01  linmin:  1.345e-05  t[s]:   6491.66
	FillingsUpdate:  mu: +0.116385621  nElectrons: 209.000000  magneticMoment: [ Abs: 0.00000  Tot: -0.00000 ]
	SubspaceRotationAdjust: set factor to 0.233
ElecMinimize: Iter:  23  F: -1623.730885374012814  |grad|_K:  1.242e-08  alpha:  4.445e-01  linmin:  1.569e-05  t[s]:   6544.59
ElecMinimize: Converged (|Delta F|<1.000000e-07 for 2 iters).
Setting wave functions to eigenvectors of Hamiltonian
Converging empty states (this may take a while): |deigs|: 1.335e-05

Computing DFT-D3 correction:
# coordination-number Ag 5.526 5.514 7.490 9.063 8.986 9.168 9.155 9.169 8.979 9.063 7.484
# diagonal-C6 Ag 268.61 268.61 268.61 268.61 268.61 268.61 268.61 268.61 268.61 268.61 268.61
EvdW_6 =   -0.070016
EvdW_8 =   -0.095116

# Ionic positions in cartesian coordinates:
ion Ag  -0.000666582105508  -0.035857820586553  24.255019882867003 1
ion Ag   0.001838737367878   4.940534609362282   1.163951035185850 1
ion Ag   2.708611363145752   0.803380989715628   3.289098130562504 1
ion Ag   2.710359791278530   5.733683179811655   5.757535523427288 1
ion Ag   0.000409748083460   1.610209845075776   8.063818450870178 1
ion Ag   0.001276813336428   6.522919874490959  10.399878736216545 1
ion Ag   2.709263447166015   2.452002701367062  12.711605756383110 1
ion Ag   2.710618903431955   7.369743076869423  15.025635399122772 1
ion Ag  -0.001898881508179   3.291262288552548  17.358842010004722 1
ion Ag   0.000856190277370   8.155924640154156  19.666860808895770 1
ion Ag   2.710451469526300   4.100157615187065  22.140836266464252 1

# Forces in Cartesian coordinates:
force Ag  -0.000002793095255   0.000005989974009   0.000833712173445 1
force Ag   0.000020582779415   0.000016861567434  -0.000943418653943 1
force Ag   0.000002491505418   0.000398459342701  -0.000419077076663 1
force Ag   0.000004634988363  -0.000170136215818  -0.000213392900057 1
force Ag  -0.000003596666005   0.000320622730383  -0.000717449734671 1
force Ag   0.000002052486893  -0.000200910358145  -0.000646079866200 1
force Ag  -0.000001548372161   0.000002032071424  -0.000056200839546 1
force Ag   0.000001974122680   0.000203351348192   0.000596223837140 1
force Ag   0.000001185596673  -0.000286691141492   0.000782190516334 1
force Ag   0.000003586797852   0.000184672702246   0.000152021086991 1
force Ag  -0.000000375581131  -0.000420629569260   0.000033665073066 1

# Energy components:
   Eewald =    14710.1506305622224318
       EH =    16174.9303075193984114
     Eloc =   -32763.8746076268907927
      Enl =       43.3888281520397285
     EvdW =       -0.1651319514325059
      Exc =     -159.4073728123364333
 Exc_core =        2.2898760381486873
       KE =      368.9568247035509785
-------------------------------------
     Etot =    -1623.7306454152999322
       TS =        0.0002399587129590
-------------------------------------
        F =    -1623.7308853740128143


Dumping 'jdft.fillings' ... done
Dumping 'jdft.wfns' ... done
Dumping 'jdft.ionpos' ... done
Dumping 'jdft.lattice' ... done
Dumping 'jdft.eigenvals' ... done
Dumping 'jdft.eigStats' ... 
	eMin: -3.268716 at state 0 ( [ +0.000000 +0.000000 +0.000000 ] spin 1 )
	HOMO: +0.116042 at state 90 ( [ -0.076923 -0.142857 +0.000000 ] spin 1 )
	mu  : +0.116386
	LUMO: +0.117103 at state 152 ( [ -0.384615 -0.285714 +0.000000 ] spin -1 )
	eMax: +0.444139 at state 145 ( [ -0.461538 -0.285714 +0.000000 ] spin -1 )
	HOMO-LUMO gap: +0.001061
	Optical gap  : +0.006895 at state 54 ( [ -0.461538 -0.285714 +0.000000 ] spin 1 )
Dumping 'jdft.Ecomponents' ... done
IonicMinimize: Iter:   3  F: -1623.730885374012814  |grad|_K:  3.638e-04  alpha:  1.000e+00  linmin: -3.136e-01  t[s]:   6626.94

#--- Lowdin population analysis ---
# oxidation-state Ag +0.090 +0.090 -0.032 -0.037 +0.008 -0.001 +0.003 -0.001 +0.008 -0.038 -0.032
# magnetic-moments Ag -0.000 -0.000 -0.000 -0.000 -0.000 -0.000 +0.000 -0.000 +0.000 -0.000 +0.000


Computing DFT-D3 correction:
# coordination-number Ag 5.523 5.511 7.430 9.025 8.933 9.114 9.087 9.113 8.937 9.042 7.446
# diagonal-C6 Ag 268.61 268.61 268.61 268.61 268.61 268.61 268.61 268.61 268.61 268.61 268.61
EvdW_6 =   -0.069812
EvdW_8 =   -0.094856

-------- Electronic minimization -----------
	FillingsUpdate:  mu: +0.288030573  nElectrons: 209.000000  magneticMoment: [ Abs: 0.00000  Tot: -0.00000 ]
ElecMinimize: Iter:   0  F: -1623.392552723076506  |grad|_K:  6.163e-05  alpha:  1.000e+00
	FillingsUpdate:  mu: +0.061499762  nElectrons: 209.000000  magneticMoment: [ Abs: 0.00000  Tot: -0.00000 ]
	SubspaceRotationAdjust: set factor to 0.117
ElecMinimize: Iter:   1  F: -1623.689793372064742  |grad|_K:  1.598e-05  alpha:  2.139e-01  linmin: -2.722e-04  t[s]:   6720.45
	FillingsUpdate:  mu: +0.104258464  nElectrons: 209.000000  magneticMoment: [ Abs: 0.00000  Tot: -0.00000 ]
	SubspaceRotationAdjust: set factor to 0.166
ElecMinimize: Iter:   2  F: -1623.720030683169625  |grad|_K:  5.596e-06  alpha:  3.225e-01  linmin: -2.717e-04  t[s]:   6772.68
	FillingsUpdate:  mu: +0.109482909  nElectrons: 209.000000  magneticMoment: [ Abs: 0.00000  Tot: -0.00000 ]
	SubspaceRotationAdjust: set factor to 0.164
ElecMinimize: Iter:   3  F: -1623.723441361363030  |grad|_K:  3.483e-06  alpha:  2.965e-01  linmin: -1.072e-05  t[s]:   6824.75
	FillingsUpdate:  mu: +0.113698957  nElectrons: 209.000000  magneticMoment: [ Abs: 0.00000  Tot: -0.00000 ]
	SubspaceRotationAdjust: set factor to 0.176
ElecMinimize: Iter:   4  F: -1623.725402879040303  |grad|_K:  2.888e-06  alpha:  4.423e-01  linmin: -2.103e-06  t[s]:   6877.67
	FillingsUpdate:  mu: +0.117329060  nElectrons: 209.000000  magneticMoment: [ Abs: 0.00000  Tot: -0.00000 ]
	SubspaceRotationAdjust: set factor to 0.159
ElecMinimize: Iter:   5  F: -1623.727085155511304  |grad|_K:  3.072e-06  alpha:  5.518e-01  linmin: -2.035e-06  t[s]:   6929.80
	FillingsUpdate:  mu: +0.118938238  nElectrons: 209.000000  magneticMoment: [ Abs: 0.00000  Tot: -0.00000 ]
	SubspaceRotationAdjust: set factor to 0.139
ElecMinimize: Iter:   6  F: -1623.728267652290469  |grad|_K:  2.374e-06  alpha:  3.432e-01  linmin:  1.341e-06  t[s]:   6981.86
	FillingsUpdate:  mu: +0.119019924  nElectrons: 209.000000  magneticMoment: [ Abs: 0.00000  Tot: -0.00000 ]
	SubspaceRotationAdjust: set factor to 0.135
ElecMinimize: Iter:   7  F: -1623.729512481981374  |grad|_K:  2.088e-06  alpha:  6.043e-01  linmin: -1.877e-06  t[s]:   7034.10
	FillingsUpdate:  mu: +0.118638057  nElectrons: 209.000000  magneticMoment: [ Abs: 0.00000  Tot: -0.00000 ]
	SubspaceRotationAdjust: set factor to 0.126
ElecMinimize: Iter:   8  F: -1623.730281599881209  |grad|_K:  1.556e-06  alpha:  4.824e-01  linmin: -6.935e-07  t[s]:   7086.49
	FillingsUpdate:  mu: +0.117349647  nElectrons: 209.000000  magneticMoment: [ Abs: 0.00000  Tot: -0.00000 ]
	SubspaceRotationAdjust: set factor to 0.112
ElecMinimize: Iter:   9  F: -1623.730648064512025  |grad|_K:  1.055e-06  alpha:  4.142e-01  linmin: -9.069e-07  t[s]:   7138.66
	FillingsUpdate:  mu: +0.117059104  nElectrons: 209.000000  magneticMoment: [ Abs: 0.00000  Tot: -0.00000 ]
	SubspaceRotationAdjust: set factor to 0.108
ElecMinimize: Iter:  10  F: -1623.730831477469792  |grad|_K:  7.124e-07  alpha:  4.510e-01  linmin:  1.484e-06  t[s]:   7191.94
	FillingsUpdate:  mu: +0.117041673  nElectrons: 209.000000  magneticMoment: [ Abs: 0.00000  Tot: -0.00000 ]
	SubspaceRotationAdjust: set factor to 0.114
ElecMinimize: Iter:  11  F: -1623.730905204992268  |grad|_K:  4.202e-07  alpha:  3.976e-01  linmin: -3.520e-07  t[s]:   7244.09
	FillingsUpdate:  mu: +0.116693729  nElectrons: 209.000000  magneticMoment: [ Abs: 0.00000  Tot: -0.00000 ]
	SubspaceRotationAdjust: set factor to 0.119
ElecMinimize: Iter:  12  F: -1623.730933371012043  |grad|_K:  2.655e-07  alpha:  4.364e-01  linmin:  7.070e-07  t[s]:   7296.31
	FillingsUpdate:  mu: +0.116434487  nElectrons: 209.000000  magneticMoment: [ Abs: 0.00000  Tot: -0.00000 ]
	SubspaceRotationAdjust: set factor to 0.116
ElecMinimize: Iter:  13  F: -1623.730944079149367  |grad|_K:  1.648e-07  alpha:  4.156e-01  linmin:  3.302e-09  t[s]:   7348.78
	FillingsUpdate:  mu: +0.116387426  nElectrons: 209.000000  magneticMoment: [ Abs: 0.00000  Tot: -0.00000 ]
	SubspaceRotationAdjust: set factor to 0.112
ElecMinimize: Iter:  14  F: -1623.730948203958178  |grad|_K:  1.045e-07  alpha:  4.157e-01  linmin:  1.017e-07  t[s]:   7400.92
	FillingsUpdate:  mu: +0.116325310  nElectrons: 209.000000  magneticMoment: [ Abs: 0.00000  Tot: -0.00000 ]
	SubspaceRotationAdjust: set factor to 0.12
ElecMinimize: Iter:  15  F: -1623.730949927831034  |grad|_K:  6.344e-08  alpha:  4.316e-01  linmin: -4.827e-07  t[s]:   7452.90
	FillingsUpdate:  mu: +0.116292373  nElectrons: 209.000000  magneticMoment: [ Abs: 0.00000  Tot: -0.00000 ]
	SubspaceRotationAdjust: set factor to 0.136
ElecMinimize: Iter:  16  F: -1623.730950622487171  |grad|_K:  4.361e-08  alpha:  4.721e-01  linmin: -5.434e-06  t[s]:   7504.98
	FillingsUpdate:  mu: +0.116274866  nElectrons: 209.000000  magneticMoment: [ Abs: 0.00000  Tot: -0.00000 ]
	SubspaceRotationAdjust: set factor to 0.161
ElecMinimize: Iter:  17  F: -1623.730950910960701  |grad|_K:  3.067e-08  alpha:  4.149e-01  linmin: -7.133e-06  t[s]:   7557.36
	FillingsUpdate:  mu: +0.116244503  nElectrons: 209.000000  magneticMoment: [ Abs: 0.00000  Tot: -0.00000 ]
	SubspaceRotationAdjust: set factor to 0.183
ElecMinimize: Iter:  18  F: -1623.730951077111058  |grad|_K:  2.521e-08  alpha:  4.838e-01  linmin:  1.227e-05  t[s]:   7609.60
	FillingsUpdate:  mu: +0.116222736  nElectrons: 209.000000  magneticMoment: [ Abs: 0.00000  Tot: -0.00000 ]
	SubspaceRotationAdjust: set factor to 0.178
ElecMinimize: Iter:  19  F: -1623.730951186564880  |grad|_K:  2.274e-08  alpha:  4.716e-01  linmin:  7.523e-06  t[s]:   7661.92
	FillingsUpdate:  mu: +0.116207629  nElectrons: 209.000000  magneticMoment: [ Abs: 0.00000  Tot: -0.00000 ]
	SubspaceRotationAdjust: set factor to 0.141
ElecMinimize: Iter:  20  F: -1623.730951251532588  |grad|_K:  1.930e-08  alpha:  3.451e-01  linmin:  2.592e-10  t[s]:   7714.31
	FillingsUpdate:  mu: +0.116195451  nElectrons: 209.000000  magneticMoment: [ Abs: 0.00000  Tot: -0.00000 ]
	SubspaceRotationAdjust: set factor to 0.124
ElecMinimize: Iter:  21  F: -1623.730951302982248  |grad|_K:  1.381e-08  alpha:  3.786e-01  linmin:  4.883e-05  t[s]:   7767.63
ElecMinimize: Converged (|Delta F|<1.000000e-07 for 2 iters).
Setting wave functions to eigenvectors of Hamiltonian
Converging empty states (this may take a while): |deigs|: 1.075e-06

Computing DFT-D3 correction:
# coordination-number Ag 5.523 5.511 7.430 9.025 8.933 9.114 9.087 9.113 8.937 9.042 7.446
# diagonal-C6 Ag 268.61 268.61 268.61 268.61 268.61 268.61 268.61 268.61 268.61 268.61 268.61
EvdW_6 =   -0.069812
EvdW_8 =   -0.094856

# Ionic positions in cartesian coordinates:
ion Ag  -0.000967093215361  -0.043548962992850  24.282036229027486 1
ion Ag   0.002859701292327   4.948836781971697   1.135304845616716 1
ion Ag   2.708271804228823   0.811769846239430   3.239825166428935 1
ion Ag   2.710446690952323   5.733775147611601   5.746331672719805 1
ion Ag   0.000289773555031   1.615325198972842   8.045990854865508 1
ion Ag   0.001522814694049   6.514056851802352  10.382017009712614 1
ion Ag   2.708938802311200   2.451983624486740  12.711766619387554 1
ion Ag   2.710666310499757   7.378594686667763  15.046255554639513 1
ion Ag  -0.002303550879623   3.286514926627643  17.382286111584030 1
ion Ag   0.001078542905402   8.155633676945337  19.679540128829704 1
ion Ag   2.710317203656073   4.091019221667447  22.181727807188128 1

# Forces in Cartesian coordinates:
force Ag   0.000008376320319  -0.000152278292618   0.000669544660397 1
force Ag   0.000003324757047   0.000147176095310  -0.000668447699869 1
force Ag   0.000009425541496   0.000040825661648   0.000601035081503 1
force Ag   0.000001663099664   0.000301973486023  -0.001091090770435 1
force Ag  -0.000004381831321  -0.000306741296028  -0.000619430796380 1
force Ag  -0.000004632729019   0.000612767609502   0.000605504507843 1
force Ag   0.000004690360112   0.000009601181999   0.000174911812172 1
force Ag  -0.000005805694680  -0.000600130017540  -0.000517261058332 1
force Ag   0.000012908449550   0.000271021097981   0.000417576786258 1
force Ag   0.000002749657843  -0.000258828843855   0.001066651518143 1
force Ag  -0.000003540766222   0.000000822600989  -0.000440315813310 1

# Energy components:
   Eewald =    14659.2214721486598137
       EH =    16124.0197364446557913
     Eloc =   -32662.0299136371177156
      Enl =       43.3919904096471640
     EvdW =       -0.1646676992511692
      Exc =     -159.4004879974964979
 Exc_core =        2.2898757241656962
       KE =      368.9412881764135363
-------------------------------------
     Etot =    -1623.7307064303213338
       TS =        0.0002448726609838
-------------------------------------
        F =    -1623.7309513029822483


Dumping 'jdft.fillings' ... done
Dumping 'jdft.wfns' ... done
Dumping 'jdft.ionpos' ... done
Dumping 'jdft.lattice' ... done
Dumping 'jdft.eigenvals' ... done
Dumping 'jdft.eigStats' ... 
	eMin: -3.268538 at state 0 ( [ +0.000000 +0.000000 +0.000000 ] spin 1 )
	HOMO: +0.116178 at state 135 ( [ +0.461538 +0.285714 +0.000000 ] spin -1 )
	mu  : +0.116195
	LUMO: +0.117057 at state 128 ( [ +0.384615 +0.285714 +0.000000 ] spin -1 )
	eMax: +0.443811 at state 135 ( [ +0.461538 +0.285714 +0.000000 ] spin -1 )
	HOMO-LUMO gap: +0.000879
	Optical gap  : +0.006929 at state 135 ( [ +0.461538 +0.285714 +0.000000 ] spin -1 )
Dumping 'jdft.Ecomponents' ... done
IonicMinimize: Iter:   4  F: -1623.730951302982248  |grad|_K:  4.301e-04  alpha:  1.000e+00  linmin: -1.791e-02  t[s]:   7849.60

#--- Lowdin population analysis ---
# oxidation-state Ag +0.089 +0.089 -0.033 -0.037 +0.008 -0.001 +0.003 -0.001 +0.008 -0.037 -0.032
# magnetic-moments Ag -0.000 -0.000 -0.000 +0.000 +0.000 -0.000 -0.000 +0.000 -0.000 +0.000 -0.000


Computing DFT-D3 correction:
# coordination-number Ag 5.516 5.503 7.421 8.990 8.883 9.067 9.037 9.073 8.900 9.015 7.444
# diagonal-C6 Ag 268.61 268.61 268.61 268.61 268.61 268.61 268.61 268.61 268.61 268.61 268.61
EvdW_6 =   -0.069641
EvdW_8 =   -0.094603

-------- Electronic minimization -----------
	FillingsUpdate:  mu: +0.254236251  nElectrons: 209.000000  magneticMoment: [ Abs: 0.00000  Tot: -0.00000 ]
ElecMinimize: Iter:   0  F: -1623.518660597421785  |grad|_K:  4.713e-05  alpha:  1.000e+00
	FillingsUpdate:  mu: +0.099671856  nElectrons: 209.000000  magneticMoment: [ Abs: 0.00000  Tot: -0.00000 ]
	SubspaceRotationAdjust: set factor to 0.087
ElecMinimize: Iter:   1  F: -1623.714288791736635  |grad|_K:  9.605e-06  alpha:  2.431e-01  linmin:  1.412e-03  t[s]:   7942.84
	FillingsUpdate:  mu: +0.098022879  nElectrons: 209.000000  magneticMoment: [ Abs: 0.00000  Tot: -0.00000 ]
	SubspaceRotationAdjust: set factor to 0.127
ElecMinimize: Iter:   2  F: -1623.723951971280258  |grad|_K:  3.644e-06  alpha:  2.887e-01  linmin: -9.339e-06  t[s]:   7995.06
	FillingsUpdate:  mu: +0.109219821  nElectrons: 209.000000  magneticMoment: [ Abs: 0.00000  Tot: -0.00000 ]
	SubspaceRotationAdjust: set factor to 0.145
ElecMinimize: Iter:   3  F: -1623.725865521713558  |grad|_K:  2.276e-06  alpha:  3.943e-01  linmin:  1.442e-05  t[s]:   8047.98
	FillingsUpdate:  mu: +0.119412794  nElectrons: 209.000000  magneticMoment: [ Abs: 0.00000  Tot: -0.00000 ]
	SubspaceRotationAdjust: set factor to 0.169
ElecMinimize: Iter:   4  F: -1623.726954134064727  |grad|_K:  2.384e-06  alpha:  5.759e-01  linmin:  2.753e-05  t[s]:   8100.37
	FillingsUpdate:  mu: +0.120424185  nElectrons: 209.000000  magneticMoment: [ Abs: 0.00000  Tot: -0.00000 ]
	SubspaceRotationAdjust: set factor to 0.225
ElecMinimize: Iter:   5  F: -1623.728148387693636  |grad|_K:  2.248e-06  alpha:  5.767e-01  linmin: -3.642e-06  t[s]:   8152.30
	FillingsUpdate:  mu: +0.115706774  nElectrons: 209.000000  magneticMoment: [ Abs: 0.00000  Tot: -0.00000 ]
	SubspaceRotationAdjust: set factor to 0.259
ElecMinimize: Iter:   6  F: -1623.729280023815136  |grad|_K:  2.173e-06  alpha:  6.122e-01  linmin: -6.052e-06  t[s]:   8204.28
	FillingsUpdate:  mu: +0.118233513  nElectrons: 209.000000  magneticMoment: [ Abs: 0.00000  Tot: -0.00000 ]
	SubspaceRotationAdjust: set factor to 0.281
ElecMinimize: Iter:   7  F: -1623.730179713737243  |grad|_K:  1.785e-06  alpha:  5.206e-01  linmin:  1.877e-06  t[s]:   8256.42
	FillingsUpdate:  mu: +0.116520812  nElectrons: 209.000000  magneticMoment: [ Abs: 0.00000  Tot: -0.00000 ]
	SubspaceRotationAdjust: set factor to 0.26
ElecMinimize: Iter:   8  F: -1623.730644133814849  |grad|_K:  1.445e-06  alpha:  3.992e-01  linmin: -2.122e-06  t[s]:   8308.85
	FillingsUpdate:  mu: +0.116150877  nElectrons: 209.000000  magneticMoment: [ Abs: 0.00000  Tot: -0.00000 ]
	SubspaceRotationAdjust: set factor to 0.167
ElecMinimize: Iter:   9  F: -1623.730784891262601  |grad|_K:  1.134e-06  alpha:  1.843e-01  linmin: -9.913e-07  t[s]:   8361.22
	FillingsUpdate:  mu: +0.116485777  nElectrons: 209.000000  magneticMoment: [ Abs: 0.00000  Tot: -0.00000 ]
	SubspaceRotationAdjust: set factor to 0.15
ElecMinimize: Iter:  10  F: -1623.730907508040900  |grad|_K:  6.696e-07  alpha:  2.611e-01  linmin:  1.790e-06  t[s]:   8413.43
	FillingsUpdate:  mu: +0.116830275  nElectrons: 209.000000  magneticMoment: [ Abs: 0.00000  Tot: -0.00000 ]
	SubspaceRotationAdjust: set factor to 0.168
ElecMinimize: Iter:  11  F: -1623.730962393858590  |grad|_K:  4.404e-07  alpha:  3.350e-01  linmin: -1.015e-06  t[s]:   8465.41
	FillingsUpdate:  mu: +0.116564544  nElectrons: 209.000000  magneticMoment: [ Abs: 0.00000  Tot: -0.00000 ]
	SubspaceRotationAdjust: set factor to 0.143
ElecMinimize: Iter:  12  F: -1623.730984871789815  |grad|_K:  3.273e-07  alpha:  3.170e-01  linmin: -1.110e-07  t[s]:   8517.60
	FillingsUpdate:  mu: +0.116105795  nElectrons: 209.000000  magneticMoment: [ Abs: 0.00000  Tot: -0.00000 ]
	SubspaceRotationAdjust: set factor to 0.141
ElecMinimize: Iter:  13  F: -1623.730996127399067  |grad|_K:  2.054e-07  alpha:  2.875e-01  linmin: -1.097e-07  t[s]:   8569.34
	FillingsUpdate:  mu: +0.115990199  nElectrons: 209.000000  magneticMoment: [ Abs: 0.00000  Tot: -0.00000 ]
	SubspaceRotationAdjust: set factor to 0.182
ElecMinimize: Iter:  14  F: -1623.731002339905217  |grad|_K:  1.563e-07  alpha:  4.030e-01  linmin: -1.493e-06  t[s]:   8621.75
	FillingsUpdate:  mu: +0.116155542  nElectrons: 209.000000  magneticMoment: [ Abs: 0.00000  Tot: -0.00000 ]
	SubspaceRotationAdjust: set factor to 0.169
ElecMinimize: Iter:  15  F: -1623.731005906888868  |grad|_K:  1.452e-07  alpha:  3.996e-01  linmin:  1.787e-07  t[s]:   8674.04
	FillingsUpdate:  mu: +0.116201585  nElectrons: 209.000000  magneticMoment: [ Abs: 0.00000  Tot: -0.00000 ]
	SubspaceRotationAdjust: set factor to 0.171
ElecMinimize: Iter:  16  F: -1623.731008416616987  |grad|_K:  1.229e-07  alpha:  3.258e-01  linmin:  3.712e-07  t[s]:   8726.10
	FillingsUpdate:  mu: +0.116038264  nElectrons: 209.000000  magneticMoment: [ Abs: 0.00000  Tot: -0.00000 ]
	SubspaceRotationAdjust: set factor to 0.209
ElecMinimize: Iter:  17  F: -1623.731011180368114  |grad|_K:  1.125e-07  alpha:  5.004e-01  linmin: -1.958e-07  t[s]:   8778.03
	FillingsUpdate:  mu: +0.116119258  nElectrons: 209.000000  magneticMoment: [ Abs: 0.00000  Tot: -0.00000 ]
	SubspaceRotationAdjust: set factor to 0.229
ElecMinimize: Iter:  18  F: -1623.731013586032304  |grad|_K:  1.085e-07  alpha:  5.198e-01  linmin:  7.141e-08  t[s]:   8830.03
	FillingsUpdate:  mu: +0.116185581  nElectrons: 209.000000  magneticMoment: [ Abs: 0.00000  Tot: -0.00000 ]
	SubspaceRotationAdjust: set factor to 0.177
ElecMinimize: Iter:  19  F: -1623.731014808795635  |grad|_K:  1.033e-07  alpha:  2.841e-01  linmin: -1.486e-08  t[s]:   8882.29
	FillingsUpdate:  mu: +0.116176508  nElectrons: 209.000000  magneticMoment: [ Abs: 0.00000  Tot: -0.00000 ]
	SubspaceRotationAdjust: set factor to 0.144
ElecMinimize: Iter:  20  F: -1623.731016003514924  |grad|_K:  7.007e-08  alpha:  3.065e-01  linmin:  3.359e-07  t[s]:   8934.40
	FillingsUpdate:  mu: +0.116113329  nElectrons: 209.000000  magneticMoment: [ Abs: 0.00000  Tot: +0.00000 ]
	SubspaceRotationAdjust: set factor to 0.153
ElecMinimize: Iter:  21  F: -1623.731016747852209  |grad|_K:  4.972e-08  alpha:  4.146e-01  linmin: -2.181e-06  t[s]:   8986.97
	FillingsUpdate:  mu: +0.116149032  nElectrons: 209.000000  magneticMoment: [ Abs: 0.00000  Tot: +0.00000 ]
	SubspaceRotationAdjust: set factor to 0.145
[...]
force Ag  -0.000001162863687   0.000077506343246  -0.000351340336679 1
force Ag   0.000002124301632  -0.000023764923666  -0.000129494948641 1
force Ag   0.000002413925843  -0.000010255836220   0.000061088963888 1
force Ag   0.000010013889447  -0.000089291071318  -0.000068467376096 1
force Ag   0.000006886277954  -0.000207086474318   0.000007123095366 1
force Ag   0.000003164770688   0.000022564943311  -0.000178043495957 1

# Energy components:
   Eewald =    14590.0433852911264694
       EH =    16054.9172163013663521
     Eloc =   -32523.7423356373219576
      Enl =       43.3973991340930212
     EvdW =       -0.1639653136649811
      Exc =     -159.3908276694757262
 Exc_core =        2.2898753595194674
       KE =      368.9184347708189193
-------------------------------------
     Etot =    -1623.7308177635363791
       TS =        0.0002421614290677
-------------------------------------
        F =    -1623.7310599249653933


Dumping 'jdft.fillings' ... done
Dumping 'jdft.wfns' ... done
Dumping 'jdft.ionpos' ... done
Dumping 'jdft.lattice' ... done
Dumping 'jdft.eigenvals' ... done
Dumping 'jdft.eigStats' ... 
	eMin: -3.268019 at state 0 ( [ +0.000000 +0.000000 +0.000000 ] spin 1 )
	HOMO: +0.114971 at state 99 ( [ +0.076923 +0.142857 +0.000000 ] spin -1 )
	mu  : +0.116210
	LUMO: +0.116529 at state 0 ( [ +0.000000 +0.000000 +0.000000 ] spin 1 )
	eMax: +0.443434 at state 135 ( [ +0.461538 +0.285714 +0.000000 ] spin -1 )
	HOMO-LUMO gap: +0.001559
	Optical gap  : +0.012065 at state 91 ( [ +0.000000 +0.000000 +0.000000 ] spin -1 )
Dumping 'jdft.Ecomponents' ... done
IonicMinimize: Iter:   6  F: -1623.731059924965393  |grad|_K:  1.133e-04  alpha:  1.000e+00  linmin: -2.985e-01  t[s]:  10598.79

#--- Lowdin population analysis ---
# oxidation-state Ag +0.089 +0.090 -0.033 -0.037 +0.008 -0.000 +0.003 -0.001 +0.007 -0.037 -0.034
# magnetic-moments Ag -0.000 -0.000 +0.000 -0.000 +0.000 -0.000 -0.000 -0.000 +0.000 +0.000 +0.000


Computing DFT-D3 correction:
# coordination-number Ag 5.459 5.471 7.444 8.985 8.883 9.026 8.996 9.016 8.870 8.970 7.437
# diagonal-C6 Ag 268.61 268.61 268.61 268.61 268.61 268.61 268.61 268.61 268.61 268.61 268.61
EvdW_6 =   -0.069492
EvdW_8 =   -0.094352

-------- Electronic minimization -----------
	FillingsUpdate:  mu: +0.154774475  nElectrons: 209.000000  magneticMoment: [ Abs: 0.00000  Tot: +0.00000 ]
ElecMinimize: Iter:   0  F: -1623.686049451351209  |grad|_K:  2.067e-05  alpha:  1.000e+00
	FillingsUpdate:  mu: +0.110534807  nElectrons: 209.000000  magneticMoment: [ Abs: 0.00000  Tot: +0.00000 ]
	SubspaceRotationAdjust: set factor to 0.104
ElecMinimize: Iter:   1  F: -1623.726350967096778  |grad|_K:  5.523e-06  alpha:  2.588e-01  linmin:  5.644e-04  t[s]:  10692.40
	FillingsUpdate:  mu: +0.110866227  nElectrons: 209.000000  magneticMoment: [ Abs: 0.00000  Tot: +0.00000 ]
	SubspaceRotationAdjust: set factor to 0.119
ElecMinimize: Iter:   2  F: -1623.729430127506930  |grad|_K:  1.869e-06  alpha:  2.769e-01  linmin: -5.388e-06  t[s]:  10745.24
	FillingsUpdate:  mu: +0.115510842  nElectrons: 209.000000  magneticMoment: [ Abs: 0.00000  Tot: -0.00000 ]
	SubspaceRotationAdjust: set factor to 0.148
ElecMinimize: Iter:   3  F: -1623.729906055321180  |grad|_K:  1.055e-06  alpha:  3.727e-01  linmin:  7.197e-06  t[s]:  10797.41
	FillingsUpdate:  mu: +0.116539812  nElectrons: 209.000000  magneticMoment: [ Abs: 0.00000  Tot: -0.00000 ]
	SubspaceRotationAdjust: set factor to 0.173
ElecMinimize: Iter:   4  F: -1623.730146261419804  |grad|_K:  1.114e-06  alpha:  5.909e-01  linmin:  8.637e-07  t[s]:  10849.51
	FillingsUpdate:  mu: +0.116311986  nElectrons: 209.000000  magneticMoment: [ Abs: 0.00000  Tot: -0.00000 ]
	SubspaceRotationAdjust: set factor to 0.194
ElecMinimize: Iter:   5  F: -1623.730391083331142  |grad|_K:  1.085e-06  alpha:  5.395e-01  linmin:  2.264e-07  t[s]:  10901.96
	FillingsUpdate:  mu: +0.116885287  nElectrons: 209.000000  magneticMoment: [ Abs: 0.00000  Tot: -0.00000 ]
	SubspaceRotationAdjust: set factor to 0.183
ElecMinimize: Iter:   6  F: -1623.730629713946882  |grad|_K:  1.179e-06  alpha:  5.543e-01  linmin: -4.066e-06  t[s]:  10954.21
	FillingsUpdate:  mu: +0.116870264  nElectrons: 209.000000  magneticMoment: [ Abs: 0.00000  Tot: +0.00000 ]
	SubspaceRotationAdjust: set factor to 0.141
ElecMinimize: Iter:   7  F: -1623.730810926838558  |grad|_K:  1.022e-06  alpha:  3.560e-01  linmin: -5.378e-07  t[s]:  11006.36
	FillingsUpdate:  mu: +0.116291528  nElectrons: 209.000000  magneticMoment: [ Abs: 0.00000  Tot: +0.00000 ]
	SubspaceRotationAdjust: set factor to 0.107
ElecMinimize: Iter:   8  F: -1623.730952074128254  |grad|_K:  6.667e-07  alpha:  3.700e-01  linmin: -5.379e-06  t[s]:  11058.42
	FillingsUpdate:  mu: +0.116473695  nElectrons: 209.000000  magneticMoment: [ Abs: 0.00000  Tot: +0.00000 ]
	SubspaceRotationAdjust: set factor to 0.105
ElecMinimize: Iter:   9  F: -1623.731016583111114  |grad|_K:  4.265e-07  alpha:  3.967e-01  linmin:  1.090e-06  t[s]:  11110.61
	FillingsUpdate:  mu: +0.116654022  nElectrons: 209.000000  magneticMoment: [ Abs: 0.00000  Tot: +0.00000 ]
	SubspaceRotationAdjust: set factor to 0.11
ElecMinimize: Iter:  10  F: -1623.731045858287189  |grad|_K:  2.601e-07  alpha:  4.404e-01  linmin:  6.940e-07  t[s]:  11162.62
	FillingsUpdate:  mu: +0.116496566  nElectrons: 209.000000  magneticMoment: [ Abs: 0.00000  Tot: +0.00000 ]
	SubspaceRotationAdjust: set factor to 0.108
ElecMinimize: Iter:  11  F: -1623.731055799559954  |grad|_K:  1.641e-07  alpha:  4.022e-01  linmin: -5.492e-07  t[s]:  11214.59
	FillingsUpdate:  mu: +0.116297257  nElectrons: 209.000000  magneticMoment: [ Abs: 0.00000  Tot: +0.00000 ]
	SubspaceRotationAdjust: set factor to 0.107
ElecMinimize: Iter:  12  F: -1623.731059754067701  |grad|_K:  1.059e-07  alpha:  4.018e-01  linmin:  2.831e-06  t[s]:  11266.87
	FillingsUpdate:  mu: +0.116230886  nElectrons: 209.000000  magneticMoment: [ Abs: 0.00000  Tot: +0.00000 ]
	SubspaceRotationAdjust: set factor to 0.127
ElecMinimize: Iter:  13  F: -1623.731061530068700  |grad|_K:  7.003e-08  alpha:  4.329e-01  linmin: -9.667e-06  t[s]:  11319.21
	FillingsUpdate:  mu: +0.116245890  nElectrons: 209.000000  magneticMoment: [ Abs: 0.00000  Tot: +0.00000 ]
	SubspaceRotationAdjust: set factor to 0.157
ElecMinimize: Iter:  14  F: -1623.731062415478164  |grad|_K:  5.729e-08  alpha:  4.937e-01  linmin: -7.952e-06  t[s]:  11371.20
	FillingsUpdate:  mu: +0.116220517  nElectrons: 209.000000  magneticMoment: [ Abs: 0.00000  Tot: +0.00000 ]
	SubspaceRotationAdjust: set factor to 0.178
ElecMinimize: Iter:  15  F: -1623.731063010945263  |grad|_K:  5.244e-08  alpha:  4.962e-01  linmin: -5.161e-07  t[s]:  11423.54
	FillingsUpdate:  mu: +0.116200556  nElectrons: 209.000000  magneticMoment: [ Abs: 0.00000  Tot: +0.00000 ]
	SubspaceRotationAdjust: set factor to 0.183
ElecMinimize: Iter:  16  F: -1623.731063511712136  |grad|_K:  5.498e-08  alpha:  4.981e-01  linmin: -2.684e-07  t[s]:  11476.00
	FillingsUpdate:  mu: +0.116218788  nElectrons: 209.000000  magneticMoment: [ Abs: 0.00000  Tot: +0.00000 ]
	SubspaceRotationAdjust: set factor to 0.172
ElecMinimize: Iter:  17  F: -1623.731063979391365  |grad|_K:  5.038e-08  alpha:  4.232e-01  linmin:  5.201e-08  t[s]:  11528.35
	FillingsUpdate:  mu: +0.116228647  nElectrons: 209.000000  magneticMoment: [ Abs: 0.00000  Tot: +0.00000 ]
	SubspaceRotationAdjust: set factor to 0.158
ElecMinimize: Iter:  18  F: -1623.731064393120278  |grad|_K:  4.256e-08  alpha:  4.460e-01  linmin: -1.793e-06  t[s]:  11580.99
	FillingsUpdate:  mu: +0.116214703  nElectrons: 209.000000  magneticMoment: [ Abs: 0.00000  Tot: +0.00000 ]
	SubspaceRotationAdjust: set factor to 0.14
ElecMinimize: Iter:  19  F: -1623.731064696679823  |grad|_K:  3.393e-08  alpha:  4.582e-01  linmin:  5.515e-07  t[s]:  11632.95
	FillingsUpdate:  mu: +0.116230232  nElectrons: 209.000000  magneticMoment: [ Abs: 0.00000  Tot: +0.00000 ]
	SubspaceRotationAdjust: set factor to 0.121
ElecMinimize: Iter:  20  F: -1623.731064860090100  |grad|_K:  2.408e-08  alpha:  3.880e-01  linmin:  3.033e-09  t[s]:  11686.08
	FillingsUpdate:  mu: +0.116247091  nElectrons: 209.000000  magneticMoment: [ Abs: 0.00000  Tot: +0.00000 ]
	SubspaceRotationAdjust: set factor to 0.111
ElecMinimize: Iter:  21  F: -1623.731064944859099  |grad|_K:  1.594e-08  alpha:  3.997e-01  linmin: -1.106e-05  t[s]:  11738.54
	FillingsUpdate:  mu: +0.116245353  nElectrons: 209.000000  magneticMoment: [ Abs: 0.00000  Tot: -0.00000 ]
	SubspaceRotationAdjust: set factor to 0.124
ElecMinimize: Iter:  22  F: -1623.731064984913246  |grad|_K:  1.096e-08  alpha:  4.325e-01  linmin:  4.354e-05  t[s]:  11790.69
ElecMinimize: Converged (|Delta F|<1.000000e-07 for 2 iters).
Setting wave functions to eigenvectors of Hamiltonian
Converging empty states (this may take a while): |deigs|: 1.507e-07

Computing DFT-D3 correction:
# coordination-number Ag 5.459 5.471 7.444 8.985 8.883 9.026 8.996 9.016 8.870 8.970 7.437
# diagonal-C6 Ag 268.61 268.61 268.61 268.61 268.61 268.61 268.61 268.61 268.61 268.61 268.61
EvdW_6 =   -0.069492
EvdW_8 =   -0.094352

# Ionic positions in cartesian coordinates:
ion Ag  -0.000632047414880  -0.063832760104095  24.361077422657569 1
ion Ag   0.003283003235585   4.968268664592395   1.071477900699244 1
ion Ag   2.708654689416939   0.828295797542063   3.218031460590433 1
ion Ag   2.710548794551356   5.753730491759979   5.691530315809839 1
ion Ag  -0.000396843294770   1.624453110331270   8.014317298070162 1
ion Ag   0.001097529839824   6.529329629188206  10.364293140133903 1
ion Ag   2.708752692877619   2.450682502505925  12.708818871529644 1
ion Ag   2.710232991166474   7.363643695847720  15.055556722428989 1
ion Ag  -0.001697690411191   3.276235303388357  17.407150813025247 1
ion Ag   0.001428093390510   8.138236600586609  19.734769764278450 1
ion Ag   2.709849786642537   4.074917964361575  22.206058290776507 1

# Forces in Cartesian coordinates:
force Ag   0.000001768700018   0.000133021048731  -0.000192991467313 1
force Ag   0.000001087494166  -0.000128857108140   0.000254703543472 1
force Ag   0.000001829401863   0.000553580225111  -0.000158837992169 1
force Ag  -0.000000085457316  -0.000318690579479  -0.000134439866045 1
force Ag   0.000003918993226   0.000438489348695   0.000044379998736 1
force Ag   0.000002641808599  -0.000157427536402   0.000407864597334 1
force Ag   0.000000621803479   0.000131946748031   0.000086630881474 1
force Ag   0.000003994806712   0.000013454454223  -0.000094450560316 1
force Ag   0.000003617986645  -0.000285472810671  -0.000018054310880 1
force Ag   0.000008859210607   0.000241226384887   0.000048674629559 1
force Ag   0.000005700781526  -0.000549670402696   0.000224717840186 1

# Energy components:
   Eewald =    14576.7392980994372920
       EH =    16041.6354263215926039
     Eloc =   -32497.1552361540088896
      Enl =       43.3988018744717721
     EvdW =       -0.1638436855747384
      Exc =     -159.3888001501010478
 Exc_core =        2.2898752070167383
       KE =      368.9136542942067081
-------------------------------------
     Etot =    -1623.7308241929576980
       TS =        0.0002407919555585
-------------------------------------
        F =    -1623.7310649849132460


Dumping 'jdft.fillings' ... done
Dumping 'jdft.wfns' ... done
Dumping 'jdft.ionpos' ... done
Dumping 'jdft.lattice' ... done
Dumping 'jdft.eigenvals' ... done
Dumping 'jdft.eigStats' ... 
	eMin: -3.267868 at state 0 ( [ +0.000000 +0.000000 +0.000000 ] spin 1 )
	HOMO: +0.114851 at state 99 ( [ +0.076923 +0.142857 +0.000000 ] spin -1 )
	mu  : +0.116245
	LUMO: +0.116677 at state 91 ( [ +0.000000 +0.000000 +0.000000 ] spin -1 )
	eMax: +0.443383 at state 54 ( [ -0.461538 -0.285714 +0.000000 ] spin 1 )
	HOMO-LUMO gap: +0.001826
	Optical gap  : +0.012313 at state 91 ( [ +0.000000 +0.000000 +0.000000 ] spin -1 )
Dumping 'jdft.Ecomponents' ... done
IonicMinimize: Iter:   7  F: -1623.731064984913246  |grad|_K:  2.119e-04  alpha:  1.000e+00  linmin:  3.295e-01  t[s]:  11843.19

#--- Lowdin population analysis ---
# oxidation-state Ag +0.090 +0.090 -0.033 -0.037 +0.007 -0.000 +0.003 -0.000 +0.007 -0.037 -0.034
# magnetic-moments Ag +0.000 -0.000 -0.000 -0.000 +0.000 +0.000 -0.000 +0.000 +0.000 -0.000 +0.000


Computing DFT-D3 correction:
# coordination-number Ag 5.465 5.478 7.443 8.980 8.877 9.023 8.999 9.017 8.868 8.968 7.435
# diagonal-C6 Ag 268.61 268.61 268.61 268.61 268.61 268.61 268.61 268.61 268.61 268.61 268.61
EvdW_6 =   -0.069487
EvdW_8 =   -0.094339

-------- Electronic minimization -----------
	FillingsUpdate:  mu: +0.116234732  nElectrons: 209.000000  magneticMoment: [ Abs: 0.00000  Tot: +0.00000 ]
ElecMinimize: Iter:   0  F: -1623.731052864561661  |grad|_K:  1.309e-07  alpha:  1.000e+00
	FillingsUpdate:  mu: +0.116264285  nElectrons: 209.000000  magneticMoment: [ Abs: 0.00000  Tot: -0.00000 ]
	SubspaceRotationAdjust: set factor to 0.125
ElecMinimize: Iter:   1  F: -1623.731056230688864  |grad|_K:  1.108e-07  alpha:  5.371e-01  linmin: -1.266e-06  t[s]:  11938.46
	FillingsUpdate:  mu: +0.116267405  nElectrons: 209.000000  magneticMoment: [ Abs: 0.00000  Tot: -0.00000 ]
	SubspaceRotationAdjust: set factor to 0.132
ElecMinimize: Iter:   2  F: -1623.731059110088609  |grad|_K:  1.342e-07  alpha:  6.421e-01  linmin: -3.378e-07  t[s]:  11990.90
	FillingsUpdate:  mu: +0.116247081  nElectrons: 209.000000  magneticMoment: [ Abs: 0.00000  Tot: -0.00000 ]
	SubspaceRotationAdjust: set factor to 0.129
ElecMinimize: Iter:   3  F: -1623.731063247339762  |grad|_K:  1.273e-07  alpha:  6.282e-01  linmin:  4.628e-07  t[s]:  12043.31
	FillingsUpdate:  mu: +0.116223782  nElectrons: 209.000000  magneticMoment: [ Abs: 0.00000  Tot: -0.00000 ]
	SubspaceRotationAdjust: set factor to 0.127
ElecMinimize: Iter:   4  F: -1623.731067028808638  |grad|_K:  1.080e-07  alpha:  6.380e-01  linmin: -2.873e-07  t[s]:  12095.25
	FillingsUpdate:  mu: +0.116235378  nElectrons: 209.000000  magneticMoment: [ Abs: 0.00000  Tot: -0.00000 ]
	SubspaceRotationAdjust: set factor to 0.123
ElecMinimize: Iter:   5  F: -1623.731068828746857  |grad|_K:  7.388e-08  alpha:  4.224e-01  linmin:  2.353e-07  t[s]:  12147.02
	FillingsUpdate:  mu: +0.116235568  nElectrons: 209.000000  magneticMoment: [ Abs: 0.00000  Tot: -0.00000 ]
	SubspaceRotationAdjust: set factor to 0.12
ElecMinimize: Iter:   6  F: -1623.731069683165288  |grad|_K:  4.513e-08  alpha:  4.283e-01  linmin: -1.290e-06  t[s]:  12199.49
	FillingsUpdate:  mu: +0.116226793  nElectrons: 209.000000  magneticMoment: [ Abs: 0.00000  Tot: -0.00000 ]
	SubspaceRotationAdjust: set factor to 0.118
ElecMinimize: Iter:   7  F: -1623.731069985632075  |grad|_K:  2.994e-08  alpha:  4.062e-01  linmin:  5.224e-06  t[s]:  12252.13
	FillingsUpdate:  mu: +0.116224650  nElectrons: 209.000000  magneticMoment: [ Abs: 0.00000  Tot: -0.00000 ]
	SubspaceRotationAdjust: set factor to 0.118
ElecMinimize: Iter:   8  F: -1623.731070117297577  |grad|_K:  1.715e-08  alpha:  4.023e-01  linmin:  1.568e-05  t[s]:  12304.12
	FillingsUpdate:  mu: +0.116221563  nElectrons: 209.000000  magneticMoment: [ Abs: 0.00000  Tot: -0.00000 ]
	SubspaceRotationAdjust: set factor to 0.121
ElecMinimize: Iter:   9  F: -1623.731070166958943  |grad|_K:  1.054e-08  alpha:  4.634e-01  linmin:  1.876e-04  t[s]:  12356.28
	FillingsUpdate:  mu: +0.116221102  nElectrons: 209.000000  magneticMoment: [ Abs: 0.00000  Tot: -0.00000 ]
	SubspaceRotationAdjust: set factor to 0.128
ElecMinimize: Iter:  10  F: -1623.731070184237751  |grad|_K:  6.586e-09  alpha:  4.238e-01  linmin: -2.168e-04  t[s]:  12408.37
ElecMinimize: Converged (|Delta F|<1.000000e-07 for 2 iters).
Setting wave functions to eigenvectors of Hamiltonian
Converging empty states (this may take a while): |deigs|: 4.322e-08

Computing DFT-D3 correction:
# coordination-number Ag 5.465 5.478 7.443 8.980 8.877 9.023 8.999 9.017 8.868 8.968 7.435
# diagonal-C6 Ag 268.61 268.61 268.61 268.61 268.61 268.61 268.61 268.61 268.61 268.61 268.61
EvdW_6 =   -0.069487
EvdW_8 =   -0.094339

# Ionic positions in cartesian coordinates:
ion Ag  -0.000647020033670  -0.062821089987668  24.360010604739720 1
ion Ag   0.003312226758771   4.967261896420358   1.072096355719570 1
ion Ag   2.708630560879344   0.831920077472429   3.215150764057159 1
ion Ag   2.710537462007276   5.751231418392800   5.689563324104832 1
ion Ag  -0.000391871830610   1.627100781397971   8.013947050672146 1
ion Ag   0.001108283510848   6.528036828472782  10.366880402287235 1
ion Ag   2.708731389308203   2.451521207293393  12.709265650557722 1
ion Ag   2.710238123954679   7.363828885677494  15.054874625422531 1
ion Ag  -0.001718362155989   3.274536988704674  17.407199247676719 1
ion Ag   0.001460092970325   8.140071109934707  19.735245769702910 1
ion Ag   2.709860114630825   4.071272896221060  22.208848205059450 1

# Forces in Cartesian coordinates:
force Ag   0.000002925557231  -0.000087482782024  -0.000071225419970 1
force Ag  -0.000001183994588   0.000086927794049   0.000087171200440 1
force Ag   0.000002439794606   0.000197275317661  -0.000017193292939 1
force Ag   0.000000375719585   0.000087713204253  -0.000001471918500 1
force Ag   0.000002174955917   0.000129177410615   0.000019573902618 1
force Ag   0.000001341340995   0.000053911907492   0.000069106136615 1
force Ag   0.000001013077789   0.000025193716507   0.000027458653084 1
force Ag   0.000004142502557  -0.000031060558978   0.000021495351145 1
force Ag   0.000005746504848  -0.000109483803857   0.000000657278041 1
force Ag   0.000007671457446  -0.000077807441478   0.000002637898606 1
force Ag   0.000003937167209  -0.000204032232827   0.000026802819190 1

# Energy components:
   Eewald =    14575.5306886168491474
       EH =    16040.4236856133684341
     Eloc =   -32494.7348001836471667
      Enl =       43.3987699090680437
     EvdW =       -0.1638258887534997
      Exc =     -159.3887386974342348
 Exc_core =        2.2898752056648051
       KE =      368.9135168095672270
-------------------------------------
     Etot =    -1623.7308286153154313
       TS =        0.0002415689223009
-------------------------------------
        F =    -1623.7310701842377512


Dumping 'jdft.fillings' ... done
Dumping 'jdft.wfns' ... done
Dumping 'jdft.ionpos' ... done
Dumping 'jdft.lattice' ... done
Dumping 'jdft.eigenvals' ... done
Dumping 'jdft.eigStats' ... 
	eMin: -3.267889 at state 0 ( [ +0.000000 +0.000000 +0.000000 ] spin 1 )
	HOMO: +0.114847 at state 90 ( [ -0.076923 -0.142857 +0.000000 ] spin 1 )
	mu  : +0.116221
	LUMO: +0.116660 at state 0 ( [ +0.000000 +0.000000 +0.000000 ] spin 1 )
	eMax: +0.443374 at state 135 ( [ +0.461538 +0.285714 +0.000000 ] spin -1 )
	HOMO-LUMO gap: +0.001813
	Optical gap  : +0.012307 at state 0 ( [ +0.000000 +0.000000 +0.000000 ] spin 1 )
Dumping 'jdft.Ecomponents' ... done
IonicMinimize: Iter:   8  F: -1623.731070184237751  |grad|_K:  6.961e-05  alpha:  1.000e+00  linmin: -5.060e-01  t[s]:  12460.52
IonicMinimize: Converged (|grad|_K<1.000000e-04).

#--- Lowdin population analysis ---
# oxidation-state Ag +0.090 +0.090 -0.033 -0.037 +0.007 -0.000 +0.003 -0.000 +0.007 -0.037 -0.034
# magnetic-moments Ag -0.000 -0.000 -0.000 -0.000 +0.000 -0.000 -0.000 +0.000 +0.000 -0.000 -0.000


Dumping 'jdft.n_up' ... done
Dumping 'jdft.n_dn' ... done
Dumping 'jdft.tau_up' ... done
Dumping 'jdft.tau_dn' ... done
Dumping 'jdft.eigenvals' ... done
Dumping 'jdft.eigStats' ... 
	eMin: -3.267889 at state 0 ( [ +0.000000 +0.000000 +0.000000 ] spin 1 )
	HOMO: +0.114847 at state 90 ( [ -0.076923 -0.142857 +0.000000 ] spin 1 )
	mu  : +0.116221
	LUMO: +0.116660 at state 0 ( [ +0.000000 +0.000000 +0.000000 ] spin 1 )
	eMax: +0.443374 at state 135 ( [ +0.461538 +0.285714 +0.000000 ] spin -1 )
	HOMO-LUMO gap: +0.001813
	Optical gap  : +0.012307 at state 0 ( [ +0.000000 +0.000000 +0.000000 ] spin 1 )
Dumping 'jdft.kPts' ... done
Dumping 'jdft.dosUp' ... done.
Dumping 'jdft.dosDn' ... done.
End date and time: Mon Dec  6 20:36:10 2021  (Duration: 0-3:28:16.61)
Done!
