
*************** JDFTx 1.6.0  ***************

Start date and time: Mon Dec  6 17:09:57 2021
Executable /projects/musgravc/apps/jdftx-1.6.1/build/jdftx with command-line: -i in
Running on hosts (process indices):  shas0131.rc.int.colorado.edu (0-23)
Divided in process groups (process indices):  0 (0)  1 (1)  2 (2)  3 (3)  4 (4)  5 (5)  6 (6)  7 (7)  8 (8)  9 (9)  10 (10)  11 (11)  12 (12)  13 (13)  14 (14)  15 (15)  16 (16)  17 (17)  18 (18)  19 (19)  20 (20)  21 (21)  22 (22)  23 (23)
Resource initialization completed at t[s]:      0.00
Run totals: 24 processes, 24 threads, 0 GPUs


Input parsed successfully to the following command list (including defaults):

basis kpoint-dependent
converge-empty-states yes
coords-type Cartesian
core-overlap-check none
coulomb-interaction Periodic
davidson-band-ratio 1.1
density-of-states Etol 1.000000e-06 Esigma 1.000000e-03 \
		Complete \
	Total \
	OrthoOrbital Ag 1   s \
	OrthoOrbital Ag 1   p \
	OrthoOrbital Ag 1   px \
	OrthoOrbital Ag 1   py \
	OrthoOrbital Ag 1   pz \
	OrthoOrbital Ag 1   d \
	OrthoOrbital Ag 1   dxy \
	OrthoOrbital Ag 1   dyz \
	OrthoOrbital Ag 1   dz2 \
	OrthoOrbital Ag 1   dxz \
	OrthoOrbital Ag 1   dx2-y2 \
	OrthoOrbital Ag 2   s \
	OrthoOrbital Ag 2   p \
	OrthoOrbital Ag 2   px \
	OrthoOrbital Ag 2   py \
	OrthoOrbital Ag 2   pz \
	OrthoOrbital Ag 2   d \
	OrthoOrbital Ag 2   dxy \
	OrthoOrbital Ag 2   dyz \
	OrthoOrbital Ag 2   dz2 \
	OrthoOrbital Ag 2   dxz \
	OrthoOrbital Ag 2   dx2-y2 \
	OrthoOrbital Ag 3   s \
	OrthoOrbital Ag 3   p \
	OrthoOrbital Ag 3   px \
	OrthoOrbital Ag 3   py \
	OrthoOrbital Ag 3   pz \
	OrthoOrbital Ag 3   d \
	OrthoOrbital Ag 3   dxy \
	OrthoOrbital Ag 3   dyz \
	OrthoOrbital Ag 3   dz2 \
	OrthoOrbital Ag 3   dxz \
	OrthoOrbital Ag 3   dx2-y2 \
	OrthoOrbital Ag 4   s \
	OrthoOrbital Ag 4   p \
	OrthoOrbital Ag 4   px \
	OrthoOrbital Ag 4   py \
	OrthoOrbital Ag 4   pz \
	OrthoOrbital Ag 4   d \
	OrthoOrbital Ag 4   dxy \
	OrthoOrbital Ag 4   dyz \
	OrthoOrbital Ag 4   dz2 \
	OrthoOrbital Ag 4   dxz \
	OrthoOrbital Ag 4   dx2-y2 \
	OrthoOrbital Ag 5   s \
	OrthoOrbital Ag 5   p \
	OrthoOrbital Ag 5   px \
	OrthoOrbital Ag 5   py \
	OrthoOrbital Ag 5   pz \
	OrthoOrbital Ag 5   d \
	OrthoOrbital Ag 5   dxy \
	OrthoOrbital Ag 5   dyz \
	OrthoOrbital Ag 5   dz2 \
	OrthoOrbital Ag 5   dxz \
	OrthoOrbital Ag 5   dx2-y2 \
	OrthoOrbital Ag 6   s \
	OrthoOrbital Ag 6   p \
	OrthoOrbital Ag 6   px \
	OrthoOrbital Ag 6   py \
	OrthoOrbital Ag 6   pz \
	OrthoOrbital Ag 6   d \
	OrthoOrbital Ag 6   dxy \
	OrthoOrbital Ag 6   dyz \
	OrthoOrbital Ag 6   dz2 \
	OrthoOrbital Ag 6   dxz \
	OrthoOrbital Ag 6   dx2-y2 \
	OrthoOrbital Ag 7   s \
	OrthoOrbital Ag 7   p \
	OrthoOrbital Ag 7   px \
	OrthoOrbital Ag 7   py \
	OrthoOrbital Ag 7   pz \
	OrthoOrbital Ag 7   d \
	OrthoOrbital Ag 7   dxy \
	OrthoOrbital Ag 7   dyz \
	OrthoOrbital Ag 7   dz2 \
	OrthoOrbital Ag 7   dxz \
	OrthoOrbital Ag 7   dx2-y2 \
	OrthoOrbital Ag 8   s \
	OrthoOrbital Ag 8   p \
	OrthoOrbital Ag 8   px \
	OrthoOrbital Ag 8   py \
	OrthoOrbital Ag 8   pz \
	OrthoOrbital Ag 8   d \
	OrthoOrbital Ag 8   dxy \
	OrthoOrbital Ag 8   dyz \
	OrthoOrbital Ag 8   dz2 \
	OrthoOrbital Ag 8   dxz \
	OrthoOrbital Ag 8   dx2-y2 \
	OrthoOrbital Ag 9   s \
	OrthoOrbital Ag 9   p \
	OrthoOrbital Ag 9   px \
	OrthoOrbital Ag 9   py \
	OrthoOrbital Ag 9   pz \
	OrthoOrbital Ag 9   d \
	OrthoOrbital Ag 9   dxy \
	OrthoOrbital Ag 9   dyz \
	OrthoOrbital Ag 9   dz2 \
	OrthoOrbital Ag 9   dxz \
	OrthoOrbital Ag 9   dx2-y2 \
	OrthoOrbital Ag 10   s \
	OrthoOrbital Ag 10   p \
	OrthoOrbital Ag 10   px \
	OrthoOrbital Ag 10   py \
	OrthoOrbital Ag 10   pz \
	OrthoOrbital Ag 10   d \
	OrthoOrbital Ag 10   dxy \
	OrthoOrbital Ag 10   dyz \
	OrthoOrbital Ag 10   dz2 \
	OrthoOrbital Ag 10   dxz \
	OrthoOrbital Ag 10   dx2-y2 \
	OrthoOrbital Ag 11   s \
	OrthoOrbital Ag 11   p \
	OrthoOrbital Ag 11   px \
	OrthoOrbital Ag 11   py \
	OrthoOrbital Ag 11   pz \
	OrthoOrbital Ag 11   d \
	OrthoOrbital Ag 11   dxy \
	OrthoOrbital Ag 11   dyz \
	OrthoOrbital Ag 11   dz2 \
	OrthoOrbital Ag 11   dxz \
	OrthoOrbital Ag 11   dx2-y2 \
	OrthoOrbital Ag 12   s \
	OrthoOrbital Ag 12   p \
	OrthoOrbital Ag 12   px \
	OrthoOrbital Ag 12   py \
	OrthoOrbital Ag 12   pz \
	OrthoOrbital Ag 12   d \
	OrthoOrbital Ag 12   dxy \
	OrthoOrbital Ag 12   dyz \
	OrthoOrbital Ag 12   dz2 \
	OrthoOrbital Ag 12   dxz \
	OrthoOrbital Ag 12   dx2-y2 \
	OrthoOrbital Ag 13   s \
	OrthoOrbital Ag 13   p \
	OrthoOrbital Ag 13   px \
	OrthoOrbital Ag 13   py \
	OrthoOrbital Ag 13   pz \
	OrthoOrbital Ag 13   d \
	OrthoOrbital Ag 13   dxy \
	OrthoOrbital Ag 13   dyz \
	OrthoOrbital Ag 13   dz2 \
	OrthoOrbital Ag 13   dxz \
	OrthoOrbital Ag 13   dx2-y2 \
	OrthoOrbital Ag 14   s \
	OrthoOrbital Ag 14   p \
	OrthoOrbital Ag 14   px \
	OrthoOrbital Ag 14   py \
	OrthoOrbital Ag 14   pz \
	OrthoOrbital Ag 14   d \
	OrthoOrbital Ag 14   dxy \
	OrthoOrbital Ag 14   dyz \
	OrthoOrbital Ag 14   dz2 \
	OrthoOrbital Ag 14   dxz \
	OrthoOrbital Ag 14   dx2-y2 \
	OrthoOrbital Ag 15   s \
	OrthoOrbital Ag 15   p \
	OrthoOrbital Ag 15   px \
	OrthoOrbital Ag 15   py \
	OrthoOrbital Ag 15   pz \
	OrthoOrbital Ag 15   d \
	OrthoOrbital Ag 15   dxy \
	OrthoOrbital Ag 15   dyz \
	OrthoOrbital Ag 15   dz2 \
	OrthoOrbital Ag 15   dxz \
	OrthoOrbital Ag 15   dx2-y2 \
	OrthoOrbital Ag 16   s \
	OrthoOrbital Ag 16   p \
	OrthoOrbital Ag 16   px \
	OrthoOrbital Ag 16   py \
	OrthoOrbital Ag 16   pz \
	OrthoOrbital Ag 16   d \
	OrthoOrbital Ag 16   dxy \
	OrthoOrbital Ag 16   dyz \
	OrthoOrbital Ag 16   dz2 \
	OrthoOrbital Ag 16   dxz \
	OrthoOrbital Ag 16   dx2-y2 \
	OrthoOrbital Ag 17   s \
	OrthoOrbital Ag 17   p \
	OrthoOrbital Ag 17   px \
	OrthoOrbital Ag 17   py \
	OrthoOrbital Ag 17   pz \
	OrthoOrbital Ag 17   d \
	OrthoOrbital Ag 17   dxy \
	OrthoOrbital Ag 17   dyz \
	OrthoOrbital Ag 17   dz2 \
	OrthoOrbital Ag 17   dxz \
	OrthoOrbital Ag 17   dx2-y2 \
	OrthoOrbital Ag 18   s \
	OrthoOrbital Ag 18   p \
	OrthoOrbital Ag 18   px \
	OrthoOrbital Ag 18   py \
	OrthoOrbital Ag 18   pz \
	OrthoOrbital Ag 18   d \
	OrthoOrbital Ag 18   dxy \
	OrthoOrbital Ag 18   dyz \
	OrthoOrbital Ag 18   dz2 \
	OrthoOrbital Ag 18   dxz \
	OrthoOrbital Ag 18   dx2-y2 \
	OrthoOrbital Ag 19   s \
	OrthoOrbital Ag 19   p \
	OrthoOrbital Ag 19   px \
	OrthoOrbital Ag 19   py \
	OrthoOrbital Ag 19   pz \
	OrthoOrbital Ag 19   d \
	OrthoOrbital Ag 19   dxy \
	OrthoOrbital Ag 19   dyz \
	OrthoOrbital Ag 19   dz2 \
	OrthoOrbital Ag 19   dxz \
	OrthoOrbital Ag 19   dx2-y2 \
	OrthoOrbital Ag 20   s \
	OrthoOrbital Ag 20   p \
	OrthoOrbital Ag 20   px \
	OrthoOrbital Ag 20   py \
	OrthoOrbital Ag 20   pz \
	OrthoOrbital Ag 20   d \
	OrthoOrbital Ag 20   dxy \
	OrthoOrbital Ag 20   dyz \
	OrthoOrbital Ag 20   dz2 \
	OrthoOrbital Ag 20   dxz \
	OrthoOrbital Ag 20   dx2-y2 \
	OrthoOrbital Ag 21   s \
	OrthoOrbital Ag 21   p \
	OrthoOrbital Ag 21   px \
	OrthoOrbital Ag 21   py \
	OrthoOrbital Ag 21   pz \
	OrthoOrbital Ag 21   d \
	OrthoOrbital Ag 21   dxy \
	OrthoOrbital Ag 21   dyz \
	OrthoOrbital Ag 21   dz2 \
	OrthoOrbital Ag 21   dxz \
	OrthoOrbital Ag 21   dx2-y2 \
	OrthoOrbital Ag 22   s \
	OrthoOrbital Ag 22   p \
	OrthoOrbital Ag 22   px \
	OrthoOrbital Ag 22   py \
	OrthoOrbital Ag 22   pz \
	OrthoOrbital Ag 22   d \
	OrthoOrbital Ag 22   dxy \
	OrthoOrbital Ag 22   dyz \
	OrthoOrbital Ag 22   dz2 \
	OrthoOrbital Ag 22   dxz \
	OrthoOrbital Ag 22   dx2-y2 \
	OrthoOrbital Ag 23   s \
	OrthoOrbital Ag 23   p \
	OrthoOrbital Ag 23   px \
	OrthoOrbital Ag 23   py \
	OrthoOrbital Ag 23   pz \
	OrthoOrbital Ag 23   d \
	OrthoOrbital Ag 23   dxy \
	OrthoOrbital Ag 23   dyz \
	OrthoOrbital Ag 23   dz2 \
	OrthoOrbital Ag 23   dxz \
	OrthoOrbital Ag 23   dx2-y2 \
	OrthoOrbital Ag 24   s \
	OrthoOrbital Ag 24   p \
	OrthoOrbital Ag 24   px \
	OrthoOrbital Ag 24   py \
	OrthoOrbital Ag 24   pz \
	OrthoOrbital Ag 24   d \
	OrthoOrbital Ag 24   dxy \
	OrthoOrbital Ag 24   dyz \
	OrthoOrbital Ag 24   dz2 \
	OrthoOrbital Ag 24   dxz \
	OrthoOrbital Ag 24   dx2-y2 \
	OrthoOrbital Ag 25   s \
	OrthoOrbital Ag 25   p \
	OrthoOrbital Ag 25   px \
	OrthoOrbital Ag 25   py \
	OrthoOrbital Ag 25   pz \
	OrthoOrbital Ag 25   d \
	OrthoOrbital Ag 25   dxy \
	OrthoOrbital Ag 25   dyz \
	OrthoOrbital Ag 25   dz2 \
	OrthoOrbital Ag 25   dxz \
	OrthoOrbital Ag 25   dx2-y2 \
	OrthoOrbital Ag 26   s \
	OrthoOrbital Ag 26   p \
	OrthoOrbital Ag 26   px \
	OrthoOrbital Ag 26   py \
	OrthoOrbital Ag 26   pz \
	OrthoOrbital Ag 26   d \
	OrthoOrbital Ag 26   dxy \
	OrthoOrbital Ag 26   dyz \
	OrthoOrbital Ag 26   dz2 \
	OrthoOrbital Ag 26   dxz \
	OrthoOrbital Ag 26   dx2-y2 \
	OrthoOrbital Ag 27   s \
	OrthoOrbital Ag 27   p \
	OrthoOrbital Ag 27   px \
	OrthoOrbital Ag 27   py \
	OrthoOrbital Ag 27   pz \
	OrthoOrbital Ag 27   d \
	OrthoOrbital Ag 27   dxy \
	OrthoOrbital Ag 27   dyz \
	OrthoOrbital Ag 27   dz2 \
	OrthoOrbital Ag 27   dxz \
	OrthoOrbital Ag 27   dx2-y2 \
	OrthoOrbital Ag 28   s \
	OrthoOrbital Ag 28   p \
	OrthoOrbital Ag 28   px \
	OrthoOrbital Ag 28   py \
	OrthoOrbital Ag 28   pz \
	OrthoOrbital Ag 28   d \
	OrthoOrbital Ag 28   dxy \
	OrthoOrbital Ag 28   dyz \
	OrthoOrbital Ag 28   dz2 \
	OrthoOrbital Ag 28   dxz \
	OrthoOrbital Ag 28   dx2-y2 \
	OrthoOrbital Ag 29   s \
	OrthoOrbital Ag 29   p \
	OrthoOrbital Ag 29   px \
	OrthoOrbital Ag 29   py \
	OrthoOrbital Ag 29   pz \
	OrthoOrbital Ag 29   d \
	OrthoOrbital Ag 29   dxy \
	OrthoOrbital Ag 29   dyz \
	OrthoOrbital Ag 29   dz2 \
	OrthoOrbital Ag 29   dxz \
	OrthoOrbital Ag 29   dx2-y2 \
	OrthoOrbital Ag 30   s \
	OrthoOrbital Ag 30   p \
	OrthoOrbital Ag 30   px \
	OrthoOrbital Ag 30   py \
	OrthoOrbital Ag 30   pz \
	OrthoOrbital Ag 30   d \
	OrthoOrbital Ag 30   dxy \
	OrthoOrbital Ag 30   dyz \
	OrthoOrbital Ag 30   dz2 \
	OrthoOrbital Ag 30   dxz \
	OrthoOrbital Ag 30   dx2-y2 \
	OrthoOrbital Ag 31   s \
	OrthoOrbital Ag 31   p \
	OrthoOrbital Ag 31   px \
	OrthoOrbital Ag 31   py \
	OrthoOrbital Ag 31   pz \
	OrthoOrbital Ag 31   d \
	OrthoOrbital Ag 31   dxy \
	OrthoOrbital Ag 31   dyz \
	OrthoOrbital Ag 31   dz2 \
	OrthoOrbital Ag 31   dxz \
	OrthoOrbital Ag 31   dx2-y2 \
	OrthoOrbital Ag 32   s \
	OrthoOrbital Ag 32   p \
	OrthoOrbital Ag 32   px \
	OrthoOrbital Ag 32   py \
	OrthoOrbital Ag 32   pz \
	OrthoOrbital Ag 32   d \
	OrthoOrbital Ag 32   dxy \
	OrthoOrbital Ag 32   dyz \
	OrthoOrbital Ag 32   dz2 \
	OrthoOrbital Ag 32   dxz \
	OrthoOrbital Ag 32   dx2-y2 \
	OrthoOrbital Ag 33   s \
	OrthoOrbital Ag 33   p \
	OrthoOrbital Ag 33   px \
	OrthoOrbital Ag 33   py \
	OrthoOrbital Ag 33   pz \
	OrthoOrbital Ag 33   d \
	OrthoOrbital Ag 33   dxy \
	OrthoOrbital Ag 33   dyz \
	OrthoOrbital Ag 33   dz2 \
	OrthoOrbital Ag 33   dxz \
	OrthoOrbital Ag 33   dx2-y2 \
	OrthoOrbital Ag 34   s \
	OrthoOrbital Ag 34   p \
	OrthoOrbital Ag 34   px \
	OrthoOrbital Ag 34   py \
	OrthoOrbital Ag 34   pz \
	OrthoOrbital Ag 34   d \
	OrthoOrbital Ag 34   dxy \
	OrthoOrbital Ag 34   dyz \
	OrthoOrbital Ag 34   dz2 \
	OrthoOrbital Ag 34   dxz \
	OrthoOrbital Ag 34   dx2-y2 \
	OrthoOrbital Ag 35   s \
	OrthoOrbital Ag 35   p \
	OrthoOrbital Ag 35   px \
	OrthoOrbital Ag 35   py \
	OrthoOrbital Ag 35   pz \
	OrthoOrbital Ag 35   d \
	OrthoOrbital Ag 35   dxy \
	OrthoOrbital Ag 35   dyz \
	OrthoOrbital Ag 35   dz2 \
	OrthoOrbital Ag 35   dxz \
	OrthoOrbital Ag 35   dx2-y2 \
	OrthoOrbital Ag 36   s \
	OrthoOrbital Ag 36   p \
	OrthoOrbital Ag 36   px \
	OrthoOrbital Ag 36   py \
	OrthoOrbital Ag 36   pz \
	OrthoOrbital Ag 36   d \
	OrthoOrbital Ag 36   dxy \
	OrthoOrbital Ag 36   dyz \
	OrthoOrbital Ag 36   dz2 \
	OrthoOrbital Ag 36   dxz \
	OrthoOrbital Ag 36   dx2-y2
dump End ElecDensity KEdensity BandEigs EigStats RhoAtom DOS Kpoints
dump Ionic State IonicPositions Lattice EigStats Ecomponents
dump 
dump 
dump 
dump 
dump 
dump 
dump 
dump 
dump-name jdft.$VAR
elec-cutoff 20
elec-eigen-algo Davidson
elec-ex-corr gga-PBE
elec-initial-magnetization 0.000000 no
elec-n-bands 411
elec-smearing Fermi 0.001
electronic-minimize  \
	dirUpdateScheme      FletcherReeves \
	linminMethod         DirUpdateRecommended \
	nIterations          100 \
	history              15 \
	knormThreshold       0 \
	energyDiffThreshold  1e-07 \
	nEnergyDiff          2 \
	alphaTstart          1 \
	alphaTmin            1e-10 \
	updateTestStepSize   yes \
	alphaTreduceFactor   0.1 \
	alphaTincreaseFactor 3 \
	nAlphaAdjustMax      3 \
	wolfeEnergy          0.0001 \
	wolfeGradient        0.9 \
	fdTest               no
exchange-regularization WignerSeitzTruncated
fluid None
fluid-ex-corr lda-TF lda-PZ
fluid-gummel-loop 10 1.000000e-05
fluid-minimize  \
	dirUpdateScheme      PolakRibiere \
	linminMethod         DirUpdateRecommended \
	nIterations          100 \
	history              15 \
	knormThreshold       0 \
	energyDiffThreshold  0 \
	nEnergyDiff          2 \
	alphaTstart          1 \
	alphaTmin            1e-10 \
	updateTestStepSize   yes \
	alphaTreduceFactor   0.1 \
	alphaTincreaseFactor 3 \
	nAlphaAdjustMax      3 \
	wolfeEnergy          0.0001 \
	wolfeGradient        0.9 \
	fdTest               no
fluid-solvent H2O 55.338 ScalarEOS \
	epsBulk 78.4 \
	pMol 0.92466 \
	epsInf 1.77 \
	Pvap 1.06736e-10 \
	sigmaBulk 4.62e-05 \
	Rvdw 2.61727 \
	Res 1.42 \
	tauNuc 343133 \
	poleEl 15 7 1
forces-output-coords Positions
ion Ag  -7.665667999999998   7.665668000000000   7.665661000000000 1
ion Ag  -7.665676000000002   7.665668000000000  15.331337000000000 1
ion Ag   0.000000000000000   0.000000000000000   0.000000000000000 1
ion Ag   0.000000000000001   7.665661000000000   7.665661000000001 1
ion Ag  -0.000008000000000   7.665661000000000  15.331337000000000 1
ion Ag   0.000008000000000  15.331344000000000   7.665668000000001 1
ion Ag  -0.000000000000002  15.331344000000000  15.331344000000000 1
ion Ag   7.665676000000001  15.331337000000001   7.665668000000001 1
ion Ag   7.665668000000001  15.331337000000000  15.331344000000000 1
ion Ag  -7.665661000000000  11.498503000000001  11.498502999999999 1
ion Ag   0.000000000000000  11.498502999999999   3.832842000000000 1
ion Ag  -0.000000000000000   3.832842000000000   3.832842000000000 1
ion Ag  -0.000000000000001  11.498503000000001  11.498503000000001 1
ion Ag  -0.000000000000001  11.498502999999999  19.164162999999999 1
ion Ag   7.665660999999999  11.498502999999999  11.498502999999999 1
ion Ag   0.000000000000002  19.164162999999999  19.164162999999999 1
ion Ag   7.665661000000000  19.164162999999999  11.498503000000001 1
ion Ag  -7.665661000000001   3.832842000000000  11.498502999999999 1
ion Ag  -3.832827000000000   7.665668000000000  11.498502999999999 1
ion Ag   3.832834000000001   7.665668000000000   3.832842000000000 1
ion Ag  -3.832834000000000   7.665675999999999   3.832842000000000 1
ion Ag   3.832834000000000   7.665668000000000  11.498503000000001 1
ion Ag  -3.832834000000003  15.331337000000001  19.164162999999999 1
ion Ag   3.832826999999999  15.331337000000000  11.498502999999999 1
ion Ag   3.832834000000000  15.331329000000000  19.164162999999999 1
ion Ag  11.498494999999998  15.331329000000000  11.498502999999999 1
ion Ag -11.498495000000002   7.665676000000001  11.498502999999999 1
ion Ag  -3.832834000000001  11.498495000000000   7.665661000000000 1
ion Ag  -3.832842000000002  11.498495000000000  15.331337000000000 1
ion Ag  -3.832842000000001   3.832834000000000  15.331337000000001 1
ion Ag   3.832842000000000  11.498510000000000   7.665668000000001 1
ion Ag   3.832834000000000  11.498510000000000  15.331344000000000 1
ion Ag   3.832842000000002  19.164171000000000   7.665668000000001 1
ion Ag   3.832834000000001  19.164171000000000  15.331344000000000 1
ion Ag  11.498502999999999  19.164171000000000   7.665668000000001 1
ion Ag  -3.832834000000001   3.832834000000000   7.665661000000000 1
ion-species /projects/musgravc/apps/jdftx-1.6.0/build/pseudopotentials/GBRV_v1.5/$ID_pbe_v1.uspp
ion-species /projects/musgravc/apps/jdftx-1.6.0/build/pseudopotentials/GBRV_v1.5/$ID_pbe_v1.2.uspp
ion-species /projects/musgravc/apps/jdftx-1.6.0/build/pseudopotentials/GBRV_v1.5/$ID_pbe_v1.4.uspp
ion-species /projects/musgravc/apps/jdftx-1.6.0/build/pseudopotentials/GBRV_v1.5/$ID_pbe_v1.5.uspp
ion-width 0
ionic-minimize  \
	dirUpdateScheme      L-BFGS \
	linminMethod         DirUpdateRecommended \
	nIterations          0 \
	history              15 \
	knormThreshold       0.0001 \
	energyDiffThreshold  1e-06 \
	nEnergyDiff          2 \
	alphaTstart          1 \
	alphaTmin            1e-10 \
	updateTestStepSize   yes \
	alphaTreduceFactor   0.1 \
	alphaTincreaseFactor 3 \
	nAlphaAdjustMax      3 \
	wolfeEnergy          0.0001 \
	wolfeGradient        0.9 \
	fdTest               no
kpoint   0.000000000000   0.000000000000   0.000000000000  1.00000000000000
kpoint-folding 4 2 2 
latt-move-scale 0 0 0
latt-scale 1 1 1 
lattice  \
	  -7.665668000000000   -7.665668000000000   15.331337000000000  \
	   7.665668000000000    0.000000000000000   15.331337000000000  \
	   0.000000000000000   15.331337000000000    7.665668000000000 
lattice-minimize  \
	dirUpdateScheme      L-BFGS \
	linminMethod         DirUpdateRecommended \
	nIterations          0 \
	history              15 \
	knormThreshold       0 \
	energyDiffThreshold  1e-06 \
	nEnergyDiff          2 \
	alphaTstart          1 \
	alphaTmin            1e-10 \
	updateTestStepSize   yes \
	alphaTreduceFactor   0.1 \
	alphaTincreaseFactor 3 \
	nAlphaAdjustMax      3 \
	wolfeEnergy          0.0001 \
	wolfeGradient        0.9 \
	fdTest               no
lcao-params 30 1e-06 0.001
pcm-variant GLSSA13
spintype z-spin
subspace-rotation-factor 1 yes
symmetries none
symmetry-threshold 0.0001
van-der-waals D3


Applied RMS atom displacement 0 bohrs to make symmetries exact.

---------- Initializing the Grid ----------
R = 
[     -7.66567     -7.66567      15.3313  ]
[      7.66567            0      15.3313  ]
[            0      15.3313      7.66567  ]
unit cell volume = 4054.08
G =
[   -0.36429   0.455363  -0.182145  ]
[ -0.0910725 -0.0910725    0.36429  ]
[   0.182145   0.182145  0.0910725  ]
Minimum fftbox size, Smin = [  44  72  96  ]
Chosen fftbox size, S = [  48  72  96  ]

---------- Exchange Correlation functional ----------
Initalized PBE GGA exchange.
Initalized PBE GGA correlation.

---------- Setting up pseudopotentials ----------
Width of ionic core gaussian charges (only for fluid interactions / plotting) set to 0

Reading pseudopotential file '/projects/musgravc/apps/jdftx-1.6.0/build/pseudopotentials/GBRV_v1.5/ag_pbe_v1.4.uspp':
  Title: Ag.  Created by USPP 7.3.6 on 1-4-15
  Reference state energy: -147.606242.  19 valence electrons in orbitals:
    |400>  occupation: 2  eigenvalue: -3.637437
    |410>  occupation: 6  eigenvalue: -2.297267
    |420>  occupation: 10  eigenvalue: -0.417763
    |500>  occupation: 0.5  eigenvalue: -0.283525
    |510>  occupation: 0  eigenvalue: -0.122889
  lMax: 2  lLocal: 0  QijEcut: 5.5
  6 projectors sampled on a log grid with 717 points:
    l: 0  eig: -0.283528  rCut: 1.5
    l: 0  eig: -3.637440  rCut: 1.5
    l: 1  eig: -0.122892  rCut: 1.5
    l: 1  eig: -2.297267  rCut: 1.5
    l: 2  eig: -0.417762  rCut: 1.7
    l: 2  eig: -1.000000  rCut: 1.7
  Partial core density with radius 1.2
  Transforming core density to a uniform radial grid of dG=0.02 with 1337 points.
  Transforming local potential to a uniform radial grid of dG=0.02 with 1337 points.
  Transforming nonlocal projectors to a uniform radial grid of dG=0.02 with 432 points.
  Transforming density augmentations to a uniform radial grid of dG=0.02 with 1337 points.
  Transforming atomic orbitals to a uniform radial grid of dG=0.02 with 432 points.
  Core radius for overlap checks: 1.70 bohrs.

Initialized 1 species with 36 total atoms.

Folded 1 k-points by 4x2x2 to 16 k-points.

---------- Setting up k-points, bands, fillings ----------
No reducable k-points. 
Computing the number of bands and number of electrons
Calculating initial fillings.
nElectrons: 684.000000   nBands: 411   nStates: 32

----- Setting up reduced wavefunction bases (one per k-point) -----
average nbasis = 17322.562 , ideal nbasis = 17319.349

----- Initializing Supercell corresponding to k-point mesh -----
Lattice vector linear combinations in supercell:
[   4   0   0  ]
[   0   2   0  ]
[   0   0   2  ]
Supercell lattice vectors:
[  -30.6627  -15.3313  30.6627  ]
[  30.6627  0  30.6627  ]
[  0  30.6627  15.3313  ]

Initializing DFT-D3 calculator:
	Parameters set for gga-PBE functional
	s6:  1.000  s_r6:  1.217
	s8:  0.722  s_r8:  1.000
	Per-atom parameters loaded for:
	Ag:  sqrtQ[a0]:  5.443  Rcov[a0]:  2.173  CN: [ 0.00 0.97 ]

---------- Setting up ewald sum ----------
Optimum gaussian width for ewald sums = 3.500718 bohr.
Real space sum over 693 unit cells with max indices [  5  4  3  ]
Reciprocal space sum over 5681 terms with max indices [  6  9  11  ]

Computing DFT-D3 correction:
# coordination-number Ag 9.216 9.216 9.216 9.216 9.216 9.216 9.216 9.216 9.216 9.216 9.216 9.216 9.216 9.216 9.216 9.216 9.216 9.216 9.216 9.216 9.216 9.216 9.216 9.216 9.216 9.216 9.216 9.216 9.216 9.216 9.216 9.216 9.216 9.216 9.216 9.216
# diagonal-C6 Ag 268.61 268.61 268.61 268.61 268.61 268.61 268.61 268.61 268.61 268.61 268.61 268.61 268.61 268.61 268.61 268.61 268.61 268.61 268.61 268.61 268.61 268.61 268.61 268.61 268.61 268.61 268.61 268.61 268.61 268.61 268.61 268.61 268.61 268.61 268.61 268.61
EvdW_6 =   -0.302704
EvdW_8 =   -0.375795

---------- Allocating electronic variables ----------
Initializing wave functions:  linear combination of atomic orbitals
Ag pseudo-atom occupations:   s ( 2 1 )  p ( 6 0 )  d ( 10 )
	FillingsUpdate:  mu: +0.641046520  nElectrons: 684.000000  magneticMoment: [ Abs: 0.01890  Tot: -0.00006 ]
LCAOMinimize: Iter:   0  F: -5313.7165172109298510  |grad|_K:  4.721e-04  alpha:  1.000e+00
	FillingsUpdate:  mu: +0.658190676  nElectrons: 684.000000  magneticMoment: [ Abs: 0.00833  Tot: +0.00004 ]
LCAOMinimize: Iter:   1  F: -5314.1220962551442426  |grad|_K:  1.535e-05  alpha:  5.761e-01  linmin:  3.464e-01  cgtest: -1.061e+00  t[s]:     92.02
	FillingsUpdate:  mu: +0.658201674  nElectrons: 684.000000  magneticMoment: [ Abs: 0.00832  Tot: +0.00004 ]
LCAOMinimize: Iter:   2  F: -5314.1221110686756219  |grad|_K:  1.537e-05  alpha:  5.845e-01  linmin: -1.261e-05  cgtest:  9.797e-01  t[s]:    126.79
	FillingsUpdate:  mu: +0.657614516  nElectrons: 684.000000  magneticMoment: [ Abs: 0.00860  Tot: +0.00004 ]
LCAOMinimize: Iter:   3  F: -5314.1225557145489802  |grad|_K:  1.055e-05  alpha:  5.343e-01  linmin:  3.586e-04  cgtest: -3.373e-03  t[s]:    161.59
	FillingsUpdate:  mu: +0.657546185  nElectrons: 684.000000  magneticMoment: [ Abs: 0.00863  Tot: +0.00004 ]
LCAOMinimize: Iter:   4  F: -5314.1225900155386626  |grad|_K:  1.082e-06  alpha:  8.762e-02  linmin: -1.362e-03  cgtest:  3.878e-02  t[s]:    196.35
	FillingsUpdate:  mu: +0.657546661  nElectrons: 684.000000  magneticMoment: [ Abs: 0.00863  Tot: +0.00004 ]
LCAOMinimize: Iter:   5  F: -5314.1225907940306570  |grad|_K:  3.067e-07  alpha:  1.887e-01  linmin:  9.109e-05  cgtest: -3.841e-03  t[s]:    231.27
	FillingsUpdate:  mu: +0.657548098  nElectrons: 684.000000  magneticMoment: [ Abs: 0.00863  Tot: +0.00004 ]
LCAOMinimize: Iter:   6  F: -5314.1225909753102314  |grad|_K:  3.054e-07  alpha:  5.476e-01  linmin: -1.215e-05  cgtest:  4.003e-04  t[s]:    266.05
LCAOMinimize: Converged (|Delta F|<1.000000e-06 for 2 iters).


---- Citations for features of the code used in this run ----

   Software package:
      R. Sundararaman, K. Letchworth-Weaver, K.A. Schwarz, D. Gunceler, Y. Ozhabes and T.A. Arias, 'JDFTx: software for joint density-functional theory', SoftwareX 6, 278 (2017)

   gga-PBE exchange-correlation functional:
      J.P. Perdew, K. Burke and M. Ernzerhof, Phys. Rev. Lett. 77, 3865 (1996)

   Pseudopotentials:
      KF Garrity, JW Bennett, KM Rabe and D Vanderbilt, Comput. Mater. Sci. 81, 446 (2014)

   DFT-D3 dispersion correction:
      S. Grimme, J. Antony, S. Ehrlich and H. Krieg, J. Chem. Phys. 132, 154104 (2010)

   Total energy minimization with Auxiliary Hamiltonian:
      C. Freysoldt, S. Boeck, and J. Neugebauer, Phys. Rev. B 79, 241103(R) (2009)

   Linear-tetrahedron sampling for density of states:
      G. Lehmann and M. Taut, Phys. status solidi (b) 54, 469 (1972)

This list may not be complete. Please suggest additional citations or
report any other bugs at https://github.com/shankar1729/jdftx/issues

Initialization completed successfully at t[s]:    277.09


Computing DFT-D3 correction:
# coordination-number Ag 9.216 9.216 9.216 9.216 9.216 9.216 9.216 9.216 9.216 9.216 9.216 9.216 9.216 9.216 9.216 9.216 9.216 9.216 9.216 9.216 9.216 9.216 9.216 9.216 9.216 9.216 9.216 9.216 9.216 9.216 9.216 9.216 9.216 9.216 9.216 9.216
# diagonal-C6 Ag 268.61 268.61 268.61 268.61 268.61 268.61 268.61 268.61 268.61 268.61 268.61 268.61 268.61 268.61 268.61 268.61 268.61 268.61 268.61 268.61 268.61 268.61 268.61 268.61 268.61 268.61 268.61 268.61 268.61 268.61 268.61 268.61 268.61 268.61 268.61 268.61
EvdW_6 =   -0.302704
EvdW_8 =   -0.375795

-------- Electronic minimization -----------
	FillingsUpdate:  mu: +0.657548098  nElectrons: 684.000000  magneticMoment: [ Abs: 0.00863  Tot: +0.00004 ]
ElecMinimize: Iter:   0  F: -5314.122590975311141  |grad|_K:  4.000e-05  alpha:  1.000e+00
	FillingsUpdate:  mu: +0.662240168  nElectrons: 684.000000  magneticMoment: [ Abs: 0.00625  Tot: +0.00004 ]
	SubspaceRotationAdjust: set factor to 1
ElecMinimize: Iter:   1  F: -5314.271920484053226  |grad|_K:  2.611e-05  alpha:  4.059e-01  linmin:  3.582e-05  t[s]:    378.37
	FillingsUpdate:  mu: +0.656891546  nElectrons: 684.000000  magneticMoment: [ Abs: 0.00432  Tot: +0.00004 ]
	SubspaceRotationAdjust: set factor to 0.968
ElecMinimize: Iter:   2  F: -5314.315364857839086  |grad|_K:  1.091e-05  alpha:  2.763e-01  linmin:  2.793e-06  t[s]:    445.61
	FillingsUpdate:  mu: +0.656129397  nElectrons: 684.000000  magneticMoment: [ Abs: 0.00261  Tot: +0.00003 ]
	SubspaceRotationAdjust: set factor to 1.02
ElecMinimize: Iter:   3  F: -5314.326209655547245  |grad|_K:  5.134e-06  alpha:  3.957e-01  linmin:  1.457e-05  t[s]:    511.92
	FillingsUpdate:  mu: +0.656438182  nElectrons: 684.000000  magneticMoment: [ Abs: 0.00156  Tot: +0.00002 ]
	SubspaceRotationAdjust: set factor to 0.749
ElecMinimize: Iter:   4  F: -5314.328568588965936  |grad|_K:  4.322e-06  alpha:  3.888e-01  linmin: -6.458e-07  t[s]:    578.00
	FillingsUpdate:  mu: +0.656399908  nElectrons: 684.000000  magneticMoment: [ Abs: 0.00123  Tot: +0.00002 ]
	SubspaceRotationAdjust: set factor to 0.431
ElecMinimize: Iter:   5  F: -5314.329067979470892  |grad|_K:  2.339e-06  alpha:  1.161e-01  linmin:  5.512e-06  t[s]:    644.04
ElecMinimize: 	Predicted alpha/alphaT>3.000000, increasing alphaT to 3.482386e-01.
	FillingsUpdate:  mu: +0.656406028  nElectrons: 684.000000  magneticMoment: [ Abs: 0.00067  Tot: +0.00001 ]
	SubspaceRotationAdjust: set factor to 0.731
ElecMinimize: Iter:   6  F: -5314.329536247436408  |grad|_K:  1.226e-06  alpha:  3.716e-01  linmin:  3.117e-06  t[s]:    726.94
	FillingsUpdate:  mu: +0.656460425  nElectrons: 684.000000  magneticMoment: [ Abs: 0.00049  Tot: +0.00001 ]
	SubspaceRotationAdjust: set factor to 0.524
ElecMinimize: Iter:   7  F: -5314.329620534136666  |grad|_K:  7.855e-07  alpha:  2.432e-01  linmin: -2.952e-08  t[s]:    793.29
	FillingsUpdate:  mu: +0.656482011  nElectrons: 684.000000  magneticMoment: [ Abs: 0.00034  Tot: +0.00000 ]
	SubspaceRotationAdjust: set factor to 0.32
ElecMinimize: Iter:   8  F: -5314.329656528387204  |grad|_K:  4.386e-07  alpha:  2.530e-01  linmin:  5.107e-07  t[s]:    859.46
	FillingsUpdate:  mu: +0.656458997  nElectrons: 684.000000  magneticMoment: [ Abs: 0.00024  Tot: +0.00000 ]
	SubspaceRotationAdjust: set factor to 0.297
ElecMinimize: Iter:   9  F: -5314.329670786557472  |grad|_K:  2.538e-07  alpha:  3.216e-01  linmin:  1.337e-06  t[s]:    925.65
	FillingsUpdate:  mu: +0.656466291  nElectrons: 684.000000  magneticMoment: [ Abs: 0.00016  Tot: +0.00000 ]
	SubspaceRotationAdjust: set factor to 0.313
ElecMinimize: Iter:  10  F: -5314.329676488131554  |grad|_K:  1.411e-07  alpha:  3.841e-01  linmin:  8.802e-08  t[s]:    992.02
	FillingsUpdate:  mu: +0.656460503  nElectrons: 684.000000  magneticMoment: [ Abs: 0.00011  Tot: +0.00000 ]
	SubspaceRotationAdjust: set factor to 0.295
ElecMinimize: Iter:  11  F: -5314.329678429775413  |grad|_K:  8.936e-08  alpha:  4.229e-01  linmin:  2.857e-07  t[s]:   1058.34
	FillingsUpdate:  mu: +0.656462848  nElectrons: 684.000000  magneticMoment: [ Abs: 0.00008  Tot: +0.00000 ]
	SubspaceRotationAdjust: set factor to 0.279
ElecMinimize: Iter:  12  F: -5314.329679152885547  |grad|_K:  5.426e-08  alpha:  3.928e-01  linmin:  1.500e-07  t[s]:   1124.52
	FillingsUpdate:  mu: +0.656462059  nElectrons: 684.000000  magneticMoment: [ Abs: 0.00006  Tot: +0.00000 ]
	SubspaceRotationAdjust: set factor to 0.31
ElecMinimize: Iter:  13  F: -5314.329679415569444  |grad|_K:  3.392e-08  alpha:  3.870e-01  linmin:  1.391e-07  t[s]:   1190.73
	FillingsUpdate:  mu: +0.656459779  nElectrons: 684.000000  magneticMoment: [ Abs: 0.00005  Tot: +0.00000 ]
	SubspaceRotationAdjust: set factor to 0.346
ElecMinimize: Iter:  14  F: -5314.329679524813400  |grad|_K:  2.203e-08  alpha:  4.119e-01  linmin:  1.491e-07  t[s]:   1256.77
	FillingsUpdate:  mu: +0.656460143  nElectrons: 684.000000  magneticMoment: [ Abs: 0.00004  Tot: +0.00000 ]
	SubspaceRotationAdjust: set factor to 0.39
ElecMinimize: Iter:  15  F: -5314.329679570723783  |grad|_K:  1.461e-08  alpha:  4.105e-01  linmin: -3.431e-07  t[s]:   1323.21
	FillingsUpdate:  mu: +0.656459105  nElectrons: 684.000000  magneticMoment: [ Abs: 0.00003  Tot: +0.00000 ]
	SubspaceRotationAdjust: set factor to 0.472
ElecMinimize: Iter:  16  F: -5314.329679592132379  |grad|_K:  9.498e-09  alpha:  4.351e-01  linmin: -5.424e-07  t[s]:   1389.39
ElecMinimize: Converged (|Delta F|<1.000000e-07 for 2 iters).
Setting wave functions to eigenvectors of Hamiltonian
Converging empty states (this may take a while): |deigs|: 4.199e-04

Computing DFT-D3 correction:
# coordination-number Ag 9.216 9.216 9.216 9.216 9.216 9.216 9.216 9.216 9.216 9.216 9.216 9.216 9.216 9.216 9.216 9.216 9.216 9.216 9.216 9.216 9.216 9.216 9.216 9.216 9.216 9.216 9.216 9.216 9.216 9.216 9.216 9.216 9.216 9.216 9.216 9.216
# diagonal-C6 Ag 268.61 268.61 268.61 268.61 268.61 268.61 268.61 268.61 268.61 268.61 268.61 268.61 268.61 268.61 268.61 268.61 268.61 268.61 268.61 268.61 268.61 268.61 268.61 268.61 268.61 268.61 268.61 268.61 268.61 268.61 268.61 268.61 268.61 268.61 268.61 268.61
EvdW_6 =   -0.302704
EvdW_8 =   -0.375795

# Ionic positions in cartesian coordinates:
ion Ag  -7.665667999999998   7.665668000000000   7.665661000000000 1
ion Ag  -7.665676000000002   7.665668000000000  15.331337000000000 1
ion Ag   0.000000000000000   0.000000000000000   0.000000000000000 1
ion Ag   0.000000000000001   7.665661000000000   7.665661000000001 1
ion Ag  -0.000008000000000   7.665661000000000  15.331337000000000 1
ion Ag   0.000008000000000  15.331344000000000   7.665668000000001 1
ion Ag  -0.000000000000002  15.331344000000000  15.331344000000000 1
ion Ag   7.665676000000001  15.331337000000001   7.665668000000001 1
ion Ag   7.665668000000001  15.331337000000000  15.331344000000000 1
ion Ag  -7.665661000000000  11.498503000000001  11.498502999999999 1
ion Ag   0.000000000000000  11.498502999999999   3.832842000000000 1
ion Ag  -0.000000000000000   3.832842000000000   3.832842000000000 1
ion Ag  -0.000000000000001  11.498503000000001  11.498503000000001 1
ion Ag  -0.000000000000001  11.498502999999999  19.164162999999999 1
ion Ag   7.665660999999999  11.498502999999999  11.498502999999999 1
ion Ag   0.000000000000002  19.164162999999999  19.164162999999999 1
ion Ag   7.665661000000000  19.164162999999999  11.498503000000001 1
ion Ag  -7.665661000000001   3.832842000000000  11.498502999999999 1
ion Ag  -3.832827000000000   7.665668000000000  11.498502999999999 1
ion Ag   3.832834000000001   7.665668000000000   3.832842000000000 1
ion Ag  -3.832834000000000   7.665675999999999   3.832842000000000 1
ion Ag   3.832834000000000   7.665668000000000  11.498503000000001 1
ion Ag  -3.832834000000003  15.331337000000001  19.164162999999999 1
ion Ag   3.832826999999999  15.331337000000000  11.498502999999999 1
ion Ag   3.832834000000000  15.331329000000000  19.164162999999999 1
ion Ag  11.498494999999998  15.331329000000000  11.498502999999999 1
ion Ag -11.498495000000002   7.665676000000001  11.498502999999999 1
ion Ag  -3.832834000000001  11.498495000000000   7.665661000000000 1
ion Ag  -3.832842000000002  11.498495000000000  15.331337000000000 1
ion Ag  -3.832842000000001   3.832834000000000  15.331337000000001 1
ion Ag   3.832842000000000  11.498510000000000   7.665668000000001 1
ion Ag   3.832834000000000  11.498510000000000  15.331344000000000 1
ion Ag   3.832842000000002  19.164171000000000   7.665668000000001 1
ion Ag   3.832834000000001  19.164171000000000  15.331344000000000 1
ion Ag  11.498502999999999  19.164171000000000   7.665668000000001 1
ion Ag  -3.832834000000001   3.832834000000000   7.665661000000000 1

# Forces in Cartesian coordinates:
force Ag   0.000042136751256   0.000004446504688   0.000015782094021 1
force Ag  -0.000041888918750  -0.000004370491118  -0.000015400837639 1
force Ag   0.000000145809297   0.000000142153691  -0.000000779261214 1
force Ag  -0.000000177151622   0.000000058154458   0.000002363781921 1
force Ag   0.000043393944353   0.000005611815039   0.000012945736308 1
force Ag  -0.000043174137815  -0.000005342028272  -0.000013325120101 1
force Ag  -0.000000273100353  -0.000000454917157  -0.000001212496282 1
force Ag   0.000042399357637   0.000004878317790   0.000013969704958 1
force Ag  -0.000042533168396  -0.000004844951617  -0.000014129893909 1
force Ag   0.000042380088426   0.000004750629528   0.000013974517886 1
force Ag  -0.000042373661591  -0.000004705818146  -0.000015078781787 1
force Ag  -0.000000624527382  -0.000000821802564  -0.000000017785172 1
force Ag  -0.000000249444090  -0.000000286027033   0.000000987196345 1
force Ag   0.000042795271628   0.000005109529583   0.000013139736303 1
force Ag  -0.000042592184508  -0.000005018227108  -0.000012686875436 1
force Ag   0.000000583942757   0.000000840821508  -0.000000671844861 1
force Ag   0.000042750017596   0.000004987226594   0.000015472921180 1
force Ag  -0.000042701736268  -0.000005042262126  -0.000015298346826 1
force Ag   0.000042357350834   0.000004841977883   0.000013926566454 1
force Ag  -0.000042375887907  -0.000004618127577  -0.000015077097810 1
force Ag  -0.000000636970492  -0.000000846454094  -0.000000095683073 1
force Ag  -0.000000239388583  -0.000000268050577   0.000001036298195 1
force Ag   0.000042848821116   0.000005095924852   0.000013214358033 1
force Ag  -0.000042554004055  -0.000005011741192  -0.000012667112440 1
force Ag   0.000000632780157   0.000000833770528  -0.000000696899316 1
force Ag   0.000042747496805   0.000005026631054   0.000015454817311 1
force Ag  -0.000042741800914  -0.000004990559908  -0.000015354280010 1
force Ag  -0.000000132955512   0.000000005560853   0.000002425596763 1
force Ag   0.000043349837089   0.000005593554321   0.000012934469420 1
force Ag  -0.000041847371826  -0.000004388357819  -0.000015365936836 1
force Ag  -0.000043199166691  -0.000005345708281  -0.000013335612094 1
force Ag  -0.000000301499754  -0.000000452594629  -0.000001297519558 1
force Ag   0.000042376291443   0.000004898397419   0.000013940086066 1
force Ag  -0.000042554624380  -0.000004836923892  -0.000014136540618 1
force Ag   0.000000140443751   0.000000129467803  -0.000000747227319 1
force Ag   0.000042171455509   0.000004453865434   0.000015808762639 1

# Energy components:
   Eewald =    -3886.4757260445189786
       EH =     1275.4664247221528512
     Eloc =    -3537.7444899537326819
      Enl =      141.8849072180490225
     EvdW =       -0.6784984245770334
      Exc =     -522.0992931720293200
 Exc_core =        7.4941457165079166
       KE =     1207.8237263016094403
-------------------------------------
     Etot =    -5314.3288036365374865
       TS =        0.0008759555945424
-------------------------------------
        F =    -5314.3296795921323792


Dumping 'jdft.fillings' ... done
Dumping 'jdft.wfns' ... done
Dumping 'jdft.ionpos' ... done
Dumping 'jdft.lattice' ... done
Dumping 'jdft.eigenvals' ... done
Dumping 'jdft.eigStats' ... 
	eMin: -2.725953 at state 16 ( [ +0.000000 +0.000000 +0.000000 ] spin -1 )
	HOMO: +0.656049 at state 30 ( [ -0.250000 +0.500000 +0.000000 ] spin -1 )
	mu  : +0.656459
	LUMO: +0.658127 at state 1 ( [ +0.000000 +0.000000 +0.500000 ] spin 1 )
	eMax: +1.090745 at state 16 ( [ +0.000000 +0.000000 +0.000000 ] spin -1 )
	HOMO-LUMO gap: +0.002078
	Optical gap  : +0.007854 at state 10 ( [ +0.500000 +0.500000 +0.000000 ] spin 1 )
Dumping 'jdft.Ecomponents' ... done
IonicMinimize: Iter:   0  F: -5314.329679592132379  |grad|_K:  2.131e-05  t[s]:   1651.18
IonicMinimize: Converged (|grad|_K<1.000000e-04).

#--- Lowdin population analysis ---
# oxidation-state Ag +0.004 +0.004 +0.004 +0.004 +0.004 +0.004 +0.004 +0.004 +0.004 +0.004 +0.004 +0.004 +0.004 +0.004 +0.004 +0.004 +0.004 +0.004 +0.004 +0.004 +0.004 +0.004 +0.004 +0.004 +0.004 +0.004 +0.004 +0.004 +0.004 +0.004 +0.004 +0.004 +0.004 +0.004 +0.004 +0.004
# magnetic-moments Ag -0.000 +0.000 -0.000 +0.000 +0.000 +0.000 +0.000 +0.000 +0.000 +0.000 +0.000 -0.000 -0.000 -0.000 +0.000 +0.000 +0.000 +0.000 +0.000 +0.000 -0.000 +0.000 -0.000 +0.000 +0.000 -0.000 +0.000 +0.000 -0.000 -0.000 +0.000 -0.000 -0.000 +0.000 +0.000 +0.000


Dumping 'jdft.n_up' ... done
Dumping 'jdft.n_dn' ... done
Dumping 'jdft.tau_up' ... done
Dumping 'jdft.tau_dn' ... done
Dumping 'jdft.eigenvals' ... done
Dumping 'jdft.eigStats' ... 
	eMin: -2.725953 at state 16 ( [ +0.000000 +0.000000 +0.000000 ] spin -1 )
	HOMO: +0.656049 at state 30 ( [ -0.250000 +0.500000 +0.000000 ] spin -1 )
	mu  : +0.656459
	LUMO: +0.658127 at state 1 ( [ +0.000000 +0.000000 +0.500000 ] spin 1 )
	eMax: +1.090745 at state 16 ( [ +0.000000 +0.000000 +0.000000 ] spin -1 )
	HOMO-LUMO gap: +0.002078
	Optical gap  : +0.007854 at state 10 ( [ +0.500000 +0.500000 +0.000000 ] spin 1 )
Dumping 'jdft.kPts' ... done
Dumping 'jdft.dosUp' ... done.
Dumping 'jdft.dosDn' ... done.
End date and time: Mon Dec  6 17:38:12 2021  (Duration: 0-0:28:15.63)
Done!
