
*************** JDFTx 1.6.0  ***************

Start date and time: Thu Dec  9 05:46:28 2021
Executable /projects/musgravc/apps/jdftx-1.6.1/build/jdftx with command-line: -i in
Running on hosts (process indices):  shas0206.rc.int.colorado.edu (0-23)
Divided in process groups (process indices):  0 (0)  1 (1)  2 (2)  3 (3)  4 (4)  5 (5)  6 (6)  7 (7)  8 (8)  9 (9)  10 (10)  11 (11)  12 (12)  13 (13)  14 (14)  15 (15)  16 (16)  17 (17)  18 (18)  19 (19)  20 (20)  21 (21)  22 (22)  23 (23)
Resource initialization completed at t[s]:      0.00
Run totals: 24 processes, 24 threads, 0 GPUs


Input parsed successfully to the following command list (including defaults):

basis kpoint-dependent
converge-empty-states yes
coords-type Cartesian
core-overlap-check none
coulomb-interaction Periodic
davidson-band-ratio 1.1
density-of-states Etol 1.000000e-06 Esigma 1.000000e-03 \
		Complete \
	Total \
	OrthoOrbital Pt 1   s \
	OrthoOrbital Pt 1   p \
	OrthoOrbital Pt 1   px \
	OrthoOrbital Pt 1   py \
	OrthoOrbital Pt 1   pz \
	OrthoOrbital Pt 1   d \
	OrthoOrbital Pt 1   dxy \
	OrthoOrbital Pt 1   dyz \
	OrthoOrbital Pt 1   dz2 \
	OrthoOrbital Pt 1   dxz \
	OrthoOrbital Pt 1   dx2-y2 \
	OrthoOrbital Pt 2   s \
	OrthoOrbital Pt 2   p \
	OrthoOrbital Pt 2   px \
	OrthoOrbital Pt 2   py \
	OrthoOrbital Pt 2   pz \
	OrthoOrbital Pt 2   d \
	OrthoOrbital Pt 2   dxy \
	OrthoOrbital Pt 2   dyz \
	OrthoOrbital Pt 2   dz2 \
	OrthoOrbital Pt 2   dxz \
	OrthoOrbital Pt 2   dx2-y2 \
	OrthoOrbital Pt 3   s \
	OrthoOrbital Pt 3   p \
	OrthoOrbital Pt 3   px \
	OrthoOrbital Pt 3   py \
	OrthoOrbital Pt 3   pz \
	OrthoOrbital Pt 3   d \
	OrthoOrbital Pt 3   dxy \
	OrthoOrbital Pt 3   dyz \
	OrthoOrbital Pt 3   dz2 \
	OrthoOrbital Pt 3   dxz \
	OrthoOrbital Pt 3   dx2-y2 \
	OrthoOrbital Pt 4   s \
	OrthoOrbital Pt 4   p \
	OrthoOrbital Pt 4   px \
	OrthoOrbital Pt 4   py \
	OrthoOrbital Pt 4   pz \
	OrthoOrbital Pt 4   d \
	OrthoOrbital Pt 4   dxy \
	OrthoOrbital Pt 4   dyz \
	OrthoOrbital Pt 4   dz2 \
	OrthoOrbital Pt 4   dxz \
	OrthoOrbital Pt 4   dx2-y2 \
	OrthoOrbital Pt 5   s \
	OrthoOrbital Pt 5   p \
	OrthoOrbital Pt 5   px \
	OrthoOrbital Pt 5   py \
	OrthoOrbital Pt 5   pz \
	OrthoOrbital Pt 5   d \
	OrthoOrbital Pt 5   dxy \
	OrthoOrbital Pt 5   dyz \
	OrthoOrbital Pt 5   dz2 \
	OrthoOrbital Pt 5   dxz \
	OrthoOrbital Pt 5   dx2-y2 \
	OrthoOrbital Pt 6   s \
	OrthoOrbital Pt 6   p \
	OrthoOrbital Pt 6   px \
	OrthoOrbital Pt 6   py \
	OrthoOrbital Pt 6   pz \
	OrthoOrbital Pt 6   d \
	OrthoOrbital Pt 6   dxy \
	OrthoOrbital Pt 6   dyz \
	OrthoOrbital Pt 6   dz2 \
	OrthoOrbital Pt 6   dxz \
	OrthoOrbital Pt 6   dx2-y2 \
	OrthoOrbital Pt 7   s \
	OrthoOrbital Pt 7   p \
	OrthoOrbital Pt 7   px \
	OrthoOrbital Pt 7   py \
	OrthoOrbital Pt 7   pz \
	OrthoOrbital Pt 7   d \
	OrthoOrbital Pt 7   dxy \
	OrthoOrbital Pt 7   dyz \
	OrthoOrbital Pt 7   dz2 \
	OrthoOrbital Pt 7   dxz \
	OrthoOrbital Pt 7   dx2-y2 \
	OrthoOrbital Pt 8   s \
	OrthoOrbital Pt 8   p \
	OrthoOrbital Pt 8   px \
	OrthoOrbital Pt 8   py \
	OrthoOrbital Pt 8   pz \
	OrthoOrbital Pt 8   d \
	OrthoOrbital Pt 8   dxy \
	OrthoOrbital Pt 8   dyz \
	OrthoOrbital Pt 8   dz2 \
	OrthoOrbital Pt 8   dxz \
	OrthoOrbital Pt 8   dx2-y2 \
	OrthoOrbital Pt 9   s \
	OrthoOrbital Pt 9   p \
	OrthoOrbital Pt 9   px \
	OrthoOrbital Pt 9   py \
	OrthoOrbital Pt 9   pz \
	OrthoOrbital Pt 9   d \
	OrthoOrbital Pt 9   dxy \
	OrthoOrbital Pt 9   dyz \
	OrthoOrbital Pt 9   dz2 \
	OrthoOrbital Pt 9   dxz \
	OrthoOrbital Pt 9   dx2-y2 \
	OrthoOrbital Pt 10   s \
	OrthoOrbital Pt 10   p \
	OrthoOrbital Pt 10   px \
	OrthoOrbital Pt 10   py \
	OrthoOrbital Pt 10   pz \
	OrthoOrbital Pt 10   d \
	OrthoOrbital Pt 10   dxy \
	OrthoOrbital Pt 10   dyz \
	OrthoOrbital Pt 10   dz2 \
	OrthoOrbital Pt 10   dxz \
	OrthoOrbital Pt 10   dx2-y2 \
	OrthoOrbital Pt 11   s \
	OrthoOrbital Pt 11   p \
	OrthoOrbital Pt 11   px \
	OrthoOrbital Pt 11   py \
	OrthoOrbital Pt 11   pz \
	OrthoOrbital Pt 11   d \
	OrthoOrbital Pt 11   dxy \
	OrthoOrbital Pt 11   dyz \
	OrthoOrbital Pt 11   dz2 \
	OrthoOrbital Pt 11   dxz \
	OrthoOrbital Pt 11   dx2-y2 \
	OrthoOrbital Pt 12   s \
	OrthoOrbital Pt 12   p \
	OrthoOrbital Pt 12   px \
	OrthoOrbital Pt 12   py \
	OrthoOrbital Pt 12   pz \
	OrthoOrbital Pt 12   d \
	OrthoOrbital Pt 12   dxy \
	OrthoOrbital Pt 12   dyz \
	OrthoOrbital Pt 12   dz2 \
	OrthoOrbital Pt 12   dxz \
	OrthoOrbital Pt 12   dx2-y2 \
	OrthoOrbital Pt 13   s \
	OrthoOrbital Pt 13   p \
	OrthoOrbital Pt 13   px \
	OrthoOrbital Pt 13   py \
	OrthoOrbital Pt 13   pz \
	OrthoOrbital Pt 13   d \
	OrthoOrbital Pt 13   dxy \
	OrthoOrbital Pt 13   dyz \
	OrthoOrbital Pt 13   dz2 \
	OrthoOrbital Pt 13   dxz \
	OrthoOrbital Pt 13   dx2-y2 \
	OrthoOrbital Pt 14   s \
	OrthoOrbital Pt 14   p \
	OrthoOrbital Pt 14   px \
	OrthoOrbital Pt 14   py \
	OrthoOrbital Pt 14   pz \
	OrthoOrbital Pt 14   d \
	OrthoOrbital Pt 14   dxy \
	OrthoOrbital Pt 14   dyz \
	OrthoOrbital Pt 14   dz2 \
	OrthoOrbital Pt 14   dxz \
	OrthoOrbital Pt 14   dx2-y2 \
	OrthoOrbital Pt 15   s \
	OrthoOrbital Pt 15   p \
	OrthoOrbital Pt 15   px \
	OrthoOrbital Pt 15   py \
	OrthoOrbital Pt 15   pz \
	OrthoOrbital Pt 15   d \
	OrthoOrbital Pt 15   dxy \
	OrthoOrbital Pt 15   dyz \
	OrthoOrbital Pt 15   dz2 \
	OrthoOrbital Pt 15   dxz \
	OrthoOrbital Pt 15   dx2-y2 \
	OrthoOrbital Pt 16   s \
	OrthoOrbital Pt 16   p \
	OrthoOrbital Pt 16   px \
	OrthoOrbital Pt 16   py \
	OrthoOrbital Pt 16   pz \
	OrthoOrbital Pt 16   d \
	OrthoOrbital Pt 16   dxy \
	OrthoOrbital Pt 16   dyz \
	OrthoOrbital Pt 16   dz2 \
	OrthoOrbital Pt 16   dxz \
	OrthoOrbital Pt 16   dx2-y2 \
	OrthoOrbital Pt 17   s \
	OrthoOrbital Pt 17   p \
	OrthoOrbital Pt 17   px \
	OrthoOrbital Pt 17   py \
	OrthoOrbital Pt 17   pz \
	OrthoOrbital Pt 17   d \
	OrthoOrbital Pt 17   dxy \
	OrthoOrbital Pt 17   dyz \
	OrthoOrbital Pt 17   dz2 \
	OrthoOrbital Pt 17   dxz \
	OrthoOrbital Pt 17   dx2-y2 \
	OrthoOrbital Pt 18   s \
	OrthoOrbital Pt 18   p \
	OrthoOrbital Pt 18   px \
	OrthoOrbital Pt 18   py \
	OrthoOrbital Pt 18   pz \
	OrthoOrbital Pt 18   d \
	OrthoOrbital Pt 18   dxy \
	OrthoOrbital Pt 18   dyz \
	OrthoOrbital Pt 18   dz2 \
	OrthoOrbital Pt 18   dxz \
	OrthoOrbital Pt 18   dx2-y2 \
	OrthoOrbital Pt 19   s \
	OrthoOrbital Pt 19   p \
	OrthoOrbital Pt 19   px \
	OrthoOrbital Pt 19   py \
	OrthoOrbital Pt 19   pz \
	OrthoOrbital Pt 19   d \
	OrthoOrbital Pt 19   dxy \
	OrthoOrbital Pt 19   dyz \
	OrthoOrbital Pt 19   dz2 \
	OrthoOrbital Pt 19   dxz \
	OrthoOrbital Pt 19   dx2-y2 \
	OrthoOrbital Pt 20   s \
	OrthoOrbital Pt 20   p \
	OrthoOrbital Pt 20   px \
	OrthoOrbital Pt 20   py \
	OrthoOrbital Pt 20   pz \
	OrthoOrbital Pt 20   d \
	OrthoOrbital Pt 20   dxy \
	OrthoOrbital Pt 20   dyz \
	OrthoOrbital Pt 20   dz2 \
	OrthoOrbital Pt 20   dxz \
	OrthoOrbital Pt 20   dx2-y2 \
	OrthoOrbital Pt 21   s \
	OrthoOrbital Pt 21   p \
	OrthoOrbital Pt 21   px \
	OrthoOrbital Pt 21   py \
	OrthoOrbital Pt 21   pz \
	OrthoOrbital Pt 21   d \
	OrthoOrbital Pt 21   dxy \
	OrthoOrbital Pt 21   dyz \
	OrthoOrbital Pt 21   dz2 \
	OrthoOrbital Pt 21   dxz \
	OrthoOrbital Pt 21   dx2-y2 \
	OrthoOrbital Pt 22   s \
	OrthoOrbital Pt 22   p \
	OrthoOrbital Pt 22   px \
	OrthoOrbital Pt 22   py \
	OrthoOrbital Pt 22   pz \
	OrthoOrbital Pt 22   d \
	OrthoOrbital Pt 22   dxy \
	OrthoOrbital Pt 22   dyz \
	OrthoOrbital Pt 22   dz2 \
	OrthoOrbital Pt 22   dxz \
	OrthoOrbital Pt 22   dx2-y2 \
	OrthoOrbital Pt 23   s \
	OrthoOrbital Pt 23   p \
	OrthoOrbital Pt 23   px \
	OrthoOrbital Pt 23   py \
	OrthoOrbital Pt 23   pz \
	OrthoOrbital Pt 23   d \
	OrthoOrbital Pt 23   dxy \
	OrthoOrbital Pt 23   dyz \
	OrthoOrbital Pt 23   dz2 \
	OrthoOrbital Pt 23   dxz \
	OrthoOrbital Pt 23   dx2-y2 \
	OrthoOrbital Pt 24   s \
	OrthoOrbital Pt 24   p \
	OrthoOrbital Pt 24   px \
	OrthoOrbital Pt 24   py \
	OrthoOrbital Pt 24   pz \
	OrthoOrbital Pt 24   d \
	OrthoOrbital Pt 24   dxy \
	OrthoOrbital Pt 24   dyz \
	OrthoOrbital Pt 24   dz2 \
	OrthoOrbital Pt 24   dxz \
	OrthoOrbital Pt 24   dx2-y2 \
	OrthoOrbital Pt 25   s \
	OrthoOrbital Pt 25   p \
	OrthoOrbital Pt 25   px \
	OrthoOrbital Pt 25   py \
	OrthoOrbital Pt 25   pz \
	OrthoOrbital Pt 25   d \
	OrthoOrbital Pt 25   dxy \
	OrthoOrbital Pt 25   dyz \
	OrthoOrbital Pt 25   dz2 \
	OrthoOrbital Pt 25   dxz \
	OrthoOrbital Pt 25   dx2-y2 \
	OrthoOrbital Pt 26   s \
	OrthoOrbital Pt 26   p \
	OrthoOrbital Pt 26   px \
	OrthoOrbital Pt 26   py \
	OrthoOrbital Pt 26   pz \
	OrthoOrbital Pt 26   d \
	OrthoOrbital Pt 26   dxy \
	OrthoOrbital Pt 26   dyz \
	OrthoOrbital Pt 26   dz2 \
	OrthoOrbital Pt 26   dxz \
	OrthoOrbital Pt 26   dx2-y2 \
	OrthoOrbital Pt 27   s \
	OrthoOrbital Pt 27   p \
	OrthoOrbital Pt 27   px \
	OrthoOrbital Pt 27   py \
	OrthoOrbital Pt 27   pz \
	OrthoOrbital Pt 27   d \
	OrthoOrbital Pt 27   dxy \
	OrthoOrbital Pt 27   dyz \
	OrthoOrbital Pt 27   dz2 \
	OrthoOrbital Pt 27   dxz \
	OrthoOrbital Pt 27   dx2-y2 \
	OrthoOrbital Pt 28   s \
	OrthoOrbital Pt 28   p \
	OrthoOrbital Pt 28   px \
	OrthoOrbital Pt 28   py \
	OrthoOrbital Pt 28   pz \
	OrthoOrbital Pt 28   d \
	OrthoOrbital Pt 28   dxy \
	OrthoOrbital Pt 28   dyz \
	OrthoOrbital Pt 28   dz2 \
	OrthoOrbital Pt 28   dxz \
	OrthoOrbital Pt 28   dx2-y2 \
	OrthoOrbital Pt 29   s \
	OrthoOrbital Pt 29   p \
	OrthoOrbital Pt 29   px \
	OrthoOrbital Pt 29   py \
	OrthoOrbital Pt 29   pz \
	OrthoOrbital Pt 29   d \
	OrthoOrbital Pt 29   dxy \
	OrthoOrbital Pt 29   dyz \
	OrthoOrbital Pt 29   dz2 \
	OrthoOrbital Pt 29   dxz \
	OrthoOrbital Pt 29   dx2-y2 \
	OrthoOrbital Pt 30   s \
	OrthoOrbital Pt 30   p \
	OrthoOrbital Pt 30   px \
	OrthoOrbital Pt 30   py \
	OrthoOrbital Pt 30   pz \
	OrthoOrbital Pt 30   d \
	OrthoOrbital Pt 30   dxy \
	OrthoOrbital Pt 30   dyz \
	OrthoOrbital Pt 30   dz2 \
	OrthoOrbital Pt 30   dxz \
	OrthoOrbital Pt 30   dx2-y2 \
	OrthoOrbital Pt 31   s \
	OrthoOrbital Pt 31   p \
	OrthoOrbital Pt 31   px \
	OrthoOrbital Pt 31   py \
	OrthoOrbital Pt 31   pz \
	OrthoOrbital Pt 31   d \
	OrthoOrbital Pt 31   dxy \
	OrthoOrbital Pt 31   dyz \
	OrthoOrbital Pt 31   dz2 \
	OrthoOrbital Pt 31   dxz \
	OrthoOrbital Pt 31   dx2-y2 \
	OrthoOrbital Pt 32   s \
	OrthoOrbital Pt 32   p \
	OrthoOrbital Pt 32   px \
	OrthoOrbital Pt 32   py \
	OrthoOrbital Pt 32   pz \
	OrthoOrbital Pt 32   d \
	OrthoOrbital Pt 32   dxy \
	OrthoOrbital Pt 32   dyz \
	OrthoOrbital Pt 32   dz2 \
	OrthoOrbital Pt 32   dxz \
	OrthoOrbital Pt 32   dx2-y2 \
	OrthoOrbital Pt 33   s \
	OrthoOrbital Pt 33   p \
	OrthoOrbital Pt 33   px \
	OrthoOrbital Pt 33   py \
	OrthoOrbital Pt 33   pz \
	OrthoOrbital Pt 33   d \
	OrthoOrbital Pt 33   dxy \
	OrthoOrbital Pt 33   dyz \
	OrthoOrbital Pt 33   dz2 \
	OrthoOrbital Pt 33   dxz \
	OrthoOrbital Pt 33   dx2-y2 \
	OrthoOrbital Pt 34   s \
	OrthoOrbital Pt 34   p \
	OrthoOrbital Pt 34   px \
	OrthoOrbital Pt 34   py \
	OrthoOrbital Pt 34   pz \
	OrthoOrbital Pt 34   d \
	OrthoOrbital Pt 34   dxy \
	OrthoOrbital Pt 34   dyz \
	OrthoOrbital Pt 34   dz2 \
	OrthoOrbital Pt 34   dxz \
	OrthoOrbital Pt 34   dx2-y2
dump End ElecDensity KEdensity BandEigs EigStats RhoAtom DOS Kpoints
dump Ionic State IonicPositions Lattice EigStats Ecomponents
dump 
dump 
dump 
dump 
dump 
dump 
dump 
dump 
dump-name jdft.$VAR
elec-cutoff 20
elec-eigen-algo Davidson
elec-ex-corr gga-PBE
elec-initial-magnetization 0.000000 no
elec-n-bands 327
elec-smearing Fermi 0.001
electronic-minimize  \
	dirUpdateScheme      FletcherReeves \
	linminMethod         DirUpdateRecommended \
	nIterations          100 \
	history              15 \
	knormThreshold       0 \
	energyDiffThreshold  1e-07 \
	nEnergyDiff          2 \
	alphaTstart          1 \
	alphaTmin            1e-10 \
	updateTestStepSize   yes \
	alphaTreduceFactor   0.1 \
	alphaTincreaseFactor 3 \
	nAlphaAdjustMax      3 \
	wolfeEnergy          0.0001 \
	wolfeGradient        0.9 \
	fdTest               no
exchange-regularization WignerSeitzTruncated
fluid LinearPCM 298.000000 1.013250
fluid-anion F- 0.5 MeanFieldLJ \
	epsBulk 1 \
	pMol 0 \
	epsInf 1 \
	Pvap 0 \
	sigmaBulk 0 \
	Rvdw 2.24877 \
	Res 0 \
	tauNuc 343133
fluid-cation Na+ 0.5 MeanFieldLJ \
	epsBulk 1 \
	pMol 0 \
	epsInf 1 \
	Pvap 0 \
	sigmaBulk 0 \
	Rvdw 2.19208 \
	Res 0 \
	tauNuc 343133
fluid-ex-corr lda-TF lda-PZ
fluid-gummel-loop 10 1.000000e-05
fluid-minimize  \
	dirUpdateScheme      PolakRibiere \
	linminMethod         DirUpdateRecommended \
	nIterations          400 \
	history              15 \
	knormThreshold       1e-11 \
	energyDiffThreshold  0 \
	nEnergyDiff          2 \
	alphaTstart          1 \
	alphaTmin            1e-10 \
	updateTestStepSize   yes \
	alphaTreduceFactor   0.1 \
	alphaTincreaseFactor 3 \
	nAlphaAdjustMax      6 \
	wolfeEnergy          0.0001 \
	wolfeGradient        0.9 \
	fdTest               no
fluid-solvent H2O 55.338 ScalarEOS \
	epsBulk 78.4 \
	pMol 0.92466 \
	epsInf 1.77 \
	Pvap 1.06736e-10 \
	sigmaBulk 4.62e-05 \
	Rvdw 2.61727 \
	Res 1.42 \
	tauNuc 343133 \
	poleEl 15 7 1
forces-output-coords Positions
initial-state jdft.$VAR
ion Pt  -0.000335645746752  12.515388243364132   1.381461285466597 1
ion Pt   5.231742384506741  16.620982102967769   5.095750003037301 1
ion Pt   5.232268427211295  21.831824265078200  29.790010148449340 1
ion Pt   5.231571593573602   3.829949718654112   2.926702450224699 1
ion Pt   5.231641436590365   7.601284460582535   6.756001603709679 1
ion Pt   5.231832850792451  11.430558762934691  10.363758623947682 1
ion Pt   0.000081493420556  18.992532417960252  17.487154510016438 1
ion Pt   5.231684881088237  20.435827482926744   8.468482178687914 1
ion Pt   5.231842314981312   2.540483929274942  12.080573322166664 1
ion Pt   5.232089439208432   6.331561704046754  15.685870464618271 1
ion Pt   0.000165884202253  10.186225080391910  19.275105756087868 1
ion Pt   0.000405992982863  13.949793351314275  23.008683499232479 1
ion Pt   5.231830247158447  15.255255886324125  13.921565078209564 1
ion Pt   5.232251504885681   1.178528151057477  21.028836830399140 1
ion Pt   0.000305166791218   5.065252944929147  24.566376620120920 1
ion Pt   0.000375144559463   8.942251615848710  28.331864085521662 1
ion Pt   5.232314561203384  17.666979368161496  26.872487984996344 1
ion Pt   2.615772081134895  12.064264757910633   5.941053299722316 1
ion Pt   2.615767049001194  15.952901607703570   9.477734334603063 1
ion Pt   2.615642904262078  21.035766883282573   3.636894047938096 1
ion Pt   2.615494178754362   3.180312278285127   7.499544097621852 1
ion Pt   2.615875284963407   6.945590890059044  11.232186938769175 1
ion Pt   2.615968322970482  10.800162068060358  14.821748447969014 1
ion Pt   2.616332816531560  18.265508257712145  22.039114639562861 1
ion Pt   2.615828701528194  19.710541328678474  13.020843614211712 1
ion Pt   2.616132304126491   1.876829325024691  16.586309598548684 1
ion Pt   2.616226780713450   5.702212849761391  20.143272587451793 1
ion Pt   2.616367825151154   9.530154201856510  23.751355599000469 1
ion Pt   2.616457819067526  13.300281931543621  27.580217040796573 1
ion Pt   2.616143036939572  14.591372819959410  18.426830678865919 1
ion Pt   2.616273163523349   0.509066043209211  25.412091880031458 1
ion Pt   2.616297407308952   4.614464792656912  29.125980391900956 1
ion Pt   2.615544039933086   8.187328522754701   2.175153788812640 1
ion Pt   2.615730606680689  16.869759955724533   0.716683569300922 1
ion-species /projects/musgravc/apps/jdftx-1.6.0/build/pseudopotentials/GBRV_v1.5/$ID_pbe_v1.uspp
ion-species /projects/musgravc/apps/jdftx-1.6.0/build/pseudopotentials/GBRV_v1.5/$ID_pbe_v1.2.uspp
ion-species /projects/musgravc/apps/jdftx-1.6.0/build/pseudopotentials/GBRV_v1.5/$ID_pbe_v1.4.uspp
ion-species /projects/musgravc/apps/jdftx-1.6.0/build/pseudopotentials/GBRV_v1.5/$ID_pbe_v1.5.uspp
ion-width Ecut
ionic-minimize  \
	dirUpdateScheme      L-BFGS \
	linminMethod         DirUpdateRecommended \
	nIterations          100 \
	history              15 \
	knormThreshold       0.0001 \
	energyDiffThreshold  1e-06 \
	nEnergyDiff          2 \
	alphaTstart          1 \
	alphaTmin            1e-10 \
	updateTestStepSize   yes \
	alphaTreduceFactor   0.1 \
	alphaTincreaseFactor 3 \
	nAlphaAdjustMax      3 \
	wolfeEnergy          0.0001 \
	wolfeGradient        0.9 \
	fdTest               no
kpoint   0.000000000000   0.000000000000   0.000000000000  1.00000000000000
kpoint-folding 11 2 1 
latt-move-scale 0 0 0
latt-scale 1 1 1 
lattice  \
	   5.231996000000000   -0.000000000000000    0.000000000000000  \
	   0.000000000000000   21.572068000000002    0.000000000000000  \
	   0.000000000000000    0.000000000000000   61.015023999999997 
lattice-minimize  \
	dirUpdateScheme      L-BFGS \
	linminMethod         DirUpdateRecommended \
	nIterations          0 \
	history              15 \
	knormThreshold       0 \
	energyDiffThreshold  1e-06 \
	nEnergyDiff          2 \
	alphaTstart          1 \
	alphaTmin            1e-10 \
	updateTestStepSize   yes \
	alphaTreduceFactor   0.1 \
	alphaTincreaseFactor 3 \
	nAlphaAdjustMax      3 \
	wolfeEnergy          0.0001 \
	wolfeGradient        0.9 \
	fdTest               no
lcao-params 30 1e-06 0.001
pcm-variant CANDLE
spintype z-spin
subspace-rotation-factor 1 yes
symmetries none
symmetry-threshold 0.0001
target-mu -0.1713 no

van-der-waals D3


Applied RMS atom displacement 0 bohrs to make symmetries exact.

---------- Initializing the Grid ----------
R = 
[        5.232            0            0  ]
[            0      21.5721            0  ]
[            0            0       61.015  ]
unit cell volume = 6886.46
G =
[    1.20092          0         -0  ]
[          0   0.291265          0  ]
[          0         -0   0.102978  ]
Minimum fftbox size, Smin = [  24  88  248  ]
Chosen fftbox size, S = [  24  90  250  ]

---------- Exchange Correlation functional ----------
Initalized PBE GGA exchange.
Initalized PBE GGA correlation.

---------- Setting up pseudopotentials ----------
Width of ionic core gaussian charges (only for fluid interactions / plotting) set to 0.397384

Reading pseudopotential file '/projects/musgravc/apps/jdftx-1.6.0/build/pseudopotentials/GBRV_v1.5/pt_pbe_v1.4.uspp':
  Title: Pt.  Created by USPP 7.3.6 on 31-3-15
  Reference state energy: -105.002503.  16 valence electrons in orbitals:
    |510>  occupation: 6  eigenvalue: -2.158104
    |520>  occupation: 9.5  eigenvalue: -0.335376
    |600>  occupation: 0  eigenvalue: -0.319640
    |610>  occupation: 0  eigenvalue: -0.122947
  lMax: 2  lLocal: 3  QijEcut: 5.5
  6 projectors sampled on a log grid with 745 points:
    l: 0  eig: -0.319640  rCut: 2.45
    l: 0  eig: 1.500000  rCut: 2.45
    l: 1  eig: -2.158104  rCut: 1.6
    l: 1  eig: -0.122947  rCut: 1.6
    l: 2  eig: -0.500000  rCut: 1.6
    l: 2  eig: -0.335375  rCut: 1.6
  Partial core density with radius 1.1
  Transforming core density to a uniform radial grid of dG=0.02 with 1173 points.
  Transforming local potential to a uniform radial grid of dG=0.02 with 1173 points.
  Transforming nonlocal projectors to a uniform radial grid of dG=0.02 with 432 points.
  Transforming density augmentations to a uniform radial grid of dG=0.02 with 1173 points.
  Transforming atomic orbitals to a uniform radial grid of dG=0.02 with 432 points.
  Core radius for overlap checks: 2.45 bohrs.

Initialized 1 species with 34 total atoms.

Folded 1 k-points by 11x2x1 to 22 k-points.

---------- Setting up k-points, bands, fillings ----------
No reducable k-points. 
Computing the number of bands and number of electrons
Reading initial fillings from file jdft.fillings.
nElectrons: 544.341565   nBands: 327   nStates: 44

----- Setting up reduced wavefunction bases (one per k-point) -----
average nbasis = 29423.773 , ideal nbasis = 29419.478

----- Initializing Supercell corresponding to k-point mesh -----
Lattice vector linear combinations in supercell:
[  11   0   0  ]
[   0   2   0  ]
[   0   0   1  ]
Supercell lattice vectors:
[  57.552  0  0  ]
[  0  43.1441  0  ]
[  0  0  61.015  ]

Initializing DFT-D3 calculator:
	Parameters set for gga-PBE functional
	s6:  1.000  s_r6:  1.217
	s8:  0.722  s_r8:  1.000
	Per-atom parameters loaded for:
	Pt:  sqrtQ[a0]:  5.888  Rcov[a0]:  2.116  CN: [ 0.00 1.92 6.67 ]

Initializing DFT-D2 calculator for fluid / solvation:
	Pt:  C6:  815.23 Eh-a0^6  R0: 3.326 a0 (WARNING: beyond Grimme's data set)

---------- Setting up ewald sum ----------
Optimum gaussian width for ewald sums = 4.216922 bohr.
Real space sum over 665 unit cells with max indices [  9  3  2  ]
Reciprocal space sum over 6251 terms with max indices [  3  9  23  ]

Computing DFT-D3 correction:
# coordination-number Pt 7.096 9.374 5.908 7.144 9.401 9.519 9.579 9.237 9.558 9.570 9.545 9.379 9.586 9.549 9.327 7.144 7.522 9.329 9.552 7.523 9.377 9.544 9.569 9.234 9.578 9.585 9.519 9.402 7.146 9.559 9.374 7.097 7.144 5.906
# diagonal-C6 Pt 336.87 336.87 336.87 336.87 336.87 336.87 336.87 336.87 336.87 336.87 336.87 336.87 336.87 336.87 336.87 336.87 336.87 336.87 336.87 336.87 336.87 336.87 336.87 336.87 336.87 336.87 336.87 336.87 336.87 336.87 336.87 336.87 336.87 336.87
EvdW_6 =   -0.316067
EvdW_8 =   -0.498939

---------- Allocating electronic variables ----------
Initializing wave functions:  reading from 'jdft.wfns'
----- createFluidSolver() ----- (Fluid-side solver setup)
   Initializing fluid molecule 'H2O'
     Initializing site 'O'
       Electron density: proportional to exp(-r/0.36935)*erfc((r-0.51523)/0.36823) with norm 6.826
       Charge density: gaussian nuclear width 0.478731 with net site charge 0.826
       Polarizability: cuspless exponential with width 0.32 and norm 3.73
       Hard sphere radius: 2.57003 bohrs
       Positions in reference frame:
         [ +0.000000 +0.000000 +0.000000 ]
     Initializing site 'H'
       Electron density: proportional to exp(-r/0.34641)*erfc((r-0)/0.390882) with norm 0.587
       Charge density: gaussian nuclear width 0.377945 with net site charge -0.413
       Polarizability: cuspless exponential with width 0.39 and norm 3.3
       Positions in reference frame:
         [ +0.000000 -1.441945 +1.122523 ]
         [ +0.000000 +1.441945 +1.122523 ]
     Net charge: 0   dipole magnitude: 0.927204
     Initializing spherical shell mfKernel with radius 2.61727 Bohr
     deltaS corrections:
       site 'O': -7.54299
       site 'H': -6.83917
   Initializing fluid molecule 'Na+'
     Initializing site 'Na'
       Electron density: proportional to exp(-r/0.19682)*erfc((r-0.71491)/0.41314) with norm 8.1383
       Charge density: gaussian nuclear width 0.365347 with net site charge -1
       Hard sphere radius: 1.86327 bohrs
       Positions in reference frame:
         [ +0.000000 +0.000000 +0.000000 ]
     Net charge: -1   dipole magnitude: 0
     Initializing gaussian mfKernel with width: 1.55004 Bohr
     deltaS corrections:
       site 'Na': -22.3555
   Initializing fluid molecule 'F-'
     Initializing site 'F'
       Electron density: proportional to exp(-r/0.38886)*erfc((r-0)/0.438782) with norm 8
       Charge density: gaussian nuclear width 0.374796 with net site charge 1
       Hard sphere radius: 2.39995 bohrs
       Positions in reference frame:
         [ +0.000000 +0.000000 +0.000000 ]
     Net charge: 1   dipole magnitude: 0
     Initializing gaussian mfKernel with width: 1.59012 Bohr
     deltaS corrections:
       site 'F': -9.04335

Correction to mu due to finite nuclear width = -0.0783795
   Cavity determined by nc: 0.00142 and sigma: 0.707107
   Nonlocal vdW cavity from gaussian model electron density with norm = 8 and sigma = 0.993594 bohr
   Charge asymmetry in cavity with sensitivity pCavity = 36.5 e-bohr/Eh
   Electrostatic cavity expanded by eta = 1.46 bohrs
   Weighted density cavitation model constrained by Nbulk: 0.0049383 bohr^-3, Pvap: 3.14029 kPa, Rvdw: 2.61727 bohr and sigmaBulk: 4.62e-05 Eh/bohr^2 at T: 298 K.
   Weighted density dispersion model using vdW pair potentials with single solvent site with sqrtC6eff: 0.77 SI.
Reading fluid state from 'jdft.fluidState'


---- Citations for features of the code used in this run ----

   Software package:
      R. Sundararaman, K. Letchworth-Weaver, K.A. Schwarz, D. Gunceler, Y. Ozhabes and T.A. Arias, 'JDFTx: software for joint density-functional theory', SoftwareX 6, 278 (2017)

   gga-PBE exchange-correlation functional:
      J.P. Perdew, K. Burke and M. Ernzerhof, Phys. Rev. Lett. 77, 3865 (1996)

   Pseudopotentials:
      KF Garrity, JW Bennett, KM Rabe and D Vanderbilt, Comput. Mater. Sci. 81, 446 (2014)

   DFT-D3 dispersion correction:
      S. Grimme, J. Antony, S. Ehrlich and H. Krieg, J. Chem. Phys. 132, 154104 (2010)

   DFT-D2 dispersion correction:
      S. Grimme, J. Comput. Chem. 27, 1787 (2006)

   Charge-asymmetric nonlocally-determined local-electric (CANDLE) solvation model:
      R. Sundararaman and W.A. Goddard III, J. Chem. Phys. 142, 064107 (2015)

   Total energy minimization with Auxiliary Hamiltonian:
      C. Freysoldt, S. Boeck, and J. Neugebauer, Phys. Rev. B 79, 241103(R) (2009)

   Grand-canonical (fixed-potential) DFT:
      R. Sundararaman, W. A. Goddard III and T. A. Arias, J. Chem. Phys. 146, 114104 (2017)

   Linear-tetrahedron sampling for density of states:
      G. Lehmann and M. Taut, Phys. status solidi (b) 54, 469 (1972)

This list may not be complete. Please suggest additional citations or
report any other bugs at https://github.com/shankar1729/jdftx/issues

Initialization completed successfully at t[s]:     23.03


Computing DFT-D3 correction:
# coordination-number Pt 7.096 9.374 5.908 7.144 9.401 9.519 9.579 9.237 9.558 9.570 9.545 9.379 9.586 9.549 9.327 7.144 7.522 9.329 9.552 7.523 9.377 9.544 9.569 9.234 9.578 9.585 9.519 9.402 7.146 9.559 9.374 7.097 7.144 5.906
# diagonal-C6 Pt 336.87 336.87 336.87 336.87 336.87 336.87 336.87 336.87 336.87 336.87 336.87 336.87 336.87 336.87 336.87 336.87 336.87 336.87 336.87 336.87 336.87 336.87 336.87 336.87 336.87 336.87 336.87 336.87 336.87 336.87 336.87 336.87 336.87 336.87
EvdW_6 =   -0.316067
EvdW_8 =   -0.498939
Shifting auxilliary hamiltonian by -0.000038 to set nElectrons=544.341565

-------- Electronic minimization -----------
	Linear fluid (dielectric constant: 78.4, screening length: 8.12261 Bohr) occupying 0.362769 of unit cell:	Completed after 16 iterations at t[s]:     38.01
	FillingsUpdate:  mu: -0.171300000  nElectrons: 544.341565  magneticMoment: [ Abs: 0.00000  Tot: -0.00000 ]
ElecMinimize: Iter:   0  G: -2931.904153772971313  |grad|_K:  4.936e-06  alpha:  1.000e+00
	Linear fluid (dielectric constant: 78.4, screening length: 8.12261 Bohr) occupying 0.426882 of unit cell:	Completed after 35 iterations at t[s]:    131.97
	Linear fluid (dielectric constant: 78.4, screening length: 8.12261 Bohr) occupying 0.362950 of unit cell:	Completed after 30 iterations at t[s]:    165.16
	FillingsUpdate:  mu: -0.171300000  nElectrons: 544.352739  magneticMoment: [ Abs: 0.00000  Tot: -0.00000 ]
	SubspaceRotationAdjust: set factor to 0.504
ElecMinimize: Iter:   1  G: -2931.904167034480452  |grad|_K:  4.119e-06  alpha:  2.373e-03  linmin:  6.537e-02  t[s]:    207.75
	Linear fluid (dielectric constant: 78.4, screening length: 8.12261 Bohr) occupying 0.362903 of unit cell:	Completed after 13 iterations at t[s]:    248.97
ElecMinimize: 	Predicted alpha/alphaT>3.000000, increasing alphaT to 7.119434e-03.
	Linear fluid (dielectric constant: 78.4, screening length: 8.12261 Bohr) occupying 0.362811 of unit cell:	Completed after 14 iterations at t[s]:    279.81
	Linear fluid (dielectric constant: 78.4, screening length: 8.12261 Bohr) occupying 0.362750 of unit cell:	Completed after 13 iterations at t[s]:    310.15
	FillingsUpdate:  mu: -0.171300000  nElectrons: 544.340167  magneticMoment: [ Abs: 0.00000  Tot: -0.00000 ]
	SubspaceRotationAdjust: set factor to 0.188
ElecMinimize: Iter:   2  G: -2931.904207243644578  |grad|_K:  6.598e-07  alpha:  1.032e-02  linmin:  1.781e-04  t[s]:    353.08
	Linear fluid (dielectric constant: 78.4, screening length: 8.12261 Bohr) occupying 0.362826 of unit cell:	Completed after 14 iterations at t[s]:    394.73
	Linear fluid (dielectric constant: 78.4, screening length: 8.12261 Bohr) occupying 0.362778 of unit cell:	Completed after 13 iterations at t[s]:    425.19
	FillingsUpdate:  mu: -0.171300000  nElectrons: 544.341952  magneticMoment: [ Abs: 0.00000  Tot: -0.00000 ]
	SubspaceRotationAdjust: set factor to 0.111
	SubspaceRotationAdjust: resetting CG because factor has changed by 0.111071
	Linear fluid (dielectric constant: 78.4, screening length: 8.12261 Bohr) occupying 0.362778 of unit cell:	Completed after 0 iterations at t[s]:    479.55
ElecMinimize: 	State modified externally: resetting search direction.
ElecMinimize: Iter:   3  G: -2931.904207959112227  |grad|_K:  2.159e-07  alpha:  3.870e-03
	Linear fluid (dielectric constant: 78.4, screening length: 8.12261 Bohr) occupying 0.362776 of unit cell:	Completed after 2 iterations at t[s]:    561.58
ElecMinimize: 	Predicted alpha/alphaT>3.000000, increasing alphaT to 1.160965e-02.
	Linear fluid (dielectric constant: 78.4, screening length: 8.12261 Bohr) occupying 0.362772 of unit cell:	Completed after 8 iterations at t[s]:    591.16
ElecMinimize: 	Predicted alpha/alphaT>3.000000, increasing alphaT to 3.482894e-02.
	Linear fluid (dielectric constant: 78.4, screening length: 8.12261 Bohr) occupying 0.362758 of unit cell:	Completed after 11 iterations at t[s]:    621.07
	Linear fluid (dielectric constant: 78.4, screening length: 8.12261 Bohr) occupying 0.362758 of unit cell:	Completed after 0 iterations at t[s]:    650.49
	FillingsUpdate:  mu: -0.171300000  nElectrons: 544.340674  magneticMoment: [ Abs: 0.00000  Tot: -0.00000 ]
	SubspaceRotationAdjust: set factor to 0.0622
ElecMinimize: Iter:   4  G: -2931.904208648437361  |grad|_K:  2.781e-07  alpha:  3.474e-02  linmin:  2.621e-04  t[s]:    693.92
	Linear fluid (dielectric constant: 78.4, screening length: 8.12261 Bohr) occupying 0.362778 of unit cell:	Completed after 11 iterations at t[s]:    734.61
	Linear fluid (dielectric constant: 78.4, screening length: 8.12261 Bohr) occupying 0.362794 of unit cell:	Completed after 11 iterations at t[s]:    764.49
	FillingsUpdate:  mu: -0.171300000  nElectrons: 544.342831  magneticMoment: [ Abs: 0.00000  Tot: -0.00000 ]
	SubspaceRotationAdjust: set factor to 0.0576
ElecMinimize: Iter:   5  G: -2931.904210733661330  |grad|_K:  6.582e-08  alpha:  6.309e-02  linmin: -2.269e-03  t[s]:    807.25
	Linear fluid (dielectric constant: 78.4, screening length: 8.12261 Bohr) occupying 0.362794 of unit cell:	Completed after 5 iterations at t[s]:    847.26
ElecMinimize: 	Predicted alpha/alphaT>3.000000, increasing alphaT to 1.892756e-01.
	Linear fluid (dielectric constant: 78.4, screening length: 8.12261 Bohr) occupying 0.362795 of unit cell:	Completed after 7 iterations at t[s]:    876.69
	Linear fluid (dielectric constant: 78.4, screening length: 8.12261 Bohr) occupying 0.362795 of unit cell:	Completed after 5 iterations at t[s]:    905.78
	FillingsUpdate:  mu: -0.171300000  nElectrons: 544.342894  magneticMoment: [ Abs: 0.00000  Tot: -0.00000 ]
	SubspaceRotationAdjust: set factor to 0.0308
ElecMinimize: Iter:   6  G: -2931.904211184843916  |grad|_K:  1.042e-07  alpha:  2.421e-01  linmin: -3.169e-05  t[s]:    950.02
	Linear fluid (dielectric constant: 78.4, screening length: 8.12261 Bohr) occupying 0.362693 of unit cell:	Completed after 14 iterations at t[s]:    991.34
	Linear fluid (dielectric constant: 78.4, screening length: 8.12261 Bohr) occupying 0.362782 of unit cell:	Completed after 14 iterations at t[s]:   1021.73
	FillingsUpdate:  mu: -0.171300000  nElectrons: 544.342033  magneticMoment: [ Abs: 0.00000  Tot: -0.00000 ]
	SubspaceRotationAdjust: set factor to 0.0281
ElecMinimize: Iter:   7  G: -2931.904211341299288  |grad|_K:  2.760e-08  alpha:  3.169e-02  linmin: -4.386e-03  t[s]:   1064.52
	Linear fluid (dielectric constant: 78.4, screening length: 8.12261 Bohr) occupying 0.362781 of unit cell:	Completed after 0 iterations at t[s]:   1103.63
ElecMinimize: 	Predicted alpha/alphaT>3.000000, increasing alphaT to 9.505623e-02.
	Linear fluid (dielectric constant: 78.4, screening length: 8.12261 Bohr) occupying 0.362780 of unit cell:	Completed after 2 iterations at t[s]:   1132.55
ElecMinimize: 	Predicted alpha/alphaT>3.000000, increasing alphaT to 2.851687e-01.
	Linear fluid (dielectric constant: 78.4, screening length: 8.12261 Bohr) occupying 0.362776 of unit cell:	Completed after 7 iterations at t[s]:   1162.24
	Linear fluid (dielectric constant: 78.4, screening length: 8.12261 Bohr) occupying 0.362776 of unit cell:	Completed after 0 iterations at t[s]:   1190.93
	FillingsUpdate:  mu: -0.171300000  nElectrons: 544.341660  magneticMoment: [ Abs: 0.00000  Tot: -0.00000 ]
	SubspaceRotationAdjust: set factor to 0.0163
ElecMinimize: Iter:   8  G: -2931.904211446372756  |grad|_K:  3.767e-08  alpha:  3.128e-01  linmin: -4.746e-03  t[s]:   1233.59
	Linear fluid (dielectric constant: 78.4, screening length: 8.12261 Bohr) occupying 0.362798 of unit cell:	Completed after 11 iterations at t[s]:   1275.13
	Linear fluid (dielectric constant: 78.4, screening length: 8.12261 Bohr) occupying 0.362781 of unit cell:	Completed after 10 iterations at t[s]:   1304.84
	FillingsUpdate:  mu: -0.171300000  nElectrons: 544.341970  magneticMoment: [ Abs: 0.00000  Tot: -0.00000 ]
	SubspaceRotationAdjust: set factor to 0.0185
ElecMinimize: Iter:   9  G: -2931.904211492808372  |grad|_K:  1.584e-08  alpha:  6.912e-02  linmin: -1.390e-03  t[s]:   1347.63
	Linear fluid (dielectric constant: 78.4, screening length: 8.12261 Bohr) occupying 0.362782 of unit cell:	Completed after 2 iterations at t[s]:   1387.12
	Linear fluid (dielectric constant: 78.4, screening length: 8.12261 Bohr) occupying 0.362783 of unit cell:	Completed after 2 iterations at t[s]:   1416.12
	FillingsUpdate:  mu: -0.171300000  nElectrons: 544.342121  magneticMoment: [ Abs: 0.00000  Tot: -0.00000 ]
	SubspaceRotationAdjust: set factor to 0.0157
ElecMinimize: Iter:  10  G: -2931.904211520765330  |grad|_K:  1.463e-08  alpha:  1.970e-01  linmin: -4.097e-02  t[s]:   1458.89
ElecMinimize: Converged (|Delta G|<1.000000e-07 for 2 iters).
Setting wave functions to eigenvectors of Hamiltonian
Converging empty states (this may take a while): |deigs|: 2.618e-08

Computing DFT-D3 correction:
# coordination-number Pt 7.096 9.374 5.908 7.144 9.401 9.519 9.579 9.237 9.558 9.570 9.545 9.379 9.586 9.549 9.327 7.144 7.522 9.329 9.552 7.523 9.377 9.544 9.569 9.234 9.578 9.585 9.519 9.402 7.146 9.559 9.374 7.097 7.144 5.906
# diagonal-C6 Pt 336.87 336.87 336.87 336.87 336.87 336.87 336.87 336.87 336.87 336.87 336.87 336.87 336.87 336.87 336.87 336.87 336.87 336.87 336.87 336.87 336.87 336.87 336.87 336.87 336.87 336.87 336.87 336.87 336.87 336.87 336.87 336.87 336.87 336.87
EvdW_6 =   -0.316067
EvdW_8 =   -0.498939

# Ionic positions in cartesian coordinates:
ion Pt  -0.000335645746752  12.515388243364132   1.381461285466597 1
ion Pt   5.231742384506741  16.620982102967769   5.095750003037301 1
ion Pt   5.232268427211295  21.831824265078200  29.790010148449340 1
ion Pt   5.231571593573602   3.829949718654112   2.926702450224699 1
ion Pt   5.231641436590365   7.601284460582535   6.756001603709679 1
ion Pt   5.231832850792451  11.430558762934691  10.363758623947682 1
ion Pt   0.000081493420556  18.992532417960252  17.487154510016438 1
ion Pt   5.231684881088237  20.435827482926744   8.468482178687914 1
ion Pt   5.231842314981312   2.540483929274942  12.080573322166664 1
ion Pt   5.232089439208432   6.331561704046754  15.685870464618271 1
ion Pt   0.000165884202253  10.186225080391910  19.275105756087868 1
ion Pt   0.000405992982863  13.949793351314275  23.008683499232479 1
ion Pt   5.231830247158447  15.255255886324125  13.921565078209564 1
ion Pt   5.232251504885681   1.178528151057477  21.028836830399140 1
ion Pt   0.000305166791218   5.065252944929147  24.566376620120920 1
ion Pt   0.000375144559463   8.942251615848710  28.331864085521662 1
ion Pt   5.232314561203384  17.666979368161496  26.872487984996344 1
ion Pt   2.615772081134895  12.064264757910633   5.941053299722316 1
ion Pt   2.615767049001194  15.952901607703570   9.477734334603063 1
ion Pt   2.615642904262078  21.035766883282573   3.636894047938096 1
ion Pt   2.615494178754362   3.180312278285127   7.499544097621852 1
ion Pt   2.615875284963407   6.945590890059044  11.232186938769175 1
ion Pt   2.615968322970482  10.800162068060358  14.821748447969014 1
ion Pt   2.616332816531560  18.265508257712145  22.039114639562861 1
ion Pt   2.615828701528194  19.710541328678474  13.020843614211712 1
ion Pt   2.616132304126491   1.876829325024691  16.586309598548684 1
ion Pt   2.616226780713450   5.702212849761391  20.143272587451793 1
ion Pt   2.616367825151154   9.530154201856510  23.751355599000469 1
ion Pt   2.616457819067526  13.300281931543621  27.580217040796573 1
ion Pt   2.616143036939572  14.591372819959410  18.426830678865919 1
ion Pt   2.616273163523349   0.509066043209211  25.412091880031458 1
ion Pt   2.616297407308952   4.614464792656912  29.125980391900956 1
ion Pt   2.615544039933086   8.187328522754701   2.175153788812640 1
ion Pt   2.615730606680689  16.869759955724533   0.716683569300922 1

# Forces in Cartesian coordinates:
force Pt  -0.000000543842425  -0.000138472320717   0.000020599968212 1
force Pt  -0.000001043153848  -0.000960189200224   0.000261367315691 1
force Pt   0.000002012158553   0.000292452932818   0.000385072888711 1
force Pt  -0.000004332927915  -0.000662866832670  -0.000361158052045 1
force Pt  -0.000002730381180  -0.000246676247619   0.000736839718418 1
force Pt  -0.000000317152003   0.000297121641716   0.001973956422982 1
force Pt   0.000001256099202   0.000332087273029   0.001291312905289 1
force Pt  -0.000006923435509  -0.000289620412569   0.001216017617057 1
force Pt   0.000001567802530  -0.000313054474968  -0.001539015360224 1
force Pt  -0.000000437458481   0.000173488074620   0.000674345501660 1
force Pt  -0.000000358160437  -0.001234200626477   0.000927508236261 1
force Pt   0.000003216713083   0.000426406775278  -0.000597051086956 1
force Pt   0.000001298535798  -0.000390055176103  -0.001084757581295 1
force Pt   0.000001294269442  -0.000606576366284  -0.000404266687547 1
force Pt   0.000002685031249  -0.000235049779963   0.000391332823179 1
force Pt   0.000003927037734  -0.000006297434777   0.000407142053520 1
force Pt   0.000004144397698   0.000001162730312   0.000016068531548 1
force Pt  -0.000004552218352   0.000286754446754  -0.000460510177298 1
force Pt  -0.000001238227596   0.000574361710023   0.000561004982554 1
force Pt  -0.000003001226791  -0.000000993815209  -0.000123139748721 1
force Pt   0.000004161560359  -0.000404044770043   0.000533800422169 1
force Pt  -0.000000439176313   0.001285060031405  -0.000930147499452 1
force Pt  -0.000001202472350  -0.000167474711019  -0.000754625359872 1
force Pt   0.000002033059166   0.000407610120563  -0.001114696300279 1
force Pt  -0.000000265560122  -0.000311039393435  -0.001310614297804 1
force Pt  -0.000000848765364   0.000391168768696   0.000995767356436 1
force Pt   0.000001499790979  -0.000328608076748  -0.001876038384359 1
force Pt   0.000003066501082   0.000172739108129  -0.000714206106556 1
force Pt  -0.000000720701874   0.000667617982713   0.000437436464577 1
force Pt  -0.000002044690899   0.000256656516756   0.001569956373873 1
force Pt   0.000002263281055   0.000845450198498  -0.000489167108882 1
force Pt   0.000000230286249   0.000023575058260  -0.000010848047100 1
force Pt  -0.000000023122170  -0.000043458138063  -0.000405518418660 1
force Pt  -0.000003555252314  -0.000321409573642  -0.000260993070959 1

# Energy components:
   A_diel =       -0.1572052397906490
   Eewald =    18273.5226086025832046
       EH =    21102.7949893459008308
     Eloc =   -42925.7346219752726029
      Enl =      -35.8618474966723255
     EvdW =       -0.8150061111134465
      Exc =     -967.4447923684962234
 Exc_core =      557.3069534321741685
       KE =      971.2715638061953314
  MuShift =       -0.0268152403035970
-------------------------------------
     Etot =    -3025.1441732447906361
       TS =        0.0058435269887848
-------------------------------------
        F =    -3025.1500167717795193
      muN =      -93.2458052510142466
-------------------------------------
        G =    -2931.9042115207653296


Dumping 'jdft.fillings' ... done
Dumping 'jdft.wfns' ... done
Dumping 'jdft.fluidState' ... done
Dumping 'jdft.ionpos' ... done
Dumping 'jdft.lattice' ... done
Dumping 'jdft.eigenvals' ... done
Dumping 'jdft.eigStats' ... 
	eMin: -2.122112 at state 23 ( [ +0.000000 +0.500000 +0.000000 ] spin -1 )
	HOMO: -0.171553 at state 18 ( [ -0.181818 +0.000000 +0.000000 ] spin 1 )
	mu  : -0.171300
	LUMO: -0.171114 at state 32 ( [ +0.454545 +0.000000 +0.000000 ] spin -1 )
	eMax: +0.129605 at state 8 ( [ +0.363636 +0.000000 +0.000000 ] spin 1 )
	HOMO-LUMO gap: +0.000439
	Optical gap  : +0.000743 at state 12 ( [ -0.454545 +0.000000 +0.000000 ] spin 1 )
Dumping 'jdft.Ecomponents' ... done
IonicMinimize: Iter:   0  G: -2931.904211520765330  |grad|_K:  5.888e-04  t[s]:   1573.56

#--- Lowdin population analysis ---
# oxidation-state Pt -0.039 -0.013 -0.005 -0.017 +0.014 +0.013 +0.016 +0.014 +0.015 +0.006 +0.012 +0.010 +0.009 +0.012 +0.008 -0.030 -0.025 +0.008 +0.012 -0.025 +0.010 +0.012 +0.006 +0.014 +0.016 +0.009 +0.013 +0.014 -0.017 +0.015 -0.013 -0.039 -0.030 -0.005
# magnetic-moments Pt -0.000 -0.000 -0.000 -0.000 -0.000 -0.000 -0.000 -0.000 -0.000 -0.000 -0.000 -0.000 -0.000 -0.000 -0.000 -0.000 -0.000 -0.000 -0.000 -0.000 -0.000 -0.000 -0.000 -0.000 -0.000 -0.000 -0.000 -0.000 -0.000 -0.000 -0.000 -0.000 -0.000 -0.000


Computing DFT-D3 correction:
# coordination-number Pt 7.097 9.374 5.907 7.143 9.399 9.521 9.579 9.239 9.556 9.570 9.546 9.380 9.585 9.552 9.326 7.142 7.519 9.327 9.555 7.520 9.378 9.544 9.570 9.236 9.578 9.584 9.521 9.400 7.144 9.557 9.374 7.098 7.142 5.905
# diagonal-C6 Pt 336.87 336.87 336.87 336.87 336.87 336.87 336.87 336.87 336.87 336.87 336.87 336.87 336.87 336.87 336.87 336.87 336.87 336.87 336.87 336.87 336.87 336.87 336.87 336.87 336.87 336.87 336.87 336.87 336.87 336.87 336.87 336.87 336.87 336.87
EvdW_6 =   -0.316069
EvdW_8 =   -0.498939
Shifting auxilliary hamiltonian by -0.000047 to set nElectrons=544.342121

-------- Electronic minimization -----------
	Linear fluid (dielectric constant: 78.4, screening length: 8.12261 Bohr) occupying 0.362762 of unit cell:	Completed after 15 iterations at t[s]:   1619.96
	FillingsUpdate:  mu: -0.171300000  nElectrons: 544.342121  magneticMoment: [ Abs: 0.00000  Tot: -0.00000 ]
ElecMinimize: Iter:   0  G: -2931.904185164498813  |grad|_K:  9.606e-07  alpha:  1.000e+00
	Linear fluid (dielectric constant: 78.4, screening length: 8.12261 Bohr) occupying 0.364877 of unit cell:	Completed after 20 iterations at t[s]:   1711.79
	Linear fluid (dielectric constant: 78.4, screening length: 8.12261 Bohr) occupying 0.362912 of unit cell:	Completed after 19 iterations at t[s]:   1743.67
	FillingsUpdate:  mu: -0.171300000  nElectrons: 544.351482  magneticMoment: [ Abs: 0.00000  Tot: -0.00000 ]
	SubspaceRotationAdjust: set factor to 0.00932
ElecMinimize: Iter:   1  G: -2931.904217971229627  |grad|_K:  2.973e-07  alpha:  8.415e-02  linmin:  4.007e-03  t[s]:   1786.25
	Linear fluid (dielectric constant: 78.4, screening length: 8.12261 Bohr) occupying 0.362893 of unit cell:	Completed after 11 iterations at t[s]:   1826.79
ElecMinimize: 	Predicted alpha/alphaT>3.000000, increasing alphaT to 2.524403e-01.
	Linear fluid (dielectric constant: 78.4, screening length: 8.12261 Bohr) occupying 0.362856 of unit cell:	Completed after 14 iterations at t[s]:   1857.41
	Linear fluid (dielectric constant: 78.4, screening length: 8.12261 Bohr) occupying 0.362839 of unit cell:	Completed after 11 iterations at t[s]:   1887.42
	FillingsUpdate:  mu: -0.171300000  nElectrons: 544.347033  magneticMoment: [ Abs: 0.00000  Tot: -0.00000 ]
	SubspaceRotationAdjust: set factor to 0.0145
ElecMinimize: Iter:   2  G: -2931.904230306204227  |grad|_K:  1.201e-07  alpha:  3.300e-01  linmin: -1.064e-03  t[s]:   1930.31
	Linear fluid (dielectric constant: 78.4, screening length: 8.12261 Bohr) occupying 0.362827 of unit cell:	Completed after 6 iterations at t[s]:   1970.82
	Linear fluid (dielectric constant: 78.4, screening length: 8.12261 Bohr) occupying 0.362820 of unit cell:	Completed after 6 iterations at t[s]:   2000.21
	FillingsUpdate:  mu: -0.171300000  nElectrons: 544.346097  magneticMoment: [ Abs: 0.00000  Tot: -0.00000 ]
	SubspaceRotationAdjust: set factor to 0.0173
ElecMinimize: Iter:   3  G: -2931.904233385716452  |grad|_K:  8.366e-08  alpha:  5.019e-01  linmin:  2.064e-03  t[s]:   2042.98
	Linear fluid (dielectric constant: 78.4, screening length: 8.12261 Bohr) occupying 0.362773 of unit cell:	Completed after 11 iterations at t[s]:   2084.06
	Linear fluid (dielectric constant: 78.4, screening length: 8.12261 Bohr) occupying 0.362780 of unit cell:	Completed after 6 iterations at t[s]:   2113.33
	FillingsUpdate:  mu: -0.171300000  nElectrons: 544.343779  magneticMoment: [ Abs: 0.00000  Tot: -0.00000 ]
	SubspaceRotationAdjust: set factor to 0.0107
ElecMinimize: Iter:   4  G: -2931.904234641069706  |grad|_K:  1.140e-07  alpha:  4.234e-01  linmin:  1.021e-03  t[s]:   2156.69
	Linear fluid (dielectric constant: 78.4, screening length: 8.12261 Bohr) occupying 0.362798 of unit cell:	Completed after 12 iterations at t[s]:   2197.82
	Linear fluid (dielectric constant: 78.4, screening length: 8.12261 Bohr) occupying 0.362786 of unit cell:	Completed after 11 iterations at t[s]:   2228.01
	FillingsUpdate:  mu: -0.171300000  nElectrons: 544.344296  magneticMoment: [ Abs: 0.00000  Tot: -0.00000 ]
	SubspaceRotationAdjust: set factor to 0.00734
ElecMinimize: Iter:   5  G: -2931.904235435348710  |grad|_K:  6.765e-08  alpha:  1.445e-01  linmin: -7.662e-05  t[s]:   2270.94
	Linear fluid (dielectric constant: 78.4, screening length: 8.12261 Bohr) occupying 0.362782 of unit cell:	Completed after 2 iterations at t[s]:   2310.60
ElecMinimize: 	Predicted alpha/alphaT>3.000000, increasing alphaT to 4.335504e-01.
	Linear fluid (dielectric constant: 78.4, screening length: 8.12261 Bohr) occupying 0.362773 of unit cell:	Completed after 5 iterations at t[s]:   2340.04
	Linear fluid (dielectric constant: 78.4, screening length: 8.12261 Bohr) occupying 0.362769 of unit cell:	Completed after 2 iterations at t[s]:   2368.76
	FillingsUpdate:  mu: -0.171300000  nElectrons: 544.343416  magneticMoment: [ Abs: 0.00000  Tot: -0.00000 ]
	SubspaceRotationAdjust: set factor to 0.00947
ElecMinimize: Iter:   6  G: -2931.904236521933399  |grad|_K:  5.663e-08  alpha:  5.570e-01  linmin: -4.802e-04  t[s]:   2411.81
	Linear fluid (dielectric constant: 78.4, screening length: 8.12261 Bohr) occupying 0.362739 of unit cell:	Completed after 10 iterations at t[s]:   2453.06
	Linear fluid (dielectric constant: 78.4, screening length: 8.12261 Bohr) occupying 0.362750 of unit cell:	Completed after 9 iterations at t[s]:   2482.93
	FillingsUpdate:  mu: -0.171300000  nElectrons: 544.342204  magneticMoment: [ Abs: 0.00000  Tot: -0.00000 ]
	SubspaceRotationAdjust: set factor to 0.00776
ElecMinimize: Iter:   7  G: -2931.904236988978028  |grad|_K:  5.774e-08  alpha:  3.464e-01  linmin: -2.346e-04  t[s]:   2526.04
	Linear fluid (dielectric constant: 78.4, screening length: 8.12261 Bohr) occupying 0.362757 of unit cell:	Completed after 10 iterations at t[s]:   2566.97
	Linear fluid (dielectric constant: 78.4, screening length: 8.12261 Bohr) occupying 0.362756 of unit cell:	Completed after 3 iterations at t[s]:   2595.96
	FillingsUpdate:  mu: -0.171300000  nElectrons: 544.342479  magneticMoment: [ Abs: 0.00000  Tot: -0.00000 ]
	SubspaceRotationAdjust: set factor to 0.00654
ElecMinimize: Iter:   8  G: -2931.904237408795780  |grad|_K:  3.687e-08  alpha:  2.943e-01  linmin:  1.907e-03  t[s]:   2638.79
	Linear fluid (dielectric constant: 78.4, screening length: 8.12261 Bohr) occupying 0.362756 of unit cell:	Completed after 2 iterations at t[s]:   2678.31
	Linear fluid (dielectric constant: 78.4, screening length: 8.12261 Bohr) occupying 0.362755 of unit cell:	Completed after 2 iterations at t[s]:   2707.09
	FillingsUpdate:  mu: -0.171300000  nElectrons: 544.342091  magneticMoment: [ Abs: 0.00000  Tot: -0.00000 ]
	SubspaceRotationAdjust: set factor to 0.0083
ElecMinimize: Iter:   9  G: -2931.904237778372590  |grad|_K:  3.134e-08  alpha:  6.451e-01  linmin: -9.462e-04  t[s]:   2750.46
	Linear fluid (dielectric constant: 78.4, screening length: 8.12261 Bohr) occupying 0.362751 of unit cell:	Completed after 10 iterations at t[s]:   2791.30
	Linear fluid (dielectric constant: 78.4, screening length: 8.12261 Bohr) occupying 0.362751 of unit cell:	Completed after 0 iterations at t[s]:   2819.53
	FillingsUpdate:  mu: -0.171300000  nElectrons: 544.341519  magneticMoment: [ Abs: 0.00000  Tot: -0.00000 ]
	SubspaceRotationAdjust: set factor to 0.00717
ElecMinimize: Iter:  10  G: -2931.904238015938063  |grad|_K:  3.911e-08  alpha:  5.663e-01  linmin:  7.846e-06  t[s]:   2862.29
	Linear fluid (dielectric constant: 78.4, screening length: 8.12261 Bohr) occupying 0.362772 of unit cell:	Completed after 11 iterations at t[s]:   2903.00
	Linear fluid (dielectric constant: 78.4, screening length: 8.12261 Bohr) occupying 0.362761 of unit cell:	Completed after 9 iterations at t[s]:   2932.62
	FillingsUpdate:  mu: -0.171300000  nElectrons: 544.341877  magneticMoment: [ Abs: 0.00000  Tot: -0.00000 ]
	SubspaceRotationAdjust: set factor to 0.00593
ElecMinimize: Iter:  11  G: -2931.904238172133319  |grad|_K:  3.281e-08  alpha:  2.580e-01  linmin:  4.349e-04  t[s]:   2975.55
	Linear fluid (dielectric constant: 78.4, screening length: 8.12261 Bohr) occupying 0.362763 of unit cell:	Completed after 2 iterations at t[s]:   3015.01
	Linear fluid (dielectric constant: 78.4, screening length: 8.12261 Bohr) occupying 0.362765 of unit cell:	Completed after 2 iterations at t[s]:   3043.79
	FillingsUpdate:  mu: -0.171300000  nElectrons: 544.341726  magneticMoment: [ Abs: 0.00000  Tot: -0.00000 ]
	SubspaceRotationAdjust: set factor to 0.00776
ElecMinimize: Iter:  12  G: -2931.904238473693567  |grad|_K:  3.514e-08  alpha:  6.629e-01  linmin: -3.015e-05  t[s]:   3087.53
	Linear fluid (dielectric constant: 78.4, screening length: 8.12261 Bohr) occupying 0.362757 of unit cell:	Completed after 10 iterations at t[s]:   3128.28
	Linear fluid (dielectric constant: 78.4, screening length: 8.12261 Bohr) occupying 0.362759 of unit cell:	Completed after 6 iterations at t[s]:   3157.74
	FillingsUpdate:  mu: -0.171300000  nElectrons: 544.341035  magneticMoment: [ Abs: 0.00000  Tot: -0.00000 ]
	SubspaceRotationAdjust: set factor to 0.00689
ElecMinimize: Iter:  13  G: -2931.904238749531487  |grad|_K:  4.571e-08  alpha:  5.246e-01  linmin:  2.674e-04  t[s]:   3200.64
	Linear fluid (dielectric constant: 78.4, screening length: 8.12261 Bohr) occupying 0.362772 of unit cell:	Completed after 10 iterations at t[s]:   3241.44
	Linear fluid (dielectric constant: 78.4, screening length: 8.12261 Bohr) occupying 0.362770 of unit cell:	Completed after 3 iterations at t[s]:   3270.22
	FillingsUpdate:  mu: -0.171300000  nElectrons: 544.341469  magneticMoment: [ Abs: 0.00000  Tot: -0.00000 ]
	SubspaceRotationAdjust: set factor to 0.0059
ElecMinimize: Iter:  14  G: -2931.904239119143313  |grad|_K:  4.212e-08  alpha:  4.182e-01  linmin:  5.911e-04  t[s]:   3313.20
	Linear fluid (dielectric constant: 78.4, screening length: 8.12261 Bohr) occupying 0.362770 of unit cell:	Completed after 2 iterations at t[s]:   3353.02
	Linear fluid (dielectric constant: 78.4, screening length: 8.12261 Bohr) occupying 0.362770 of unit cell:	Completed after 2 iterations at t[s]:   3381.78
	FillingsUpdate:  mu: -0.171300000  nElectrons: 544.341370  magneticMoment: [ Abs: 0.00000  Tot: -0.00000 ]
	SubspaceRotationAdjust: set factor to 0.00655
ElecMinimize: Iter:  15  G: -2931.904239661191696  |grad|_K:  4.180e-08  alpha:  7.245e-01  linmin: -4.104e-04  t[s]:   3424.47
	Linear fluid (dielectric constant: 78.4, screening length: 8.12261 Bohr) occupying 0.362761 of unit cell:	Completed after 10 iterations at t[s]:   3465.20
	Linear fluid (dielectric constant: 78.4, screening length: 8.12261 Bohr) occupying 0.362762 of unit cell:	Completed after 3 iterations at t[s]:   3494.21
	FillingsUpdate:  mu: -0.171300000  nElectrons: 544.340967  magneticMoment: [ Abs: 0.00000  Tot: -0.00000 ]
	SubspaceRotationAdjust: set factor to 0.00612
ElecMinimize: Iter:  16  G: -2931.904240107064197  |grad|_K:  4.864e-08  alpha:  5.972e-01  linmin: -1.316e-04  t[s]:   3537.03
	Linear fluid (dielectric constant: 78.4, screening length: 8.12261 Bohr) occupying 0.362779 of unit cell:	Completed after 11 iterations at t[s]:   3577.86
	Linear fluid (dielectric constant: 78.4, screening length: 8.12261 Bohr) occupying 0.362771 of unit cell:	Completed after 11 iterations at t[s]:   3607.91
	FillingsUpdate:  mu: -0.171300000  nElectrons: 544.341668  magneticMoment: [ Abs: 0.00000  Tot: -0.00000 ]
	SubspaceRotationAdjust: set factor to 0.00477
ElecMinimize: Iter:  17  G: -2931.904240413510706  |grad|_K:  3.736e-08  alpha:  3.136e-01  linmin: -4.452e-05  t[s]:   3650.91
	Linear fluid (dielectric constant: 78.4, screening length: 8.12261 Bohr) occupying 0.362770 of unit cell:	Completed after 2 iterations at t[s]:   3690.67
	Linear fluid (dielectric constant: 78.4, screening length: 8.12261 Bohr) occupying 0.362769 of unit cell:	Completed after 2 iterations at t[s]:   3719.59
	FillingsUpdate:  mu: -0.171300000  nElectrons: 544.341780  magneticMoment: [ Abs: 0.00000  Tot: -0.00000 ]
	SubspaceRotationAdjust: set factor to 0.00594
ElecMinimize: Iter:  18  G: -2931.904240720771668  |grad|_K:  3.080e-08  alpha:  5.184e-01  linmin:  9.554e-05  t[s]:   3762.36
	Linear fluid (dielectric constant: 78.4, screening length: 8.12261 Bohr) occupying 0.362761 of unit cell:	Completed after 9 iterations at t[s]:   3803.31
	Linear fluid (dielectric constant: 78.4, screening length: 8.12261 Bohr) occupying 0.362763 of unit cell:	Completed after 2 iterations at t[s]:   3832.00
	FillingsUpdate:  mu: -0.171300000  nElectrons: 544.341521  magneticMoment: [ Abs: 0.00000  Tot: -0.00000 ]
	SubspaceRotationAdjust: set factor to 0.00534
ElecMinimize: Iter:  19  G: -2931.904240891128211  |grad|_K:  2.925e-08  alpha:  4.226e-01  linmin:  8.114e-04  t[s]:   3874.77
	Linear fluid (dielectric constant: 78.4, screening length: 8.12261 Bohr) occupying 0.362767 of unit cell:	Completed after 10 iterations at t[s]:   3915.39
	Linear fluid (dielectric constant: 78.4, screening length: 8.12261 Bohr) occupying 0.362766 of unit cell:	Completed after 2 iterations at t[s]:   3944.19
	FillingsUpdate:  mu: -0.171300000  nElectrons: 544.341862  magneticMoment: [ Abs: 0.00000  Tot: -0.00000 ]
	SubspaceRotationAdjust: set factor to 0.00486
ElecMinimize: Iter:  20  G: -2931.904241011415706  |grad|_K:  2.258e-08  alpha:  3.405e-01  linmin:  1.714e-04  t[s]:   3987.15
	Linear fluid (dielectric constant: 78.4, screening length: 8.12261 Bohr) occupying 0.362765 of unit cell:	Completed after 2 iterations at t[s]:   4027.08
	Linear fluid (dielectric constant: 78.4, screening length: 8.12261 Bohr) occupying 0.362765 of unit cell:	Completed after 1 iterations at t[s]:   4055.86
	FillingsUpdate:  mu: -0.171300000  nElectrons: 544.341872  magneticMoment: [ Abs: 0.00000  Tot: -0.00000 ]
	SubspaceRotationAdjust: set factor to 0.00622
ElecMinimize: Iter:  21  G: -2931.904241137291592  |grad|_K:  2.034e-08  alpha:  5.715e-01  linmin: -1.644e-03  t[s]:   4098.79
	Linear fluid (dielectric constant: 78.4, screening length: 8.12261 Bohr) occupying 0.362761 of unit cell:	Completed after 9 iterations at t[s]:   4139.60
	Linear fluid (dielectric constant: 78.4, screening length: 8.12261 Bohr) occupying 0.362761 of unit cell:	Completed after 0 iterations at t[s]:   4167.88
	FillingsUpdate:  mu: -0.171300000  nElectrons: 544.341653  magneticMoment: [ Abs: 0.00000  Tot: -0.00000 ]
	SubspaceRotationAdjust: set factor to 0.0062
ElecMinimize: Iter:  22  G: -2931.904241237819861  |grad|_K:  2.447e-08  alpha:  5.533e-01  linmin: -9.972e-04  t[s]:   4210.70
	Linear fluid (dielectric constant: 78.4, screening length: 8.12261 Bohr) occupying 0.362767 of unit cell:	Completed after 10 iterations at t[s]:   4251.85
	Linear fluid (dielectric constant: 78.4, screening length: 8.12261 Bohr) occupying 0.362766 of unit cell:	Completed after 2 iterations at t[s]:   4280.58
	FillingsUpdate:  mu: -0.171300000  nElectrons: 544.341979  magneticMoment: [ Abs: 0.00000  Tot: -0.00000 ]
	SubspaceRotationAdjust: set factor to 0.00556
ElecMinimize: Iter:  23  G: -2931.904241352192457  |grad|_K:  2.546e-08  alpha:  4.345e-01  linmin:  9.416e-04  t[s]:   4323.51
	Linear fluid (dielectric constant: 78.4, screening length: 8.12261 Bohr) occupying 0.362765 of unit cell:	Completed after 3 iterations at t[s]:   4363.14
	Linear fluid (dielectric constant: 78.4, screening length: 8.12261 Bohr) occupying 0.362765 of unit cell:	Completed after 0 iterations at t[s]:   4391.57
	FillingsUpdate:  mu: -0.171300000  nElectrons: 544.341906  magneticMoment: [ Abs: 0.00000  Tot: -0.00000 ]
	SubspaceRotationAdjust: set factor to 0.00652
ElecMinimize: Iter:  24  G: -2931.904241549415474  |grad|_K:  2.923e-08  alpha:  7.277e-01  linmin: -7.265e-04  t[s]:   4434.49
	Linear fluid (dielectric constant: 78.4, screening length: 8.12261 Bohr) occupying 0.362758 of unit cell:	Completed after 10 iterations at t[s]:   4475.57
	Linear fluid (dielectric constant: 78.4, screening length: 8.12261 Bohr) occupying 0.362760 of unit cell:	Completed after 5 iterations at t[s]:   4505.14
	FillingsUpdate:  mu: -0.171300000  nElectrons: 544.341540  magneticMoment: [ Abs: 0.00000  Tot: -0.00000 ]
	SubspaceRotationAdjust: set factor to 0.00604
ElecMinimize: Iter:  25  G: -2931.904241725053907  |grad|_K:  3.975e-08  alpha:  4.945e-01  linmin: -2.764e-04  t[s]:   4548.52
	Linear fluid (dielectric constant: 78.4, screening length: 8.12261 Bohr) occupying 0.362771 of unit cell:	Completed after 10 iterations at t[s]:   4589.24
	Linear fluid (dielectric constant: 78.4, screening length: 8.12261 Bohr) occupying 0.362769 of unit cell:	Completed after 3 iterations at t[s]:   4618.02
	FillingsUpdate:  mu: -0.171300000  nElectrons: 544.341977  magneticMoment: [ Abs: 0.00000  Tot: -0.00000 ]
	SubspaceRotationAdjust: set factor to 0.0055
ElecMinimize: Iter:  26  G: -2931.904241979679227  |grad|_K:  3.685e-08  alpha:  3.753e-01  linmin:  2.871e-04  t[s]:   4661.02
	Linear fluid (dielectric constant: 78.4, screening length: 8.12261 Bohr) occupying 0.362773 of unit cell:	Completed after 3 iterations at t[s]:   4700.82
	Linear fluid (dielectric constant: 78.4, screening length: 8.12261 Bohr) occupying 0.362775 of unit cell:	Completed after 3 iterations at t[s]:   4729.75
	FillingsUpdate:  mu: -0.171300000  nElectrons: 544.342180  magneticMoment: [ Abs: 0.00000  Tot: -0.00000 ]
	SubspaceRotationAdjust: set factor to 0.00607
ElecMinimize: Iter:  27  G: -2931.904242310921290  |grad|_K:  3.572e-08  alpha:  5.846e-01  linmin:  1.727e-04  t[s]:   4772.77
	Linear fluid (dielectric constant: 78.4, screening length: 8.12261 Bohr) occupying 0.362771 of unit cell:	Completed after 10 iterations at t[s]:   4813.58
	Linear fluid (dielectric constant: 78.4, screening length: 8.12261 Bohr) occupying 0.362772 of unit cell:	Completed after 0 iterations at t[s]:   4841.81
	FillingsUpdate:  mu: -0.171300000  nElectrons: 544.341785  magneticMoment: [ Abs: 0.00000  Tot: -0.00000 ]
	SubspaceRotationAdjust: set factor to 0.00526
ElecMinimize: Iter:  28  G: -2931.904242587278532  |grad|_K:  3.660e-08  alpha:  5.050e-01  linmin:  1.473e-03  t[s]:   4884.82
	Linear fluid (dielectric constant: 78.4, screening length: 8.12261 Bohr) occupying 0.362781 of unit cell:	Completed after 10 iterations at t[s]:   4925.82
	Linear fluid (dielectric constant: 78.4, screening length: 8.12261 Bohr) occupying 0.362779 of unit cell:	Completed after 3 iterations at t[s]:   4955.01
	FillingsUpdate:  mu: -0.171300000  nElectrons: 544.342093  magneticMoment: [ Abs: 0.00000  Tot: -0.00000 ]
	SubspaceRotationAdjust: set factor to 0.00418
ElecMinimize: Iter:  29  G: -2931.904242767062442  |grad|_K:  2.716e-08  alpha:  3.546e-01  linmin:  2.647e-05  t[s]:   4998.19
	Linear fluid (dielectric constant: 78.4, screening length: 8.12261 Bohr) occupying 0.362777 of unit cell:	Completed after 6 iterations at t[s]:   5038.47
	Linear fluid (dielectric constant: 78.4, screening length: 8.12261 Bohr) occupying 0.362777 of unit cell:	Completed after 0 iterations at t[s]:   5066.72
	FillingsUpdate:  mu: -0.171300000  nElectrons: 544.341872  magneticMoment: [ Abs: 0.00000  Tot: -0.00000 ]
	SubspaceRotationAdjust: set factor to 0.0048
ElecMinimize: Iter:  30  G: -2931.904242916961266  |grad|_K:  1.848e-08  alpha:  4.652e-01  linmin: -3.077e-03  t[s]:   5109.69
	Linear fluid (dielectric constant: 78.4, screening length: 8.12261 Bohr) occupying 0.362775 of unit cell:	Completed after 6 iterations at t[s]:   5150.56
	Linear fluid (dielectric constant: 78.4, screening length: 8.12261 Bohr) occupying 0.362775 of unit cell:	Completed after 0 iterations at t[s]:   5178.81
	FillingsUpdate:  mu: -0.171300000  nElectrons: 544.341714  magneticMoment: [ Abs: 0.00000  Tot: -0.00000 ]
	SubspaceRotationAdjust: set factor to 0.00547
ElecMinimize: Iter:  31  G: -2931.904243005683838  |grad|_K:  1.588e-08  alpha:  5.561e-01  linmin: -2.785e-03  t[s]:   5221.77
	Linear fluid (dielectric constant: 78.4, screening length: 8.12261 Bohr) occupying 0.362776 of unit cell:	Completed after 4 iterations at t[s]:   5261.69
	Linear fluid (dielectric constant: 78.4, screening length: 8.12261 Bohr) occupying 0.362776 of unit cell:	Completed after 0 iterations at t[s]:   5289.82
	FillingsUpdate:  mu: -0.171300000  nElectrons: 544.341819  magneticMoment: [ Abs: 0.00000  Tot: -0.00000 ]
	SubspaceRotationAdjust: set factor to 0.00616
ElecMinimize: Iter:  32  G: -2931.904243068985579  |grad|_K:  1.459e-08  alpha:  5.518e-01  linmin:  3.079e-04  t[s]:   5332.86
ElecMinimize: Converged (|Delta G|<1.000000e-07 for 2 iters).
Setting wave functions to eigenvectors of Hamiltonian
Converging empty states (this may take a while): |deigs|: 1.017e-05

Computing DFT-D3 correction:
# coordination-number Pt 7.097 9.374 5.907 7.143 9.399 9.521 9.579 9.239 9.556 9.570 9.546 9.380 9.585 9.552 9.326 7.142 7.519 9.327 9.555 7.520 9.378 9.544 9.570 9.236 9.578 9.584 9.521 9.400 7.144 9.557 9.374 7.098 7.142 5.905
# diagonal-C6 Pt 336.87 336.87 336.87 336.87 336.87 336.87 336.87 336.87 336.87 336.87 336.87 336.87 336.87 336.87 336.87 336.87 336.87 336.87 336.87 336.87 336.87 336.87 336.87 336.87 336.87 336.87 336.87 336.87 336.87 336.87 336.87 336.87 336.87 336.87
EvdW_6 =   -0.316069
EvdW_8 =   -0.498939

# Ionic positions in cartesian coordinates:
ion Pt  -0.000336191900890  12.515256429101679   1.381482980249688 1
ion Pt   5.231741339041180  16.620028571825809   5.096012465167871 1
ion Pt   5.232270437058135  21.832123376069283  29.790396316152929 1
ion Pt   5.231567258333974   3.829293509879706   2.926342386987533 1
ion Pt   5.231638703897473   7.601044442393180   6.756739538242976 1
ion Pt   5.231832531328735  11.430862542634671  10.365733675185544 1
ion Pt   0.000082747208045  18.992871163291547  17.488446917736603 1
ion Pt   5.231677955341015  20.435544520572439   8.469699291119850 1
ion Pt   5.231843880472129   2.540177532858238  12.079035401621320 1
ion Pt   5.232088999438238   6.331741850179638  15.686545904934810 1
ion Pt   0.000165523730103  10.184997537823696  19.276034359139008 1
ion Pt   0.000409207384233  13.950226416147816  23.008087542960400 1
ion Pt   5.231831543382532  15.254872489206287  13.920481415443147 1
ion Pt   5.232252796843410   1.177928232749457  21.028433658526470 1
ion Pt   0.000307849510754   5.065024553207448  24.566769047758978 1
ion Pt   0.000379069285485   8.942251976472196  28.332272322390061 1
ion Pt   5.232318703289370  17.666987188950070  26.872505148342768 1
ion Pt   2.615767526604830  12.064558170415651   5.940593884359897 1
ion Pt   2.615765808461886  15.953482627471857   9.478296434400498 1
ion Pt   2.615639900723574  21.035772547525628   3.636772003004254 1
ion Pt   2.615498338003008   3.179914891573347   7.500078992858899 1
ion Pt   2.615874843475381   6.946882608148714  11.231257886084601 1
ion Pt   2.615967118186419  10.800001251407600  14.820994917424020 1
ion Pt   2.616334847279013  18.265922525890971  22.038001038077461 1
ion Pt   2.615828433656359  19.710236947343301  13.019534094728787 1
ion Pt   2.616131453049414   1.877227151851651  16.587306460720001 1
ion Pt   2.616228278192716   5.701890899742907  20.141397643882311 1
ion Pt   2.616370889340523   9.530333599022903  23.750642487708788 1
ion Pt   2.616457096053940  13.300956207584596  27.580655572076029 1
ion Pt   2.616140989936960  14.591636134534431  18.428401730054670 1
ion Pt   2.616275424492692   0.509918151465973  25.411603807737453 1
ion Pt   2.616297635283488   4.614495025773436  29.125970638668736 1
ion Pt   2.615544014499203   8.187291722674901   2.174749365208859 1
ion Pt   2.615727049116662  16.869445204209153   0.716423671044842 1

# Forces in Cartesian coordinates:
force Pt  -0.000000591633243  -0.000203425351545  -0.000080822063617 1
force Pt  -0.000001351208882  -0.000751129733302   0.000343961343835 1
force Pt   0.000001959617735   0.000239976746229   0.000363236718400 1
force Pt  -0.000004222579445  -0.000643655221491  -0.000303075716989 1
force Pt  -0.000002497383242  -0.000292020309776   0.000649228239077 1
force Pt  -0.000000193821617   0.000308957549245   0.001794177633449 1
force Pt   0.000001186809731   0.000236781077293   0.000955390112454 1
force Pt  -0.000006376512347  -0.000248106708900   0.001052067851602 1
force Pt   0.000001383924161  -0.000166670098749  -0.001267400839443 1
force Pt  -0.000000332992577   0.000151816182847   0.000391627229228 1
force Pt  -0.000000259439105  -0.001034072651939   0.000670615116865 1
force Pt   0.000003044754510   0.000414824294694  -0.000520056095521 1
force Pt   0.000000997260758  -0.000309125925288  -0.000754452164470 1
force Pt   0.000001310481307  -0.000499831694691  -0.000425160556020 1
force Pt   0.000002575009307  -0.000124910271497   0.000116641615727 1
force Pt   0.000003764797424   0.000134800297871   0.000373128061352 1
force Pt   0.000004026147862  -0.000076228837321  -0.000049368601192 1
force Pt  -0.000004340529947   0.000178361012749  -0.000190843778460 1
force Pt  -0.000001189518634   0.000489233545440   0.000533828884550 1
force Pt  -0.000003034371889   0.000064776188349  -0.000070232123451 1
force Pt   0.000003784942662  -0.000409787171079   0.000451400992458 1
force Pt  -0.000000552524686   0.001059861458845  -0.000665018792671 1
force Pt  -0.000001259974740  -0.000152083882284  -0.000432365044572 1
force Pt   0.000001976990535   0.000345181369843  -0.000990689705076 1
force Pt  -0.000000304200912  -0.000211458555198  -0.000960491970714 1
force Pt  -0.000000728447315   0.000316377655174   0.000702276008444 1
force Pt   0.000001401521607  -0.000336675338684  -0.001714259502678 1
force Pt   0.000002921464347   0.000222479339883  -0.000642603364752 1
force Pt  -0.000000573530290   0.000631698425908   0.000364494615444 1
force Pt  -0.000001923910570   0.000120149206790   0.001301942982475 1
force Pt   0.000002233517233   0.000664593688733  -0.000548462261671 1
force Pt   0.000000386234700   0.000104401170347   0.000091509861965 1
force Pt  -0.000000234402369  -0.000188817760630  -0.000374561480955 1
force Pt  -0.000003491270644  -0.000257051055817  -0.000243072713213 1

# Energy components:
   A_diel =       -0.1570733063497985
   Eewald =    18273.5910818782031129
       EH =    21102.8687021266814554
     Eloc =   -42925.8767543128633406
      Enl =      -35.8620514950485045
     EvdW =       -0.8150081561448470
      Exc =     -967.4444763278046366
 Exc_core =      557.3069530931876443
       KE =      971.2712659949589806
  MuShift =       -0.0267916130157374
-------------------------------------
     Etot =    -3025.1441521181909593
       TS =        0.0058445638925754
-------------------------------------
        F =    -3025.1499966820833833
      muN =      -93.2457536130978895
-------------------------------------
        G =    -2931.9042430689855792


Dumping 'jdft.fillings' ... done
Dumping 'jdft.wfns' ... done
Dumping 'jdft.fluidState' ... done
Dumping 'jdft.ionpos' ... done
Dumping 'jdft.lattice' ... done
Dumping 'jdft.eigenvals' ... done
Dumping 'jdft.eigStats' ... 
	eMin: -2.122197 at state 23 ( [ +0.000000 +0.500000 +0.000000 ] spin -1 )
	HOMO: -0.171576 at state 3 ( [ +0.090909 +0.500000 +0.000000 ] spin 1 )
	mu  : -0.171300
	LUMO: -0.171149 at state 32 ( [ +0.454545 +0.000000 +0.000000 ] spin -1 )
	eMax: +0.129590 at state 8 ( [ +0.363636 +0.000000 +0.000000 ] spin 1 )
	HOMO-LUMO gap: +0.000427
	Optical gap  : +0.000733 at state 12 ( [ -0.454545 +0.000000 +0.000000 ] spin 1 )
Dumping 'jdft.Ecomponents' ... done
IonicMinimize: Iter:   1  G: -2931.904243068985579  |grad|_K:  4.918e-04  alpha:  1.000e+00  linmin: -9.894e-01  t[s]:   5665.09

#--- Lowdin population analysis ---
# oxidation-state Pt -0.041 -0.015 -0.007 -0.012 +0.016 +0.011 +0.014 +0.015 +0.016 +0.006 +0.012 +0.013 +0.007 +0.010 +0.005 -0.029 -0.022 +0.006 +0.010 -0.021 +0.014 +0.012 +0.006 +0.015 +0.014 +0.008 +0.011 +0.016 -0.013 +0.015 -0.015 -0.042 -0.029 -0.007
# magnetic-moments Pt -0.000 -0.000 -0.000 -0.000 -0.000 -0.000 -0.000 -0.000 -0.000 -0.000 -0.000 -0.000 -0.000 -0.000 -0.000 -0.000 -0.000 -0.000 -0.000 -0.000 -0.000 -0.000 -0.000 -0.000 -0.000 -0.000 -0.000 -0.000 -0.000 -0.000 -0.000 -0.000 -0.000 -0.000


Computing DFT-D3 correction:
# coordination-number Pt 7.091 9.362 5.895 7.134 9.381 9.532 9.580 9.255 9.551 9.581 9.555 9.387 9.582 9.570 9.305 7.124 7.504 9.305 9.570 7.504 9.386 9.553 9.581 9.255 9.581 9.582 9.534 9.383 7.133 9.552 9.361 7.089 7.124 5.897
# diagonal-C6 Pt 336.87 336.87 336.87 336.87 336.87 336.87 336.87 336.87 336.87 336.87 336.87 336.87 336.87 336.87 336.87 336.87 336.87 336.87 336.87 336.87 336.87 336.87 336.87 336.87 336.87 336.87 336.87 336.87 336.87 336.87 336.87 336.87 336.87 336.87
EvdW_6 =   -0.316104
EvdW_8 =   -0.498970
Shifting auxilliary hamiltonian by -0.000019 to set nElectrons=544.341819

-------- Electronic minimization -----------
	Linear fluid (dielectric constant: 78.4, screening length: 8.12261 Bohr) occupying 0.362547 of unit cell:	Completed after 17 iterations at t[s]:   5711.40
	FillingsUpdate:  mu: -0.171300000  nElectrons: 544.341819  magneticMoment: [ Abs: 0.00000  Tot: -0.00000 ]
ElecMinimize: Iter:   0  G: -2931.903819611492054  |grad|_K:  9.891e-07  alpha:  1.000e+00
	Linear fluid (dielectric constant: 78.4, screening length: 8.12261 Bohr) occupying 0.362812 of unit cell:	Completed after 21 iterations at t[s]:   5803.99
	Linear fluid (dielectric constant: 78.4, screening length: 8.12261 Bohr) occupying 0.362636 of unit cell:	Completed after 19 iterations at t[s]:   5835.21
	FillingsUpdate:  mu: -0.171300000  nElectrons: 544.347412  magneticMoment: [ Abs: 0.00000  Tot: -0.00000 ]
	SubspaceRotationAdjust: set factor to 0.00577
ElecMinimize: Iter:   1  G: -2931.903963313434815  |grad|_K:  4.441e-07  alpha:  3.451e-01  linmin:  9.941e-05  t[s]:   5878.23
	Linear fluid (dielectric constant: 78.4, screening length: 8.12261 Bohr) occupying 0.362556 of unit cell:	Completed after 14 iterations at t[s]:   5919.33
	Linear fluid (dielectric constant: 78.4, screening length: 8.12261 Bohr) occupying 0.362561 of unit cell:	Completed after 9 iterations at t[s]:   5949.28
	FillingsUpdate:  mu: -0.171300000  nElectrons: 544.342673  magneticMoment: [ Abs: 0.00000  Tot: -0.00000 ]
	SubspaceRotationAdjust: set factor to 0.00456
ElecMinimize: Iter:   2  G: -2931.903990607437663  |grad|_K:  2.864e-07  alpha:  3.251e-01  linmin: -8.744e-05  t[s]:   5991.84
	Linear fluid (dielectric constant: 78.4, screening length: 8.12261 Bohr) occupying 0.362596 of unit cell:	Completed after 14 iterations at t[s]:   6033.49
	Linear fluid (dielectric constant: 78.4, screening length: 8.12261 Bohr) occupying 0.362605 of unit cell:	Completed after 11 iterations at t[s]:   6064.44
	FillingsUpdate:  mu: -0.171300000  nElectrons: 544.345663  magneticMoment: [ Abs: 0.00000  Tot: -0.00000 ]
	SubspaceRotationAdjust: set factor to 0.00463
ElecMinimize: Iter:   3  G: -2931.904004858773988  |grad|_K:  1.870e-07  alpha:  4.082e-01  linmin:  1.508e-05  t[s]:   6107.51
	Linear fluid (dielectric constant: 78.4, screening length: 8.12261 Bohr) occupying 0.362600 of unit cell:	Completed after 11 iterations at t[s]:   6148.46
	Linear fluid (dielectric constant: 78.4, screening length: 8.12261 Bohr) occupying 0.362598 of unit cell:	Completed after 6 iterations at t[s]:   6177.67
	FillingsUpdate:  mu: -0.171300000  nElectrons: 544.345435  magneticMoment: [ Abs: 0.00000  Tot: -0.00000 ]
	SubspaceRotationAdjust: set factor to 0.00573
ElecMinimize: Iter:   4  G: -2931.904013941765243  |grad|_K:  1.649e-07  alpha:  6.105e-01  linmin: -5.037e-06  t[s]:   6220.66
	Linear fluid (dielectric constant: 78.4, screening length: 8.12261 Bohr) occupying 0.362577 of unit cell:	Completed after 12 iterations at t[s]:   6261.95
	Linear fluid (dielectric constant: 78.4, screening length: 8.12261 Bohr) occupying 0.362576 of unit cell:	Completed after 0 iterations at t[s]:   6290.44
	FillingsUpdate:  mu: -0.171300000  nElectrons: 544.344326  magneticMoment: [ Abs: 0.00000  Tot: -0.00000 ]
	SubspaceRotationAdjust: set factor to 0.0066
ElecMinimize: Iter:   5  G: -2931.904021254911640  |grad|_K:  1.632e-07  alpha:  6.313e-01  linmin: -6.547e-04  t[s]:   6333.00
	Linear fluid (dielectric constant: 78.4, screening length: 8.12261 Bohr) occupying 0.362599 of unit cell:	Completed after 11 iterations at t[s]:   6374.16
	Linear fluid (dielectric constant: 78.4, screening length: 8.12261 Bohr) occupying 0.362601 of unit cell:	Completed after 6 iterations at t[s]:   6403.59
	FillingsUpdate:  mu: -0.171300000  nElectrons: 544.346235  magneticMoment: [ Abs: 0.00000  Tot: -0.00000 ]
	SubspaceRotationAdjust: set factor to 0.00653
ElecMinimize: Iter:   6  G: -2931.904028976610334  |grad|_K:  2.042e-07  alpha:  6.781e-01  linmin:  1.648e-04  t[s]:   6446.38
	Linear fluid (dielectric constant: 78.4, screening length: 8.12261 Bohr) occupying 0.362533 of unit cell:	Completed after 13 iterations at t[s]:   6487.96
	Linear fluid (dielectric constant: 78.4, screening length: 8.12261 Bohr) occupying 0.362549 of unit cell:	Completed after 11 iterations at t[s]:   6518.27
	FillingsUpdate:  mu: -0.171300000  nElectrons: 544.343172  magneticMoment: [ Abs: 0.00000  Tot: -0.00000 ]
	SubspaceRotationAdjust: set factor to 0.00601
ElecMinimize: Iter:   7  G: -2931.904038041935110  |grad|_K:  2.031e-07  alpha:  5.115e-01  linmin:  7.253e-05  t[s]:   6561.40
	Linear fluid (dielectric constant: 78.4, screening length: 8.12261 Bohr) occupying 0.362558 of unit cell:	Completed after 12 iterations at t[s]:   6602.78
	Linear fluid (dielectric constant: 78.4, screening length: 8.12261 Bohr) occupying 0.362563 of unit cell:	Completed after 11 iterations at t[s]:   6633.07
	FillingsUpdate:  mu: -0.171300000  nElectrons: 544.343894  magneticMoment: [ Abs: 0.00000  Tot: -0.00000 ]
	SubspaceRotationAdjust: set factor to 0.00626
ElecMinimize: Iter:   8  G: -2931.904052294421035  |grad|_K:  2.223e-07  alpha:  8.131e-01  linmin:  3.918e-05  t[s]:   6675.97
	Linear fluid (dielectric constant: 78.4, screening length: 8.12261 Bohr) occupying 0.362566 of unit cell:	Completed after 8 iterations at t[s]:   6716.78
	Linear fluid (dielectric constant: 78.4, screening length: 8.12261 Bohr) occupying 0.362566 of unit cell:	Completed after 2 iterations at t[s]:   6745.88
	FillingsUpdate:  mu: -0.171300000  nElectrons: 544.343251  magneticMoment: [ Abs: 0.00000  Tot: -0.00000 ]
	SubspaceRotationAdjust: set factor to 0.00675
ElecMinimize: Iter:   9  G: -2931.904068953433125  |grad|_K:  2.159e-07  alpha:  7.925e-01  linmin:  3.513e-07  t[s]:   6788.73
	Linear fluid (dielectric constant: 78.4, screening length: 8.12261 Bohr) occupying 0.362558 of unit cell:	Completed after 13 iterations at t[s]:   6830.32
	Linear fluid (dielectric constant: 78.4, screening length: 8.12261 Bohr) occupying 0.362559 of unit cell:	Completed after 6 iterations at t[s]:   6859.78
	FillingsUpdate:  mu: -0.171300000  nElectrons: 544.341438  magneticMoment: [ Abs: 0.00000  Tot: -0.00000 ]
	SubspaceRotationAdjust: set factor to 0.0072
ElecMinimize: Iter:  10  G: -2931.904082862972700  |grad|_K:  2.071e-07  alpha:  7.009e-01  linmin:  2.838e-05  t[s]:   6902.76
	Linear fluid (dielectric constant: 78.4, screening length: 8.12261 Bohr) occupying 0.362640 of unit cell:	Completed after 14 iterations at t[s]:   6944.24
	Linear fluid (dielectric constant: 78.4, screening length: 8.12261 Bohr) occupying 0.362618 of unit cell:	Completed after 11 iterations at t[s]:   6975.30
	FillingsUpdate:  mu: -0.171300000  nElectrons: 544.344014  magneticMoment: [ Abs: 0.00000  Tot: -0.00000 ]
	SubspaceRotationAdjust: set factor to 0.00667
ElecMinimize: Iter:  11  G: -2931.904092100021899  |grad|_K:  2.207e-07  alpha:  5.075e-01  linmin: -4.699e-05  t[s]:   7018.29
	Linear fluid (dielectric constant: 78.4, screening length: 8.12261 Bohr) occupying 0.362585 of unit cell:	Completed after 13 iterations at t[s]:   7059.67
	Linear fluid (dielectric constant: 78.4, screening length: 8.12261 Bohr) occupying 0.362592 of unit cell:	Completed after 10 iterations at t[s]:   7089.50
	FillingsUpdate:  mu: -0.171300000  nElectrons: 544.341211  magneticMoment: [ Abs: 0.00000  Tot: -0.00000 ]
	SubspaceRotationAdjust: set factor to 0.00633
ElecMinimize: Iter:  12  G: -2931.904100534095505  |grad|_K:  1.832e-07  alpha:  4.060e-01  linmin:  1.859e-05  t[s]:   7132.50
	Linear fluid (dielectric constant: 78.4, screening length: 8.12261 Bohr) occupying 0.362612 of unit cell:	Completed after 11 iterations at t[s]:   7173.95
	Linear fluid (dielectric constant: 78.4, screening length: 8.12261 Bohr) occupying 0.362631 of unit cell:	Completed after 11 iterations at t[s]:   7204.14
	FillingsUpdate:  mu: -0.171300000  nElectrons: 544.342397  magneticMoment: [ Abs: 0.00000  Tot: -0.00000 ]
	SubspaceRotationAdjust: set factor to 0.00742
ElecMinimize: Iter:  13  G: -2931.904111635019035  |grad|_K:  1.929e-07  alpha:  7.770e-01  linmin: -9.762e-06  t[s]:   7246.87
	Linear fluid (dielectric constant: 78.4, screening length: 8.12261 Bohr) occupying 0.362657 of unit cell:	Completed after 9 iterations at t[s]:   7287.42
	Linear fluid (dielectric constant: 78.4, screening length: 8.12261 Bohr) occupying 0.362661 of unit cell:	Completed after 2 iterations at t[s]:   7316.39
	FillingsUpdate:  mu: -0.171300000  nElectrons: 544.343107  magneticMoment: [ Abs: 0.00000  Tot: -0.00000 ]
	SubspaceRotationAdjust: set factor to 0.00843
ElecMinimize: Iter:  14  G: -2931.904125667269000  |grad|_K:  2.307e-07  alpha:  8.860e-01  linmin: -1.189e-05  t[s]:   7359.08
	Linear fluid (dielectric constant: 78.4, screening length: 8.12261 Bohr) occupying 0.362651 of unit cell:	Completed after 11 iterations at t[s]:   7400.23
	Linear fluid (dielectric constant: 78.4, screening length: 8.12261 Bohr) occupying 0.362651 of unit cell:	Completed after 2 iterations at t[s]:   7429.34
	FillingsUpdate:  mu: -0.171300000  nElectrons: 544.341479  magneticMoment: [ Abs: 0.00000  Tot: -0.00000 ]
	SubspaceRotationAdjust: set factor to 0.00862
ElecMinimize: Iter:  15  G: -2931.904145256395623  |grad|_K:  3.174e-07  alpha:  8.643e-01  linmin:  7.432e-05  t[s]:   7472.42
	Linear fluid (dielectric constant: 78.4, screening length: 8.12261 Bohr) occupying 0.362846 of unit cell:	Completed after 15 iterations at t[s]:   7514.29
[...]
	SubspaceRotationAdjust: set factor to 0.00749
ElecMinimize: Iter:   8  G: -2931.904532074317103  |grad|_K:  4.107e-08  alpha:  5.002e-01  linmin:  1.320e-03  t[s]:  72402.21
	Linear fluid (dielectric constant: 78.4, screening length: 8.12261 Bohr) occupying 0.362847 of unit cell:	Completed after 11 iterations at t[s]:  72443.57
	Linear fluid (dielectric constant: 78.4, screening length: 8.12261 Bohr) occupying 0.362839 of unit cell:	Completed after 9 iterations at t[s]:  72473.69
	FillingsUpdate:  mu: -0.171300000  nElectrons: 544.343045  magneticMoment: [ Abs: 0.00000  Tot: -0.00000 ]
	SubspaceRotationAdjust: set factor to 0.00563
ElecMinimize: Iter:   9  G: -2931.904532249975091  |grad|_K:  3.106e-08  alpha:  2.608e-01  linmin:  2.448e-04  t[s]:  72516.63
	Linear fluid (dielectric constant: 78.4, screening length: 8.12261 Bohr) occupying 0.362836 of unit cell:	Completed after 2 iterations at t[s]:  72556.47
	Linear fluid (dielectric constant: 78.4, screening length: 8.12261 Bohr) occupying 0.362834 of unit cell:	Completed after 5 iterations at t[s]:  72585.69
	FillingsUpdate:  mu: -0.171300000  nElectrons: 544.343090  magneticMoment: [ Abs: 0.00000  Tot: -0.00000 ]
	SubspaceRotationAdjust: set factor to 0.00696
ElecMinimize: Iter:  10  G: -2931.904532455107983  |grad|_K:  2.342e-08  alpha:  5.135e-01  linmin:  3.373e-03  t[s]:  72628.44
	Linear fluid (dielectric constant: 78.4, screening length: 8.12261 Bohr) occupying 0.362829 of unit cell:	Completed after 7 iterations at t[s]:  72669.81
	Linear fluid (dielectric constant: 78.4, screening length: 8.12261 Bohr) occupying 0.362829 of unit cell:	Completed after 0 iterations at t[s]:  72698.12
	FillingsUpdate:  mu: -0.171300000  nElectrons: 544.343012  magneticMoment: [ Abs: 0.00000  Tot: -0.00000 ]
	SubspaceRotationAdjust: set factor to 0.00726
ElecMinimize: Iter:  11  G: -2931.904532579253555  |grad|_K:  2.266e-08  alpha:  5.432e-01  linmin: -2.868e-03  t[s]:  72741.06
	Linear fluid (dielectric constant: 78.4, screening length: 8.12261 Bohr) occupying 0.362834 of unit cell:	Completed after 9 iterations at t[s]:  72781.89
	Linear fluid (dielectric constant: 78.4, screening length: 8.12261 Bohr) occupying 0.362832 of unit cell:	Completed after 4 iterations at t[s]:  72811.20
	FillingsUpdate:  mu: -0.171300000  nElectrons: 544.343406  magneticMoment: [ Abs: 0.00000  Tot: -0.00000 ]
	SubspaceRotationAdjust: set factor to 0.00642
ElecMinimize: Iter:  12  G: -2931.904532670806020  |grad|_K:  2.466e-08  alpha:  3.991e-01  linmin:  2.658e-03  t[s]:  72854.48
	Linear fluid (dielectric constant: 78.4, screening length: 8.12261 Bohr) occupying 0.362829 of unit cell:	Completed after 6 iterations at t[s]:  72895.30
	Linear fluid (dielectric constant: 78.4, screening length: 8.12261 Bohr) occupying 0.362828 of unit cell:	Completed after 0 iterations at t[s]:  72923.79
	FillingsUpdate:  mu: -0.171300000  nElectrons: 544.343296  magneticMoment: [ Abs: 0.00000  Tot: -0.00000 ]
	SubspaceRotationAdjust: set factor to 0.00788
ElecMinimize: Iter:  13  G: -2931.904532803323491  |grad|_K:  2.201e-08  alpha:  5.252e-01  linmin: -3.926e-03  t[s]:  72966.98
	Linear fluid (dielectric constant: 78.4, screening length: 8.12261 Bohr) occupying 0.362823 of unit cell:	Completed after 9 iterations at t[s]:  73007.73
	Linear fluid (dielectric constant: 78.4, screening length: 8.12261 Bohr) occupying 0.362823 of unit cell:	Completed after 0 iterations at t[s]:  73036.30
	FillingsUpdate:  mu: -0.171300000  nElectrons: 544.343070  magneticMoment: [ Abs: 0.00000  Tot: -0.00000 ]
	SubspaceRotationAdjust: set factor to 0.00768
ElecMinimize: Iter:  14  G: -2931.904532932535858  |grad|_K:  3.050e-08  alpha:  5.815e-01  linmin: -3.402e-03  t[s]:  73079.42
	Linear fluid (dielectric constant: 78.4, screening length: 8.12261 Bohr) occupying 0.362833 of unit cell:	Completed after 11 iterations at t[s]:  73120.59
	Linear fluid (dielectric constant: 78.4, screening length: 8.12261 Bohr) occupying 0.362830 of unit cell:	Completed after 6 iterations at t[s]:  73150.03
	FillingsUpdate:  mu: -0.171300000  nElectrons: 544.343527  magneticMoment: [ Abs: 0.00000  Tot: -0.00000 ]
	SubspaceRotationAdjust: set factor to 0.00656
ElecMinimize: Iter:  15  G: -2931.904533108039686  |grad|_K:  3.318e-08  alpha:  3.945e-01  linmin:  7.377e-04  t[s]:  73193.25
	Linear fluid (dielectric constant: 78.4, screening length: 8.12261 Bohr) occupying 0.362829 of unit cell:	Completed after 2 iterations at t[s]:  73233.68
	Linear fluid (dielectric constant: 78.4, screening length: 8.12261 Bohr) occupying 0.362829 of unit cell:	Completed after 2 iterations at t[s]:  73262.87
	FillingsUpdate:  mu: -0.171300000  nElectrons: 544.343432  magneticMoment: [ Abs: 0.00000  Tot: -0.00000 ]
	SubspaceRotationAdjust: set factor to 0.00797
ElecMinimize: Iter:  16  G: -2931.904533416731738  |grad|_K:  3.845e-08  alpha:  6.734e-01  linmin: -2.382e-04  t[s]:  73305.82
	Linear fluid (dielectric constant: 78.4, screening length: 8.12261 Bohr) occupying 0.362815 of unit cell:	Completed after 10 iterations at t[s]:  73346.75
	Linear fluid (dielectric constant: 78.4, screening length: 8.12261 Bohr) occupying 0.362819 of unit cell:	Completed after 8 iterations at t[s]:  73376.54
	FillingsUpdate:  mu: -0.171300000  nElectrons: 544.342688  magneticMoment: [ Abs: 0.00000  Tot: -0.00000 ]
	SubspaceRotationAdjust: set factor to 0.00696
ElecMinimize: Iter:  17  G: -2931.904533715621710  |grad|_K:  4.866e-08  alpha:  4.721e-01  linmin:  7.118e-05  t[s]:  73419.52
	Linear fluid (dielectric constant: 78.4, screening length: 8.12261 Bohr) occupying 0.362827 of unit cell:	Completed after 10 iterations at t[s]:  73460.55
	Linear fluid (dielectric constant: 78.4, screening length: 8.12261 Bohr) occupying 0.362826 of unit cell:	Completed after 2 iterations at t[s]:  73489.81
	FillingsUpdate:  mu: -0.171300000  nElectrons: 544.342923  magneticMoment: [ Abs: 0.00000  Tot: -0.00000 ]
	SubspaceRotationAdjust: set factor to 0.00638
ElecMinimize: Iter:  18  G: -2931.904534132823301  |grad|_K:  4.294e-08  alpha:  4.154e-01  linmin:  2.722e-04  t[s]:  73533.05
	Linear fluid (dielectric constant: 78.4, screening length: 8.12261 Bohr) occupying 0.362827 of unit cell:	Completed after 2 iterations at t[s]:  73572.95
	Linear fluid (dielectric constant: 78.4, screening length: 8.12261 Bohr) occupying 0.362828 of unit cell:	Completed after 2 iterations at t[s]:  73601.97
	FillingsUpdate:  mu: -0.171300000  nElectrons: 544.342743  magneticMoment: [ Abs: 0.00000  Tot: -0.00000 ]
	SubspaceRotationAdjust: set factor to 0.007
ElecMinimize: Iter:  19  G: -2931.904534637113102  |grad|_K:  4.135e-08  alpha:  6.547e-01  linmin:  1.254e-04  t[s]:  73644.95
	Linear fluid (dielectric constant: 78.4, screening length: 8.12261 Bohr) occupying 0.362820 of unit cell:	Completed after 10 iterations at t[s]:  73686.14
	Linear fluid (dielectric constant: 78.4, screening length: 8.12261 Bohr) occupying 0.362821 of unit cell:	Completed after 2 iterations at t[s]:  73715.23
	FillingsUpdate:  mu: -0.171300000  nElectrons: 544.342118  magneticMoment: [ Abs: 0.00000  Tot: -0.00000 ]
	SubspaceRotationAdjust: set factor to 0.00645
ElecMinimize: Iter:  20  G: -2931.904535027395468  |grad|_K:  4.375e-08  alpha:  5.357e-01  linmin:  4.754e-04  t[s]:  73758.08
	Linear fluid (dielectric constant: 78.4, screening length: 8.12261 Bohr) occupying 0.362835 of unit cell:	Completed after 10 iterations at t[s]:  73799.05
	Linear fluid (dielectric constant: 78.4, screening length: 8.12261 Bohr) occupying 0.362830 of unit cell:	Completed after 8 iterations at t[s]:  73828.95
	FillingsUpdate:  mu: -0.171300000  nElectrons: 544.342514  magneticMoment: [ Abs: 0.00000  Tot: -0.00000 ]
	SubspaceRotationAdjust: set factor to 0.00525
ElecMinimize: Iter:  21  G: -2931.904535283133100  |grad|_K:  3.497e-08  alpha:  3.321e-01  linmin: -1.189e-04  t[s]:  73871.93
	Linear fluid (dielectric constant: 78.4, screening length: 8.12261 Bohr) occupying 0.362828 of unit cell:	Completed after 6 iterations at t[s]:  73912.51
	Linear fluid (dielectric constant: 78.4, screening length: 8.12261 Bohr) occupying 0.362827 of unit cell:	Completed after 2 iterations at t[s]:  73941.58
	FillingsUpdate:  mu: -0.171300000  nElectrons: 544.342273  magneticMoment: [ Abs: 0.00000  Tot: -0.00000 ]
	SubspaceRotationAdjust: set factor to 0.0065
ElecMinimize: Iter:  22  G: -2931.904535563978243  |grad|_K:  2.753e-08  alpha:  5.345e-01  linmin: -4.239e-04  t[s]:  73984.63
	Linear fluid (dielectric constant: 78.4, screening length: 8.12261 Bohr) occupying 0.362823 of unit cell:	Completed after 8 iterations at t[s]:  74025.41
	Linear fluid (dielectric constant: 78.4, screening length: 8.12261 Bohr) occupying 0.362823 of unit cell:	Completed after 0 iterations at t[s]:  74054.38
	FillingsUpdate:  mu: -0.171300000  nElectrons: 544.342001  magneticMoment: [ Abs: 0.00000  Tot: -0.00000 ]
	SubspaceRotationAdjust: set factor to 0.00634
ElecMinimize: Iter:  23  G: -2931.904535713139467  |grad|_K:  2.954e-08  alpha:  4.587e-01  linmin: -1.199e-04  t[s]:  74097.44
	Linear fluid (dielectric constant: 78.4, screening length: 8.12261 Bohr) occupying 0.362831 of unit cell:	Completed after 10 iterations at t[s]:  74138.64
	Linear fluid (dielectric constant: 78.4, screening length: 8.12261 Bohr) occupying 0.362828 of unit cell:	Completed after 5 iterations at t[s]:  74168.85
	FillingsUpdate:  mu: -0.171300000  nElectrons: 544.342305  magneticMoment: [ Abs: 0.00000  Tot: -0.00000 ]
	SubspaceRotationAdjust: set factor to 0.00566
ElecMinimize: Iter:  24  G: -2931.904535812909671  |grad|_K:  2.306e-08  alpha:  2.764e-01  linmin:  1.088e-04  t[s]:  74211.99
	Linear fluid (dielectric constant: 78.4, screening length: 8.12261 Bohr) occupying 0.362828 of unit cell:	Completed after 2 iterations at t[s]:  74251.95
	Linear fluid (dielectric constant: 78.4, screening length: 8.12261 Bohr) occupying 0.362828 of unit cell:	Completed after 0 iterations at t[s]:  74280.61
	FillingsUpdate:  mu: -0.171300000  nElectrons: 544.342365  magneticMoment: [ Abs: 0.00000  Tot: -0.00000 ]
	SubspaceRotationAdjust: set factor to 0.00746
ElecMinimize: Iter:  25  G: -2931.904535928488713  |grad|_K:  2.041e-08  alpha:  4.987e-01  linmin: -1.362e-03  t[s]:  74323.48
	Linear fluid (dielectric constant: 78.4, screening length: 8.12261 Bohr) occupying 0.362825 of unit cell:	Completed after 9 iterations at t[s]:  74364.47
	Linear fluid (dielectric constant: 78.4, screening length: 8.12261 Bohr) occupying 0.362825 of unit cell:	Completed after 2 iterations at t[s]:  74393.44
	FillingsUpdate:  mu: -0.171300000  nElectrons: 544.342212  magneticMoment: [ Abs: 0.00000  Tot: -0.00000 ]
	SubspaceRotationAdjust: set factor to 0.00703
ElecMinimize: Iter:  26  G: -2931.904536002520672  |grad|_K:  2.401e-08  alpha:  4.072e-01  linmin:  3.803e-04  t[s]:  74436.50
	Linear fluid (dielectric constant: 78.4, screening length: 8.12261 Bohr) occupying 0.362831 of unit cell:	Completed after 8 iterations at t[s]:  74477.33
	Linear fluid (dielectric constant: 78.4, screening length: 8.12261 Bohr) occupying 0.362830 of unit cell:	Completed after 0 iterations at t[s]:  74505.70
	FillingsUpdate:  mu: -0.171300000  nElectrons: 544.342604  magneticMoment: [ Abs: 0.00000  Tot: -0.00000 ]
	SubspaceRotationAdjust: set factor to 0.00661
ElecMinimize: Iter:  27  G: -2931.904536087595261  |grad|_K:  1.986e-08  alpha:  3.531e-01  linmin:  7.288e-04  t[s]:  74548.84
ElecMinimize: Converged (|Delta G|<1.000000e-07 for 2 iters).
Setting wave functions to eigenvectors of Hamiltonian
Converging empty states (this may take a while): |deigs|: 3.847e-08

Computing DFT-D3 correction:
# coordination-number Pt 7.088 9.382 5.909 7.123 9.382 9.529 9.574 9.254 9.546 9.572 9.546 9.376 9.578 9.572 9.310 7.126 7.522 9.311 9.574 7.520 9.375 9.545 9.572 9.254 9.574 9.577 9.529 9.382 7.123 9.547 9.382 7.088 7.128 5.910
# diagonal-C6 Pt 336.87 336.87 336.87 336.87 336.87 336.87 336.87 336.87 336.87 336.87 336.87 336.87 336.87 336.87 336.87 336.87 336.87 336.87 336.87 336.87 336.87 336.87 336.87 336.87 336.87 336.87 336.87 336.87 336.87 336.87 336.87 336.87 336.87 336.87
EvdW_6 =   -0.316099
EvdW_8 =   -0.498881

# Ionic positions in cartesian coordinates:
ion Pt  -0.001001499813515  12.444860596405691   1.388562293379107 1
ion Pt   5.231103204187799  16.562285863339728   5.112712796089488 1
ion Pt   5.232930964273553  21.903691600624132  29.779168215895290 1
ion Pt   5.230812840491597   3.756248160869139   2.906031609425408 1
ion Pt   5.231280530672022   7.571770003719142   6.749435644157010 1
ion Pt   5.231534812658057  11.435084297373939  10.396483378644440 1
ion Pt   0.000278496268393  18.996269425540476  17.491354496219024 1
ion Pt   5.231201996186766  20.404146263913358   8.470586278757915 1
ion Pt   5.231851255979161   2.544393216897496  12.041947559423635 1
ion Pt   5.232169504929787   6.333733599618402  15.659854738613971 1
ion Pt   0.000301444066487  10.171304413886610  19.299126239015909 1
ion Pt   0.000813669712149  13.982540452231095  23.028933534131923 1
ion Pt   5.231700234083954  15.252922563263963  13.946948220988732 1
ion Pt   5.232693508236963   1.193154672295226  21.007219562402828 1
ion Pt   0.000815892737021   5.101661923685101  24.551780262035589 1
ion Pt   0.001024886158529   9.009994944918391  28.337344176314954 1
ion Pt   5.233021213719751  17.732453251339923  26.873520255627032 1
ion Pt   2.615235446425987  12.027428743878463   5.955946060649801 1
ion Pt   2.615324115401082  15.939234223407794   9.500562449474510 1
ion Pt   2.614826462091133  20.967953588564402   3.633108072302055 1
ion Pt   2.615231718823904   3.147293594199557   7.478064898382579 1
ion Pt   2.615732978573784   6.961727138406569  11.207946818780165 1
ion Pt   2.615871339659516  10.800333182693336  14.847333115673402 1
ion Pt   2.616756614922592  18.298293870147106  22.036456898041784 1
ion Pt   2.615742853699713  19.709678422339067  13.016472889447753 1
ion Pt   2.616347967863647   1.881951989751747  16.560864143339234 1
ion Pt   2.616544613860448   5.698710120056823  20.111288328182322 1
ion Pt   2.616793895426663   9.558708056912119  23.758345549115059 1
ion Pt   2.617043181085354  13.372528069614059  27.601410732297886 1
ion Pt   2.616214340523889  14.589110162856702  18.465011591007098 1
ion Pt   2.616872173990056   0.565962125514516  25.395132990156615 1
ion Pt   2.616954769472413   4.682677729197067  29.119068723236552 1
ion Pt   2.614927845417397   8.118070488116254   2.170631650997789 1
ion Pt   2.614968728213941  16.795021244422792   0.729044827793208 1

# Forces in Cartesian coordinates:
force Pt  -0.000001396045132  -0.000028326837492  -0.000082341855586 1
force Pt  -0.000002096541205  -0.000137493524369  -0.000059367449427 1
force Pt   0.000000625856325   0.000041782212582   0.000119786078962 1
force Pt  -0.000001673179983  -0.000207804763073  -0.000124584517073 1
force Pt  -0.000001041165529  -0.000032207114710  -0.000029918810314 1
force Pt  -0.000000795147383  -0.000096561122808   0.000160727910723 1
force Pt   0.000000000043192   0.000080672657720   0.000170629166085 1
force Pt   0.000000930647812  -0.000086324162258   0.000090135331576 1
force Pt  -0.000000759228082  -0.000052267617520   0.000044605592734 1
force Pt   0.000000102706828   0.000009457275397   0.000201080416437 1
force Pt   0.000001272592414   0.000138063768332  -0.000197888508254 1
force Pt   0.000000315748327   0.000059236988361  -0.000133841615052 1
force Pt  -0.000000494402857  -0.000099973497776   0.000121111843594 1
force Pt   0.000001126106163   0.000016241071828  -0.000221501443369 1
force Pt   0.000000172777320   0.000042668478716   0.000048452985758 1
force Pt  -0.000000238571266   0.000164996902306   0.000043270775195 1
force Pt   0.000000660309171   0.000067154092242  -0.000020808839801 1
force Pt  -0.000000769599559  -0.000036350251012  -0.000088438246245 1
force Pt  -0.000000621827689  -0.000047860750401   0.000251612959465 1
force Pt  -0.000001922808421  -0.000086329994251  -0.000032669675982 1
force Pt  -0.000001721917080  -0.000057880691564   0.000139843008392 1
force Pt   0.000000412242259  -0.000126381187938   0.000273242903287 1
force Pt  -0.000000474122428  -0.000027165601823  -0.000108992330342 1
force Pt   0.000001114791161   0.000069712797920  -0.000059001444216 1
force Pt  -0.000000160796501  -0.000101612584920  -0.000095461260738 1
force Pt   0.000000793213509   0.000080492777773  -0.000041363293695 1
force Pt   0.000000234626327   0.000078793623833  -0.000117290978979 1
force Pt   0.000000286864560   0.000050438779949   0.000012612388505 1
force Pt   0.000002546965228   0.000224648438662   0.000060989540306 1
force Pt   0.000000945620557   0.000041703896520   0.000050017967531 1
force Pt   0.000000557730179   0.000127860035389   0.000009780189680 1
force Pt   0.000001011166578   0.000078320249309  -0.000019193146923 1
force Pt  -0.000002215155504  -0.000080373880402  -0.000102676823542 1
force Pt  -0.000000375110174  -0.000024241308330  -0.000272418520541 1

# Energy components:
   A_diel =       -0.1574334900886356
   Eewald =    18276.3390148163343838
       EH =    21105.5702007570034766
     Eloc =   -42931.3247617801316665
      Enl =      -35.8608558859807260
     EvdW =       -0.8149794543779671
      Exc =     -967.4442056540963222
 Exc_core =      557.3069514370619117
       KE =      971.2683600315715466
  MuShift =       -0.0268531614263905
-------------------------------------
     Etot =    -3025.1445623841291308
       TS =        0.0058618318624051
-------------------------------------
        F =    -3025.1504242159917339
      muN =      -93.2458881283964587
-------------------------------------
        G =    -2931.9045360875952611


Dumping 'jdft.fillings' ... done
Dumping 'jdft.wfns' ... done
Dumping 'jdft.fluidState' ... done
Dumping 'jdft.ionpos' ... done
Dumping 'jdft.lattice' ... done
Dumping 'jdft.eigenvals' ... done
Dumping 'jdft.eigStats' ... 
	eMin: -2.122125 at state 23 ( [ +0.000000 +0.500000 +0.000000 ] spin -1 )
	HOMO: -0.171437 at state 3 ( [ +0.090909 +0.500000 +0.000000 ] spin 1 )
	mu  : -0.171300
	LUMO: -0.171092 at state 30 ( [ +0.363636 +0.000000 +0.000000 ] spin -1 )
	eMax: +0.129527 at state 36 ( [ -0.363636 +0.000000 +0.000000 ] spin -1 )
	HOMO-LUMO gap: +0.000345
	Optical gap  : +0.000702 at state 36 ( [ -0.363636 +0.000000 +0.000000 ] spin -1 )
Dumping 'jdft.Ecomponents' ... done
IonicMinimize: Iter:  14  G: -2931.904536087595261  |grad|_K:  9.243e-05  alpha:  1.000e+00  linmin: -5.142e-01  t[s]:  74714.82
IonicMinimize: Converged (|grad|_K<1.000000e-04).

#--- Lowdin population analysis ---
# oxidation-state Pt -0.042 -0.015 -0.006 -0.016 +0.014 +0.012 +0.014 +0.019 +0.016 +0.009 +0.013 +0.011 +0.009 +0.013 +0.005 -0.030 -0.027 +0.006 +0.014 -0.026 +0.012 +0.015 +0.007 +0.018 +0.015 +0.011 +0.011 +0.014 -0.015 +0.013 -0.017 -0.043 -0.031 -0.004
# magnetic-moments Pt -0.000 -0.000 -0.000 -0.000 -0.000 -0.000 -0.000 -0.000 -0.000 -0.000 -0.000 -0.000 -0.000 -0.000 -0.000 -0.000 -0.000 -0.000 -0.000 -0.000 -0.000 -0.000 -0.000 -0.000 -0.000 -0.000 -0.000 -0.000 -0.000 -0.000 -0.000 -0.000 -0.000 -0.000


Dumping 'jdft.n_up' ... done
Dumping 'jdft.n_dn' ... done
Dumping 'jdft.tau_up' ... done
Dumping 'jdft.tau_dn' ... done
Dumping 'jdft.eigenvals' ... done
Dumping 'jdft.eigStats' ... 
	eMin: -2.122125 at state 23 ( [ +0.000000 +0.500000 +0.000000 ] spin -1 )
	HOMO: -0.171437 at state 3 ( [ +0.090909 +0.500000 +0.000000 ] spin 1 )
	mu  : -0.171300
	LUMO: -0.171092 at state 30 ( [ +0.363636 +0.000000 +0.000000 ] spin -1 )
	eMax: +0.129527 at state 36 ( [ -0.363636 +0.000000 +0.000000 ] spin -1 )
	HOMO-LUMO gap: +0.000345
	Optical gap  : +0.000702 at state 36 ( [ -0.363636 +0.000000 +0.000000 ] spin -1 )
Dumping 'jdft.kPts' ... done
Dumping 'jdft.dosUp' ... done.
Dumping 'jdft.dosDn' ... done.
End date and time: Fri Dec 10 02:32:49 2021  (Duration: 0-20:46:21.50)
Done!
