
*************** JDFTx 1.6.0  ***************

Start date and time: Mon Dec  6 17:16:39 2021
Executable /projects/musgravc/apps/jdftx-1.6.1/build/jdftx with command-line: -i in
Running on hosts (process indices):  shas0814.rc.int.colorado.edu (0-23)
Divided in process groups (process indices):  0 (0)  1 (1)  2 (2)  3 (3)  4 (4)  5 (5)  6 (6)  7 (7)  8 (8)  9 (9)  10 (10)  11 (11)  12 (12)  13 (13)  14 (14)  15 (15)  16 (16)  17 (17)  18 (18)  19 (19)  20 (20)  21 (21)  22 (22)  23 (23)
Resource initialization completed at t[s]:      0.00
Run totals: 24 processes, 24 threads, 0 GPUs


Input parsed successfully to the following command list (including defaults):

basis kpoint-dependent
converge-empty-states yes
coords-type Cartesian
core-overlap-check none
coulomb-interaction Periodic
davidson-band-ratio 1.1
density-of-states Etol 1.000000e-06 Esigma 1.000000e-03 \
		Complete \
	Total \
	OrthoOrbital Ag 1   s \
	OrthoOrbital Ag 1   p \
	OrthoOrbital Ag 1   px \
	OrthoOrbital Ag 1   py \
	OrthoOrbital Ag 1   pz \
	OrthoOrbital Ag 1   d \
	OrthoOrbital Ag 1   dxy \
	OrthoOrbital Ag 1   dyz \
	OrthoOrbital Ag 1   dz2 \
	OrthoOrbital Ag 1   dxz \
	OrthoOrbital Ag 1   dx2-y2 \
	OrthoOrbital Ag 2   s \
	OrthoOrbital Ag 2   p \
	OrthoOrbital Ag 2   px \
	OrthoOrbital Ag 2   py \
	OrthoOrbital Ag 2   pz \
	OrthoOrbital Ag 2   d \
	OrthoOrbital Ag 2   dxy \
	OrthoOrbital Ag 2   dyz \
	OrthoOrbital Ag 2   dz2 \
	OrthoOrbital Ag 2   dxz \
	OrthoOrbital Ag 2   dx2-y2 \
	OrthoOrbital Ag 3   s \
	OrthoOrbital Ag 3   p \
	OrthoOrbital Ag 3   px \
	OrthoOrbital Ag 3   py \
	OrthoOrbital Ag 3   pz \
	OrthoOrbital Ag 3   d \
	OrthoOrbital Ag 3   dxy \
	OrthoOrbital Ag 3   dyz \
	OrthoOrbital Ag 3   dz2 \
	OrthoOrbital Ag 3   dxz \
	OrthoOrbital Ag 3   dx2-y2 \
	OrthoOrbital Ag 4   s \
	OrthoOrbital Ag 4   p \
	OrthoOrbital Ag 4   px \
	OrthoOrbital Ag 4   py \
	OrthoOrbital Ag 4   pz \
	OrthoOrbital Ag 4   d \
	OrthoOrbital Ag 4   dxy \
	OrthoOrbital Ag 4   dyz \
	OrthoOrbital Ag 4   dz2 \
	OrthoOrbital Ag 4   dxz \
	OrthoOrbital Ag 4   dx2-y2 \
	OrthoOrbital Ag 5   s \
	OrthoOrbital Ag 5   p \
	OrthoOrbital Ag 5   px \
	OrthoOrbital Ag 5   py \
	OrthoOrbital Ag 5   pz \
	OrthoOrbital Ag 5   d \
	OrthoOrbital Ag 5   dxy \
	OrthoOrbital Ag 5   dyz \
	OrthoOrbital Ag 5   dz2 \
	OrthoOrbital Ag 5   dxz \
	OrthoOrbital Ag 5   dx2-y2 \
	OrthoOrbital Ag 6   s \
	OrthoOrbital Ag 6   p \
	OrthoOrbital Ag 6   px \
	OrthoOrbital Ag 6   py \
	OrthoOrbital Ag 6   pz \
	OrthoOrbital Ag 6   d \
	OrthoOrbital Ag 6   dxy \
	OrthoOrbital Ag 6   dyz \
	OrthoOrbital Ag 6   dz2 \
	OrthoOrbital Ag 6   dxz \
	OrthoOrbital Ag 6   dx2-y2 \
	OrthoOrbital Ag 7   s \
	OrthoOrbital Ag 7   p \
	OrthoOrbital Ag 7   px \
	OrthoOrbital Ag 7   py \
	OrthoOrbital Ag 7   pz \
	OrthoOrbital Ag 7   d \
	OrthoOrbital Ag 7   dxy \
	OrthoOrbital Ag 7   dyz \
	OrthoOrbital Ag 7   dz2 \
	OrthoOrbital Ag 7   dxz \
	OrthoOrbital Ag 7   dx2-y2 \
	OrthoOrbital Ag 8   s \
	OrthoOrbital Ag 8   p \
	OrthoOrbital Ag 8   px \
	OrthoOrbital Ag 8   py \
	OrthoOrbital Ag 8   pz \
	OrthoOrbital Ag 8   d \
	OrthoOrbital Ag 8   dxy \
	OrthoOrbital Ag 8   dyz \
	OrthoOrbital Ag 8   dz2 \
	OrthoOrbital Ag 8   dxz \
	OrthoOrbital Ag 8   dx2-y2 \
	OrthoOrbital Ag 9   s \
	OrthoOrbital Ag 9   p \
	OrthoOrbital Ag 9   px \
	OrthoOrbital Ag 9   py \
	OrthoOrbital Ag 9   pz \
	OrthoOrbital Ag 9   d \
	OrthoOrbital Ag 9   dxy \
	OrthoOrbital Ag 9   dyz \
	OrthoOrbital Ag 9   dz2 \
	OrthoOrbital Ag 9   dxz \
	OrthoOrbital Ag 9   dx2-y2 \
	OrthoOrbital Ag 10   s \
	OrthoOrbital Ag 10   p \
	OrthoOrbital Ag 10   px \
	OrthoOrbital Ag 10   py \
	OrthoOrbital Ag 10   pz \
	OrthoOrbital Ag 10   d \
	OrthoOrbital Ag 10   dxy \
	OrthoOrbital Ag 10   dyz \
	OrthoOrbital Ag 10   dz2 \
	OrthoOrbital Ag 10   dxz \
	OrthoOrbital Ag 10   dx2-y2 \
	OrthoOrbital Ag 11   s \
	OrthoOrbital Ag 11   p \
	OrthoOrbital Ag 11   px \
	OrthoOrbital Ag 11   py \
	OrthoOrbital Ag 11   pz \
	OrthoOrbital Ag 11   d \
	OrthoOrbital Ag 11   dxy \
	OrthoOrbital Ag 11   dyz \
	OrthoOrbital Ag 11   dz2 \
	OrthoOrbital Ag 11   dxz \
	OrthoOrbital Ag 11   dx2-y2 \
	OrthoOrbital Ag 12   s \
	OrthoOrbital Ag 12   p \
	OrthoOrbital Ag 12   px \
	OrthoOrbital Ag 12   py \
	OrthoOrbital Ag 12   pz \
	OrthoOrbital Ag 12   d \
	OrthoOrbital Ag 12   dxy \
	OrthoOrbital Ag 12   dyz \
	OrthoOrbital Ag 12   dz2 \
	OrthoOrbital Ag 12   dxz \
	OrthoOrbital Ag 12   dx2-y2
dump End ElecDensity KEdensity BandEigs EigStats RhoAtom DOS Kpoints
dump Ionic State IonicPositions Lattice EigStats Ecomponents
dump 
dump 
dump 
dump 
dump 
dump 
dump 
dump 
dump-name jdft.$VAR
elec-cutoff 20
elec-eigen-algo Davidson
elec-ex-corr gga-PBE
elec-initial-magnetization 0.000000 no
elec-n-bands 137
elec-smearing Fermi 0.001
electronic-minimize  \
	dirUpdateScheme      FletcherReeves \
	linminMethod         DirUpdateRecommended \
	nIterations          100 \
	history              15 \
	knormThreshold       0 \
	energyDiffThreshold  1e-07 \
	nEnergyDiff          2 \
	alphaTstart          1 \
	alphaTmin            1e-10 \
	updateTestStepSize   yes \
	alphaTreduceFactor   0.1 \
	alphaTincreaseFactor 3 \
	nAlphaAdjustMax      3 \
	wolfeEnergy          0.0001 \
	wolfeGradient        0.9 \
	fdTest               no
exchange-regularization WignerSeitzTruncated
fluid None
fluid-ex-corr lda-TF lda-PZ
fluid-gummel-loop 10 1.000000e-05
fluid-minimize  \
	dirUpdateScheme      PolakRibiere \
	linminMethod         DirUpdateRecommended \
	nIterations          100 \
	history              15 \
	knormThreshold       0 \
	energyDiffThreshold  0 \
	nEnergyDiff          2 \
	alphaTstart          1 \
	alphaTmin            1e-10 \
	updateTestStepSize   yes \
	alphaTreduceFactor   0.1 \
	alphaTincreaseFactor 3 \
	nAlphaAdjustMax      3 \
	wolfeEnergy          0.0001 \
	wolfeGradient        0.9 \
	fdTest               no
fluid-solvent H2O 55.338 ScalarEOS \
	epsBulk 78.4 \
	pMol 0.92466 \
	epsInf 1.77 \
	Pvap 1.06736e-10 \
	sigmaBulk 4.62e-05 \
	Rvdw 2.61727 \
	Res 1.42 \
	tauNuc 343133 \
	poleEl 15 7 1
forces-output-coords Positions
ion Ag  -7.665676000000000   7.665667999999999   7.665667999999999 1
ion Ag   0.000000000000000   0.000000000000000   0.000000000000000 1
ion Ag   0.000008000000000   7.665668000000000   7.665668000000000 1
ion Ag  -7.665661000000000  11.498502999999998  11.498502999999999 1
ion Ag  -0.000008000000000   3.832834000000000   3.832834000000000 1
ion Ag  -7.665668000000000   3.832834000000000   3.832834000000000 1
ion Ag  -3.832827000000001   7.665667999999999  11.498502999999999 1
ion Ag  -3.832841999999999   7.665668000000000   3.832834000000000 1
ion Ag  -3.832834000000000  -0.000000000000000   3.832834000000000 1
ion Ag  -3.832827000000001  11.498502999999998   7.665668000000000 1
ion Ag  -3.832841999999999   3.832834000000000   7.665668000000000 1
ion Ag  -3.832834000000000   3.832834000000000   0.000000000000000 1
ion-species /projects/musgravc/apps/jdftx-1.6.0/build/pseudopotentials/GBRV_v1.5/$ID_pbe_v1.uspp
ion-species /projects/musgravc/apps/jdftx-1.6.0/build/pseudopotentials/GBRV_v1.5/$ID_pbe_v1.2.uspp
ion-species /projects/musgravc/apps/jdftx-1.6.0/build/pseudopotentials/GBRV_v1.5/$ID_pbe_v1.4.uspp
ion-species /projects/musgravc/apps/jdftx-1.6.0/build/pseudopotentials/GBRV_v1.5/$ID_pbe_v1.5.uspp
ion-width 0
ionic-minimize  \
	dirUpdateScheme      L-BFGS \
	linminMethod         DirUpdateRecommended \
	nIterations          0 \
	history              15 \
	knormThreshold       0.0001 \
	energyDiffThreshold  1e-06 \
	nEnergyDiff          2 \
	alphaTstart          1 \
	alphaTmin            1e-10 \
	updateTestStepSize   yes \
	alphaTreduceFactor   0.1 \
	alphaTincreaseFactor 3 \
	nAlphaAdjustMax      3 \
	wolfeEnergy          0.0001 \
	wolfeGradient        0.9 \
	fdTest               no
kpoint   0.000000000000   0.000000000000   0.000000000000  1.00000000000000
kpoint-folding 4 4 3 
latt-move-scale 0 0 0
latt-scale 1 1 1 
lattice  \
	  -7.665668000000000   -7.665668000000000    7.665668000000000  \
	   7.665668000000000    0.000000000000000    7.665668000000000  \
	   0.000000000000000    7.665668000000000    7.665668000000000 
lattice-minimize  \
	dirUpdateScheme      L-BFGS \
	linminMethod         DirUpdateRecommended \
	nIterations          0 \
	history              15 \
	knormThreshold       0 \
	energyDiffThreshold  1e-06 \
	nEnergyDiff          2 \
	alphaTstart          1 \
	alphaTmin            1e-10 \
	updateTestStepSize   yes \
	alphaTreduceFactor   0.1 \
	alphaTincreaseFactor 3 \
	nAlphaAdjustMax      3 \
	wolfeEnergy          0.0001 \
	wolfeGradient        0.9 \
	fdTest               no
lcao-params 30 1e-06 0.001
pcm-variant GLSSA13
spintype z-spin
subspace-rotation-factor 1 yes
symmetries none
symmetry-threshold 0.0001
van-der-waals D3


Applied RMS atom displacement 0 bohrs to make symmetries exact.

---------- Initializing the Grid ----------
R = 
[     -7.66567     -7.66567      7.66567  ]
[      7.66567            0      7.66567  ]
[            0      7.66567      7.66567  ]
unit cell volume = 1351.36
G =
[  -0.273218   0.546435  -0.273218  ]
[  -0.273218  -0.273218   0.546435  ]
[   0.273218   0.273218   0.273218  ]
Minimum fftbox size, Smin = [  44  44  56  ]
Chosen fftbox size, S = [  48  48  56  ]

---------- Exchange Correlation functional ----------
Initalized PBE GGA exchange.
Initalized PBE GGA correlation.

---------- Setting up pseudopotentials ----------
Width of ionic core gaussian charges (only for fluid interactions / plotting) set to 0

Reading pseudopotential file '/projects/musgravc/apps/jdftx-1.6.0/build/pseudopotentials/GBRV_v1.5/ag_pbe_v1.4.uspp':
  Title: Ag.  Created by USPP 7.3.6 on 1-4-15
  Reference state energy: -147.606242.  19 valence electrons in orbitals:
    |400>  occupation: 2  eigenvalue: -3.637437
    |410>  occupation: 6  eigenvalue: -2.297267
    |420>  occupation: 10  eigenvalue: -0.417763
    |500>  occupation: 0.5  eigenvalue: -0.283525
    |510>  occupation: 0  eigenvalue: -0.122889
  lMax: 2  lLocal: 0  QijEcut: 5.5
  6 projectors sampled on a log grid with 717 points:
    l: 0  eig: -0.283528  rCut: 1.5
    l: 0  eig: -3.637440  rCut: 1.5
    l: 1  eig: -0.122892  rCut: 1.5
    l: 1  eig: -2.297267  rCut: 1.5
    l: 2  eig: -0.417762  rCut: 1.7
    l: 2  eig: -1.000000  rCut: 1.7
  Partial core density with radius 1.2
  Transforming core density to a uniform radial grid of dG=0.02 with 1546 points.
  Transforming local potential to a uniform radial grid of dG=0.02 with 1546 points.
  Transforming nonlocal projectors to a uniform radial grid of dG=0.02 with 432 points.
  Transforming density augmentations to a uniform radial grid of dG=0.02 with 1546 points.
  Transforming atomic orbitals to a uniform radial grid of dG=0.02 with 432 points.
  Core radius for overlap checks: 1.70 bohrs.

Initialized 1 species with 12 total atoms.

Folded 1 k-points by 4x4x3 to 48 k-points.

---------- Setting up k-points, bands, fillings ----------
No reducable k-points. 
Computing the number of bands and number of electrons
Calculating initial fillings.
nElectrons: 228.000000   nBands: 137   nStates: 96

----- Setting up reduced wavefunction bases (one per k-point) -----
average nbasis = 5775.688 , ideal nbasis = 5773.116

----- Initializing Supercell corresponding to k-point mesh -----
Lattice vector linear combinations in supercell:
[   4   0   0  ]
[   0   4   0  ]
[   0   0   3  ]
Supercell lattice vectors:
[  -30.6627  -30.6627  22.997  ]
[  30.6627  0  22.997  ]
[  0  30.6627  22.997  ]

Initializing DFT-D3 calculator:
	Parameters set for gga-PBE functional
	s6:  1.000  s_r6:  1.217
	s8:  0.722  s_r8:  1.000
	Per-atom parameters loaded for:
	Ag:  sqrtQ[a0]:  5.443  Rcov[a0]:  2.173  CN: [ 0.00 0.97 ]

---------- Setting up ewald sum ----------
Optimum gaussian width for ewald sums = 2.914989 bohr.
Real space sum over 729 unit cells with max indices [  4  4  4  ]
Reciprocal space sum over 3825 terms with max indices [  7  7  8  ]

Computing DFT-D3 correction:
# coordination-number Ag 9.216 9.216 9.216 9.216 9.216 9.216 9.216 9.216 9.216 9.216 9.216 9.216
# diagonal-C6 Ag 268.61 268.61 268.61 268.61 268.61 268.61 268.61 268.61 268.61 268.61 268.61 268.61
EvdW_6 =   -0.100901
EvdW_8 =   -0.125265

---------- Allocating electronic variables ----------
Initializing wave functions:  linear combination of atomic orbitals
Ag pseudo-atom occupations:   s ( 2 1 )  p ( 6 0 )  d ( 10 )
	FillingsUpdate:  mu: +0.647096091  nElectrons: 228.000000  magneticMoment: [ Abs: 0.01136  Tot: -0.00008 ]
LCAOMinimize: Iter:   0  F: -1771.2319684634856003  |grad|_K:  4.706e-04  alpha:  1.000e+00
	FillingsUpdate:  mu: +0.659661961  nElectrons: 228.000000  magneticMoment: [ Abs: 0.00483  Tot: -0.00008 ]
LCAOMinimize: Iter:   1  F: -1771.3688798882917581  |grad|_K:  1.817e-05  alpha:  5.756e-01  linmin:  2.104e-01  cgtest: -1.031e+00  t[s]:     14.85
	FillingsUpdate:  mu: +0.659683260  nElectrons: 228.000000  magneticMoment: [ Abs: 0.00481  Tot: -0.00009 ]
LCAOMinimize: Iter:   2  F: -1771.3688908712501870  |grad|_K:  1.803e-05  alpha:  6.732e-01  linmin:  1.238e-04  cgtest:  9.772e-01  t[s]:     21.87
	FillingsUpdate:  mu: +0.659063205  nElectrons: 228.000000  magneticMoment: [ Abs: 0.00503  Tot: -0.00010 ]
LCAOMinimize: Iter:   3  F: -1771.3691095855563162  |grad|_K:  3.318e-06  alpha:  5.680e-01  linmin:  1.997e-03  cgtest: -1.496e-02  t[s]:     27.28
	FillingsUpdate:  mu: +0.659053825  nElectrons: 228.000000  magneticMoment: [ Abs: 0.00503  Tot: -0.00010 ]
LCAOMinimize: Iter:   4  F: -1771.3691119927657383  |grad|_K:  2.522e-07  alpha:  1.854e-01  linmin:  4.048e-04  cgtest:  3.719e-02  t[s]:     32.68
LCAOMinimize: 	Predicted alpha/alphaT>3.000000, increasing alphaT to 5.562368e-01.
	FillingsUpdate:  mu: +0.659056506  nElectrons: 228.000000  magneticMoment: [ Abs: 0.00503  Tot: -0.00010 ]
LCAOMinimize: Iter:   5  F: -1771.3691120421128744  |grad|_K:  1.447e-07  alpha:  6.558e-01  linmin: -4.300e-05  cgtest:  1.790e-04  t[s]:     39.54
	FillingsUpdate:  mu: +0.659057074  nElectrons: 228.000000  magneticMoment: [ Abs: 0.00503  Tot: -0.00010 ]
LCAOMinimize: Iter:   6  F: -1771.3691120535766004  |grad|_K:  1.782e-08  alpha:  4.623e-01  linmin:  3.136e-04  cgtest: -2.559e-03  t[s]:     44.97
LCAOMinimize: Converged (|Delta F|<1.000000e-06 for 2 iters).


---- Citations for features of the code used in this run ----

   Software package:
      R. Sundararaman, K. Letchworth-Weaver, K.A. Schwarz, D. Gunceler, Y. Ozhabes and T.A. Arias, 'JDFTx: software for joint density-functional theory', SoftwareX 6, 278 (2017)

   gga-PBE exchange-correlation functional:
      J.P. Perdew, K. Burke and M. Ernzerhof, Phys. Rev. Lett. 77, 3865 (1996)

   Pseudopotentials:
      KF Garrity, JW Bennett, KM Rabe and D Vanderbilt, Comput. Mater. Sci. 81, 446 (2014)

   DFT-D3 dispersion correction:
      S. Grimme, J. Antony, S. Ehrlich and H. Krieg, J. Chem. Phys. 132, 154104 (2010)

   Total energy minimization with Auxiliary Hamiltonian:
      C. Freysoldt, S. Boeck, and J. Neugebauer, Phys. Rev. B 79, 241103(R) (2009)

   Linear-tetrahedron sampling for density of states:
      G. Lehmann and M. Taut, Phys. status solidi (b) 54, 469 (1972)

This list may not be complete. Please suggest additional citations or
report any other bugs at https://github.com/shankar1729/jdftx/issues

Initialization completed successfully at t[s]:     46.12


Computing DFT-D3 correction:
# coordination-number Ag 9.216 9.216 9.216 9.216 9.216 9.216 9.216 9.216 9.216 9.216 9.216 9.216
# diagonal-C6 Ag 268.61 268.61 268.61 268.61 268.61 268.61 268.61 268.61 268.61 268.61 268.61 268.61
EvdW_6 =   -0.100901
EvdW_8 =   -0.125265

-------- Electronic minimization -----------
	FillingsUpdate:  mu: +0.659057074  nElectrons: 228.000000  magneticMoment: [ Abs: 0.00503  Tot: -0.00010 ]
ElecMinimize: Iter:   0  F: -1771.369112053577510  |grad|_K:  3.994e-05  alpha:  1.000e+00
	FillingsUpdate:  mu: +0.662703976  nElectrons: 228.000000  magneticMoment: [ Abs: 0.00363  Tot: -0.00010 ]
	SubspaceRotationAdjust: set factor to 1
ElecMinimize: Iter:   1  F: -1771.418517279864318  |grad|_K:  2.601e-05  alpha:  4.041e-01  linmin:  5.434e-05  t[s]:     60.26
	FillingsUpdate:  mu: +0.658234777  nElectrons: 228.000000  magneticMoment: [ Abs: 0.00251  Tot: -0.00011 ]
	SubspaceRotationAdjust: set factor to 0.969
ElecMinimize: Iter:   2  F: -1771.432865978063774  |grad|_K:  1.082e-05  alpha:  2.758e-01  linmin:  5.064e-06  t[s]:     69.02
	FillingsUpdate:  mu: +0.657610234  nElectrons: 228.000000  magneticMoment: [ Abs: 0.00152  Tot: -0.00010 ]
	SubspaceRotationAdjust: set factor to 1.03
ElecMinimize: Iter:   3  F: -1771.436419607079415  |grad|_K:  5.001e-06  alpha:  3.955e-01  linmin:  2.188e-05  t[s]:     77.71
	FillingsUpdate:  mu: +0.657793032  nElectrons: 228.000000  magneticMoment: [ Abs: 0.00084  Tot: -0.00008 ]
	SubspaceRotationAdjust: set factor to 1.23
ElecMinimize: Iter:   4  F: -1771.437267210561458  |grad|_K:  2.494e-06  alpha:  4.415e-01  linmin:  1.349e-07  t[s]:     86.69
	FillingsUpdate:  mu: +0.657822614  nElectrons: 228.000000  magneticMoment: [ Abs: 0.00043  Tot: -0.00005 ]
	SubspaceRotationAdjust: set factor to 1.35
ElecMinimize: Iter:   5  F: -1771.437487147049524  |grad|_K:  1.222e-06  alpha:  4.600e-01  linmin:  4.213e-06  t[s]:     95.40
	FillingsUpdate:  mu: +0.657908997  nElectrons: 228.000000  magneticMoment: [ Abs: 0.00027  Tot: -0.00004 ]
	SubspaceRotationAdjust: set factor to 1.31
ElecMinimize: Iter:   6  F: -1771.437523522958145  |grad|_K:  6.707e-07  alpha:  3.170e-01  linmin: -2.087e-08  t[s]:    104.10
	FillingsUpdate:  mu: +0.657864278  nElectrons: 228.000000  magneticMoment: [ Abs: 0.00016  Tot: -0.00002 ]
	SubspaceRotationAdjust: set factor to 1.33
ElecMinimize: Iter:   7  F: -1771.437535728672856  |grad|_K:  3.478e-07  alpha:  3.530e-01  linmin:  4.225e-06  t[s]:    113.00
	FillingsUpdate:  mu: +0.657880446  nElectrons: 228.000000  magneticMoment: [ Abs: 0.00009  Tot: -0.00001 ]
	SubspaceRotationAdjust: set factor to 1.32
ElecMinimize: Iter:   8  F: -1771.437539583544321  |grad|_K:  2.088e-07  alpha:  4.146e-01  linmin:  3.723e-07  t[s]:    121.77
	FillingsUpdate:  mu: +0.657865914  nElectrons: 228.000000  magneticMoment: [ Abs: 0.00006  Tot: -0.00000 ]
	SubspaceRotationAdjust: set factor to 1.05
ElecMinimize: Iter:   9  F: -1771.437540654233317  |grad|_K:  1.420e-07  alpha:  3.195e-01  linmin:  2.674e-07  t[s]:    130.47
	FillingsUpdate:  mu: +0.657864882  nElectrons: 228.000000  magneticMoment: [ Abs: 0.00004  Tot: -0.00000 ]
	SubspaceRotationAdjust: set factor to 0.705
ElecMinimize: Iter:  10  F: -1771.437541076037860  |grad|_K:  8.942e-08  alpha:  2.722e-01  linmin:  2.915e-07  t[s]:    139.17
	FillingsUpdate:  mu: +0.657870892  nElectrons: 228.000000  magneticMoment: [ Abs: 0.00002  Tot: +0.00000 ]
	SubspaceRotationAdjust: set factor to 0.725
ElecMinimize: Iter:  11  F: -1771.437541274496880  |grad|_K:  5.157e-08  alpha:  3.229e-01  linmin:  1.921e-06  t[s]:    148.00
	FillingsUpdate:  mu: +0.657868883  nElectrons: 228.000000  magneticMoment: [ Abs: 0.00001  Tot: +0.00000 ]
	SubspaceRotationAdjust: set factor to 0.724
ElecMinimize: Iter:  12  F: -1771.437541343234443  |grad|_K:  3.091e-08  alpha:  3.363e-01  linmin:  9.945e-08  t[s]:    156.71
	FillingsUpdate:  mu: +0.657869602  nElectrons: 228.000000  magneticMoment: [ Abs: 0.00001  Tot: +0.00000 ]
	SubspaceRotationAdjust: set factor to 0.652
ElecMinimize: Iter:  13  F: -1771.437541370990175  |grad|_K:  1.963e-08  alpha:  3.779e-01  linmin:  1.660e-06  t[s]:    165.41
ElecMinimize: Converged (|Delta F|<1.000000e-07 for 2 iters).
Setting wave functions to eigenvectors of Hamiltonian
Converging empty states (this may take a while): |deigs|: 8.106e-04

Computing DFT-D3 correction:
# coordination-number Ag 9.216 9.216 9.216 9.216 9.216 9.216 9.216 9.216 9.216 9.216 9.216 9.216
# diagonal-C6 Ag 268.61 268.61 268.61 268.61 268.61 268.61 268.61 268.61 268.61 268.61 268.61 268.61
EvdW_6 =   -0.100901
EvdW_8 =   -0.125265

# Ionic positions in cartesian coordinates:
ion Ag  -7.665676000000000   7.665667999999999   7.665667999999999 1
ion Ag   0.000000000000000   0.000000000000000   0.000000000000000 1
ion Ag   0.000008000000000   7.665668000000000   7.665668000000000 1
ion Ag  -7.665661000000000  11.498502999999998  11.498502999999999 1
ion Ag  -0.000008000000000   3.832834000000000   3.832834000000000 1
ion Ag  -7.665668000000000   3.832834000000000   3.832834000000000 1
ion Ag  -3.832827000000001   7.665667999999999  11.498502999999999 1
ion Ag  -3.832841999999999   7.665668000000000   3.832834000000000 1
ion Ag  -3.832834000000000  -0.000000000000000   3.832834000000000 1
ion Ag  -3.832827000000001  11.498502999999998   7.665668000000000 1
ion Ag  -3.832841999999999   3.832834000000000   7.665668000000000 1
ion Ag  -3.832834000000000   3.832834000000000   0.000000000000000 1

# Forces in Cartesian coordinates:
force Ag  -0.000008110113396  -0.000008412990932  -0.000008358342224 1
force Ag  -0.000009305485692  -0.000009352982932  -0.000009257511569 1
force Ag   0.000017293606766   0.000017814723501   0.000017587388506 1
force Ag   0.000017313099062   0.000017502077204   0.000017595701221 1
force Ag  -0.000008110219141  -0.000008253084883  -0.000008409846091 1
force Ag  -0.000009257095712  -0.000009231395454  -0.000009354168822 1
force Ag   0.000017519652317   0.000017717493918   0.000017550137002 1
force Ag  -0.000008197462357  -0.000008386740758  -0.000008288378452 1
force Ag  -0.000009372454890  -0.000009327552132  -0.000009268051477 1
force Ag   0.000017569045027   0.000017364547660   0.000017700036931 1
force Ag  -0.000008183407485  -0.000008283671025  -0.000008346472715 1
force Ag  -0.000009314697030  -0.000009209626717  -0.000009304137214 1

# Energy components:
   Eewald =    -1295.4919587572637738
       EH =      425.1854756529159545
     Eloc =    -1179.2923850083197976
      Enl =       47.3076963513839814
     EvdW =       -0.2261659812185801
      Exc =     -174.0383365253889565
 Exc_core =        2.4980415470318444
       KE =      402.6206236104599157
-------------------------------------
     Etot =    -1771.4370091103992308
       TS =        0.0005322605908589
-------------------------------------
        F =    -1771.4375413709901750


Dumping 'jdft.fillings' ... done
Dumping 'jdft.wfns' ... done
Dumping 'jdft.ionpos' ... done
Dumping 'jdft.lattice' ... done
Dumping 'jdft.eigenvals' ... done
Dumping 'jdft.eigStats' ... 
	eMin: -2.725771 at state 0 ( [ +0.000000 +0.000000 +0.000000 ] spin 1 )
	HOMO: +0.657505 at state 61 ( [ +0.250000 +0.000000 +0.333333 ] spin -1 )
	mu  : +0.657870
	LUMO: +0.659032 at state 37 ( [ -0.250000 +0.000000 +0.333333 ] spin 1 )
	eMax: +1.086725 at state 8 ( [ +0.000000 +0.500000 -0.333333 ] spin 1 )
	HOMO-LUMO gap: +0.001527
	Optical gap  : +0.017011 at state 17 ( [ +0.250000 +0.250000 -0.333333 ] spin 1 )
Dumping 'jdft.Ecomponents' ... done
IonicMinimize: Iter:   0  F: -1771.437541370990175  |grad|_K:  1.242e-05  t[s]:    187.75
IonicMinimize: Converged (|grad|_K<1.000000e-04).

#--- Lowdin population analysis ---
# oxidation-state Ag +0.004 +0.004 +0.004 +0.004 +0.004 +0.004 +0.004 +0.004 +0.004 +0.004 +0.004 +0.004
# magnetic-moments Ag +0.000 +0.000 +0.000 +0.000 +0.000 +0.000 +0.000 +0.000 +0.000 +0.000 +0.000 +0.000


Dumping 'jdft.n_up' ... done
Dumping 'jdft.n_dn' ... done
Dumping 'jdft.tau_up' ... done
Dumping 'jdft.tau_dn' ... done
Dumping 'jdft.eigenvals' ... done
Dumping 'jdft.eigStats' ... 
	eMin: -2.725771 at state 0 ( [ +0.000000 +0.000000 +0.000000 ] spin 1 )
	HOMO: +0.657505 at state 61 ( [ +0.250000 +0.000000 +0.333333 ] spin -1 )
	mu  : +0.657870
	LUMO: +0.659032 at state 37 ( [ -0.250000 +0.000000 +0.333333 ] spin 1 )
	eMax: +1.086725 at state 8 ( [ +0.000000 +0.500000 -0.333333 ] spin 1 )
	HOMO-LUMO gap: +0.001527
	Optical gap  : +0.017011 at state 17 ( [ +0.250000 +0.250000 -0.333333 ] spin 1 )
Dumping 'jdft.kPts' ... done
Dumping 'jdft.dosUp' ... done.
Dumping 'jdft.dosDn' ... done.
End date and time: Mon Dec  6 17:19:54 2021  (Duration: 0-0:03:14.97)
Done!
