
*************** JDFTx 1.6.0  ***************

Start date and time: Wed Mar  2 15:23:11 2022
Executable /projects/musgravc/apps/jdftx-1.6.1/build/jdftx with command-line: -i in
Running on hosts (process indices):  shas0255.rc.int.colorado.edu (0-23)
Divided in process groups (process indices):  0 (0)  1 (1)  2 (2)  3 (3)  4 (4)  5 (5)  6 (6)  7 (7)  8 (8)  9 (9)  10 (10)  11 (11)  12 (12)  13 (13)  14 (14)  15 (15)  16 (16)  17 (17)  18 (18)  19 (19)  20 (20)  21 (21)  22 (22)  23 (23)
Resource initialization completed at t[s]:      0.00
Run totals: 24 processes, 24 threads, 0 GPUs


Input parsed successfully to the following command list (including defaults):

basis kpoint-dependent
converge-empty-states yes
coords-type Cartesian
core-overlap-check none
coulomb-interaction Periodic
davidson-band-ratio 1.1
density-of-states Etol 1.000000e-06 Esigma 1.000000e-03 \
		Complete \
	Total \
	OrthoOrbital Ni 1   s \
	OrthoOrbital Ni 1   p \
	OrthoOrbital Ni 1   px \
	OrthoOrbital Ni 1   py \
	OrthoOrbital Ni 1   pz \
	OrthoOrbital Ni 1   d \
	OrthoOrbital Ni 1   dxy \
	OrthoOrbital Ni 1   dyz \
	OrthoOrbital Ni 1   dz2 \
	OrthoOrbital Ni 1   dxz \
	OrthoOrbital Ni 1   dx2-y2 \
	OrthoOrbital Ni 2   s \
	OrthoOrbital Ni 2   p \
	OrthoOrbital Ni 2   px \
	OrthoOrbital Ni 2   py \
	OrthoOrbital Ni 2   pz \
	OrthoOrbital Ni 2   d \
	OrthoOrbital Ni 2   dxy \
	OrthoOrbital Ni 2   dyz \
	OrthoOrbital Ni 2   dz2 \
	OrthoOrbital Ni 2   dxz \
	OrthoOrbital Ni 2   dx2-y2 \
	OrthoOrbital Ni 3   s \
	OrthoOrbital Ni 3   p \
	OrthoOrbital Ni 3   px \
	OrthoOrbital Ni 3   py \
	OrthoOrbital Ni 3   pz \
	OrthoOrbital Ni 3   d \
	OrthoOrbital Ni 3   dxy \
	OrthoOrbital Ni 3   dyz \
	OrthoOrbital Ni 3   dz2 \
	OrthoOrbital Ni 3   dxz \
	OrthoOrbital Ni 3   dx2-y2 \
	OrthoOrbital Ni 4   s \
	OrthoOrbital Ni 4   p \
	OrthoOrbital Ni 4   px \
	OrthoOrbital Ni 4   py \
	OrthoOrbital Ni 4   pz \
	OrthoOrbital Ni 4   d \
	OrthoOrbital Ni 4   dxy \
	OrthoOrbital Ni 4   dyz \
	OrthoOrbital Ni 4   dz2 \
	OrthoOrbital Ni 4   dxz \
	OrthoOrbital Ni 4   dx2-y2 \
	OrthoOrbital Ni 5   s \
	OrthoOrbital Ni 5   p \
	OrthoOrbital Ni 5   px \
	OrthoOrbital Ni 5   py \
	OrthoOrbital Ni 5   pz \
	OrthoOrbital Ni 5   d \
	OrthoOrbital Ni 5   dxy \
	OrthoOrbital Ni 5   dyz \
	OrthoOrbital Ni 5   dz2 \
	OrthoOrbital Ni 5   dxz \
	OrthoOrbital Ni 5   dx2-y2 \
	OrthoOrbital Ni 6   s \
	OrthoOrbital Ni 6   p \
	OrthoOrbital Ni 6   px \
	OrthoOrbital Ni 6   py \
	OrthoOrbital Ni 6   pz \
	OrthoOrbital Ni 6   d \
	OrthoOrbital Ni 6   dxy \
	OrthoOrbital Ni 6   dyz \
	OrthoOrbital Ni 6   dz2 \
	OrthoOrbital Ni 6   dxz \
	OrthoOrbital Ni 6   dx2-y2 \
	OrthoOrbital Ni 7   s \
	OrthoOrbital Ni 7   p \
	OrthoOrbital Ni 7   px \
	OrthoOrbital Ni 7   py \
	OrthoOrbital Ni 7   pz \
	OrthoOrbital Ni 7   d \
	OrthoOrbital Ni 7   dxy \
	OrthoOrbital Ni 7   dyz \
	OrthoOrbital Ni 7   dz2 \
	OrthoOrbital Ni 7   dxz \
	OrthoOrbital Ni 7   dx2-y2 \
	OrthoOrbital Ni 8   s \
	OrthoOrbital Ni 8   p \
	OrthoOrbital Ni 8   px \
	OrthoOrbital Ni 8   py \
	OrthoOrbital Ni 8   pz \
	OrthoOrbital Ni 8   d \
	OrthoOrbital Ni 8   dxy \
	OrthoOrbital Ni 8   dyz \
	OrthoOrbital Ni 8   dz2 \
	OrthoOrbital Ni 8   dxz \
	OrthoOrbital Ni 8   dx2-y2 \
	OrthoOrbital Ni 9   s \
	OrthoOrbital Ni 9   p \
	OrthoOrbital Ni 9   px \
	OrthoOrbital Ni 9   py \
	OrthoOrbital Ni 9   pz \
	OrthoOrbital Ni 9   d \
	OrthoOrbital Ni 9   dxy \
	OrthoOrbital Ni 9   dyz \
	OrthoOrbital Ni 9   dz2 \
	OrthoOrbital Ni 9   dxz \
	OrthoOrbital Ni 9   dx2-y2 \
	OrthoOrbital Ni 10   s \
	OrthoOrbital Ni 10   p \
	OrthoOrbital Ni 10   px \
	OrthoOrbital Ni 10   py \
	OrthoOrbital Ni 10   pz \
	OrthoOrbital Ni 10   d \
	OrthoOrbital Ni 10   dxy \
	OrthoOrbital Ni 10   dyz \
	OrthoOrbital Ni 10   dz2 \
	OrthoOrbital Ni 10   dxz \
	OrthoOrbital Ni 10   dx2-y2 \
	OrthoOrbital Ni 11   s \
	OrthoOrbital Ni 11   p \
	OrthoOrbital Ni 11   px \
	OrthoOrbital Ni 11   py \
	OrthoOrbital Ni 11   pz \
	OrthoOrbital Ni 11   d \
	OrthoOrbital Ni 11   dxy \
	OrthoOrbital Ni 11   dyz \
	OrthoOrbital Ni 11   dz2 \
	OrthoOrbital Ni 11   dxz \
	OrthoOrbital Ni 11   dx2-y2 \
	OrthoOrbital Ni 12   s \
	OrthoOrbital Ni 12   p \
	OrthoOrbital Ni 12   px \
	OrthoOrbital Ni 12   py \
	OrthoOrbital Ni 12   pz \
	OrthoOrbital Ni 12   d \
	OrthoOrbital Ni 12   dxy \
	OrthoOrbital Ni 12   dyz \
	OrthoOrbital Ni 12   dz2 \
	OrthoOrbital Ni 12   dxz \
	OrthoOrbital Ni 12   dx2-y2 \
	OrthoOrbital Ni 13   s \
	OrthoOrbital Ni 13   p \
	OrthoOrbital Ni 13   px \
	OrthoOrbital Ni 13   py \
	OrthoOrbital Ni 13   pz \
	OrthoOrbital Ni 13   d \
	OrthoOrbital Ni 13   dxy \
	OrthoOrbital Ni 13   dyz \
	OrthoOrbital Ni 13   dz2 \
	OrthoOrbital Ni 13   dxz \
	OrthoOrbital Ni 13   dx2-y2 \
	OrthoOrbital Ni 14   s \
	OrthoOrbital Ni 14   p \
	OrthoOrbital Ni 14   px \
	OrthoOrbital Ni 14   py \
	OrthoOrbital Ni 14   pz \
	OrthoOrbital Ni 14   d \
	OrthoOrbital Ni 14   dxy \
	OrthoOrbital Ni 14   dyz \
	OrthoOrbital Ni 14   dz2 \
	OrthoOrbital Ni 14   dxz \
	OrthoOrbital Ni 14   dx2-y2 \
	OrthoOrbital Ni 15   s \
	OrthoOrbital Ni 15   p \
	OrthoOrbital Ni 15   px \
	OrthoOrbital Ni 15   py \
	OrthoOrbital Ni 15   pz \
	OrthoOrbital Ni 15   d \
	OrthoOrbital Ni 15   dxy \
	OrthoOrbital Ni 15   dyz \
	OrthoOrbital Ni 15   dz2 \
	OrthoOrbital Ni 15   dxz \
	OrthoOrbital Ni 15   dx2-y2 \
	OrthoOrbital Ni 16   s \
	OrthoOrbital Ni 16   p \
	OrthoOrbital Ni 16   px \
	OrthoOrbital Ni 16   py \
	OrthoOrbital Ni 16   pz \
	OrthoOrbital Ni 16   d \
	OrthoOrbital Ni 16   dxy \
	OrthoOrbital Ni 16   dyz \
	OrthoOrbital Ni 16   dz2 \
	OrthoOrbital Ni 16   dxz \
	OrthoOrbital Ni 16   dx2-y2 \
	OrthoOrbital Au 1   s \
	OrthoOrbital Au 1   p \
	OrthoOrbital Au 1   px \
	OrthoOrbital Au 1   py \
	OrthoOrbital Au 1   pz \
	OrthoOrbital Au 1   d \
	OrthoOrbital Au 1   dxy \
	OrthoOrbital Au 1   dyz \
	OrthoOrbital Au 1   dz2 \
	OrthoOrbital Au 1   dxz \
	OrthoOrbital Au 1   dx2-y2 \
	OrthoOrbital Au 2   s \
	OrthoOrbital Au 2   p \
	OrthoOrbital Au 2   px \
	OrthoOrbital Au 2   py \
	OrthoOrbital Au 2   pz \
	OrthoOrbital Au 2   d \
	OrthoOrbital Au 2   dxy \
	OrthoOrbital Au 2   dyz \
	OrthoOrbital Au 2   dz2 \
	OrthoOrbital Au 2   dxz \
	OrthoOrbital Au 2   dx2-y2 \
	OrthoOrbital Au 3   s \
	OrthoOrbital Au 3   p \
	OrthoOrbital Au 3   px \
	OrthoOrbital Au 3   py \
	OrthoOrbital Au 3   pz \
	OrthoOrbital Au 3   d \
	OrthoOrbital Au 3   dxy \
	OrthoOrbital Au 3   dyz \
	OrthoOrbital Au 3   dz2 \
	OrthoOrbital Au 3   dxz \
	OrthoOrbital Au 3   dx2-y2 \
	OrthoOrbital Au 4   s \
	OrthoOrbital Au 4   p \
	OrthoOrbital Au 4   px \
	OrthoOrbital Au 4   py \
	OrthoOrbital Au 4   pz \
	OrthoOrbital Au 4   d \
	OrthoOrbital Au 4   dxy \
	OrthoOrbital Au 4   dyz \
	OrthoOrbital Au 4   dz2 \
	OrthoOrbital Au 4   dxz \
	OrthoOrbital Au 4   dx2-y2 \
	OrthoOrbital Au 5   s \
	OrthoOrbital Au 5   p \
	OrthoOrbital Au 5   px \
	OrthoOrbital Au 5   py \
	OrthoOrbital Au 5   pz \
	OrthoOrbital Au 5   d \
	OrthoOrbital Au 5   dxy \
	OrthoOrbital Au 5   dyz \
	OrthoOrbital Au 5   dz2 \
	OrthoOrbital Au 5   dxz \
	OrthoOrbital Au 5   dx2-y2 \
	OrthoOrbital Au 6   s \
	OrthoOrbital Au 6   p \
	OrthoOrbital Au 6   px \
	OrthoOrbital Au 6   py \
	OrthoOrbital Au 6   pz \
	OrthoOrbital Au 6   d \
	OrthoOrbital Au 6   dxy \
	OrthoOrbital Au 6   dyz \
	OrthoOrbital Au 6   dz2 \
	OrthoOrbital Au 6   dxz \
	OrthoOrbital Au 6   dx2-y2 \
	OrthoOrbital Au 7   s \
	OrthoOrbital Au 7   p \
	OrthoOrbital Au 7   px \
	OrthoOrbital Au 7   py \
	OrthoOrbital Au 7   pz \
	OrthoOrbital Au 7   d \
	OrthoOrbital Au 7   dxy \
	OrthoOrbital Au 7   dyz \
	OrthoOrbital Au 7   dz2 \
	OrthoOrbital Au 7   dxz \
	OrthoOrbital Au 7   dx2-y2 \
	OrthoOrbital Au 8   s \
	OrthoOrbital Au 8   p \
	OrthoOrbital Au 8   px \
	OrthoOrbital Au 8   py \
	OrthoOrbital Au 8   pz \
	OrthoOrbital Au 8   d \
	OrthoOrbital Au 8   dxy \
	OrthoOrbital Au 8   dyz \
	OrthoOrbital Au 8   dz2 \
	OrthoOrbital Au 8   dxz \
	OrthoOrbital Au 8   dx2-y2 \
	OrthoOrbital Au 9   s \
	OrthoOrbital Au 9   p \
	OrthoOrbital Au 9   px \
	OrthoOrbital Au 9   py \
	OrthoOrbital Au 9   pz \
	OrthoOrbital Au 9   d \
	OrthoOrbital Au 9   dxy \
	OrthoOrbital Au 9   dyz \
	OrthoOrbital Au 9   dz2 \
	OrthoOrbital Au 9   dxz \
	OrthoOrbital Au 9   dx2-y2 \
	OrthoOrbital Au 10   s \
	OrthoOrbital Au 10   p \
	OrthoOrbital Au 10   px \
	OrthoOrbital Au 10   py \
	OrthoOrbital Au 10   pz \
	OrthoOrbital Au 10   d \
	OrthoOrbital Au 10   dxy \
	OrthoOrbital Au 10   dyz \
	OrthoOrbital Au 10   dz2 \
	OrthoOrbital Au 10   dxz \
	OrthoOrbital Au 10   dx2-y2 \
	OrthoOrbital Au 11   s \
	OrthoOrbital Au 11   p \
	OrthoOrbital Au 11   px \
	OrthoOrbital Au 11   py \
	OrthoOrbital Au 11   pz \
	OrthoOrbital Au 11   d \
	OrthoOrbital Au 11   dxy \
	OrthoOrbital Au 11   dyz \
	OrthoOrbital Au 11   dz2 \
	OrthoOrbital Au 11   dxz \
	OrthoOrbital Au 11   dx2-y2 \
	OrthoOrbital Au 12   s \
	OrthoOrbital Au 12   p \
	OrthoOrbital Au 12   px \
	OrthoOrbital Au 12   py \
	OrthoOrbital Au 12   pz \
	OrthoOrbital Au 12   d \
	OrthoOrbital Au 12   dxy \
	OrthoOrbital Au 12   dyz \
	OrthoOrbital Au 12   dz2 \
	OrthoOrbital Au 12   dxz \
	OrthoOrbital Au 12   dx2-y2 \
	OrthoOrbital Au 13   s \
	OrthoOrbital Au 13   p \
	OrthoOrbital Au 13   px \
	OrthoOrbital Au 13   py \
	OrthoOrbital Au 13   pz \
	OrthoOrbital Au 13   d \
	OrthoOrbital Au 13   dxy \
	OrthoOrbital Au 13   dyz \
	OrthoOrbital Au 13   dz2 \
	OrthoOrbital Au 13   dxz \
	OrthoOrbital Au 13   dx2-y2 \
	OrthoOrbital Au 14   s \
	OrthoOrbital Au 14   p \
	OrthoOrbital Au 14   px \
	OrthoOrbital Au 14   py \
	OrthoOrbital Au 14   pz \
	OrthoOrbital Au 14   d \
	OrthoOrbital Au 14   dxy \
	OrthoOrbital Au 14   dyz \
	OrthoOrbital Au 14   dz2 \
	OrthoOrbital Au 14   dxz \
	OrthoOrbital Au 14   dx2-y2 \
	OrthoOrbital Au 15   s \
	OrthoOrbital Au 15   p \
	OrthoOrbital Au 15   px \
	OrthoOrbital Au 15   py \
	OrthoOrbital Au 15   pz \
	OrthoOrbital Au 15   d \
	OrthoOrbital Au 15   dxy \
	OrthoOrbital Au 15   dyz \
	OrthoOrbital Au 15   dz2 \
	OrthoOrbital Au 15   dxz \
	OrthoOrbital Au 15   dx2-y2 \
	OrthoOrbital Au 16   s \
	OrthoOrbital Au 16   p \
	OrthoOrbital Au 16   px \
	OrthoOrbital Au 16   py \
	OrthoOrbital Au 16   pz \
	OrthoOrbital Au 16   d \
	OrthoOrbital Au 16   dxy \
	OrthoOrbital Au 16   dyz \
	OrthoOrbital Au 16   dz2 \
	OrthoOrbital Au 16   dxz \
	OrthoOrbital Au 16   dx2-y2 \
	OrthoOrbital Au 17   s \
	OrthoOrbital Au 17   p \
	OrthoOrbital Au 17   px \
	OrthoOrbital Au 17   py \
	OrthoOrbital Au 17   pz \
	OrthoOrbital Au 17   d \
	OrthoOrbital Au 17   dxy \
	OrthoOrbital Au 17   dyz \
	OrthoOrbital Au 17   dz2 \
	OrthoOrbital Au 17   dxz \
	OrthoOrbital Au 17   dx2-y2 \
	OrthoOrbital Au 18   s \
	OrthoOrbital Au 18   p \
	OrthoOrbital Au 18   px \
	OrthoOrbital Au 18   py \
	OrthoOrbital Au 18   pz \
	OrthoOrbital Au 18   d \
	OrthoOrbital Au 18   dxy \
	OrthoOrbital Au 18   dyz \
	OrthoOrbital Au 18   dz2 \
	OrthoOrbital Au 18   dxz \
	OrthoOrbital Au 18   dx2-y2 \
	OrthoOrbital Au 19   s \
	OrthoOrbital Au 19   p \
	OrthoOrbital Au 19   px \
	OrthoOrbital Au 19   py \
	OrthoOrbital Au 19   pz \
	OrthoOrbital Au 19   d \
	OrthoOrbital Au 19   dxy \
	OrthoOrbital Au 19   dyz \
	OrthoOrbital Au 19   dz2 \
	OrthoOrbital Au 19   dxz \
	OrthoOrbital Au 19   dx2-y2 \
	OrthoOrbital Au 20   s \
	OrthoOrbital Au 20   p \
	OrthoOrbital Au 20   px \
	OrthoOrbital Au 20   py \
	OrthoOrbital Au 20   pz \
	OrthoOrbital Au 20   d \
	OrthoOrbital Au 20   dxy \
	OrthoOrbital Au 20   dyz \
	OrthoOrbital Au 20   dz2 \
	OrthoOrbital Au 20   dxz \
	OrthoOrbital Au 20   dx2-y2 \
	OrthoOrbital Au 21   s \
	OrthoOrbital Au 21   p \
	OrthoOrbital Au 21   px \
	OrthoOrbital Au 21   py \
	OrthoOrbital Au 21   pz \
	OrthoOrbital Au 21   d \
	OrthoOrbital Au 21   dxy \
	OrthoOrbital Au 21   dyz \
	OrthoOrbital Au 21   dz2 \
	OrthoOrbital Au 21   dxz \
	OrthoOrbital Au 21   dx2-y2 \
	OrthoOrbital Au 22   s \
	OrthoOrbital Au 22   p \
	OrthoOrbital Au 22   px \
	OrthoOrbital Au 22   py \
	OrthoOrbital Au 22   pz \
	OrthoOrbital Au 22   d \
	OrthoOrbital Au 22   dxy \
	OrthoOrbital Au 22   dyz \
	OrthoOrbital Au 22   dz2 \
	OrthoOrbital Au 22   dxz \
	OrthoOrbital Au 22   dx2-y2 \
	OrthoOrbital Au 23   s \
	OrthoOrbital Au 23   p \
	OrthoOrbital Au 23   px \
	OrthoOrbital Au 23   py \
	OrthoOrbital Au 23   pz \
	OrthoOrbital Au 23   d \
	OrthoOrbital Au 23   dxy \
	OrthoOrbital Au 23   dyz \
	OrthoOrbital Au 23   dz2 \
	OrthoOrbital Au 23   dxz \
	OrthoOrbital Au 23   dx2-y2 \
	OrthoOrbital Au 24   s \
	OrthoOrbital Au 24   p \
	OrthoOrbital Au 24   px \
	OrthoOrbital Au 24   py \
	OrthoOrbital Au 24   pz \
	OrthoOrbital Au 24   d \
	OrthoOrbital Au 24   dxy \
	OrthoOrbital Au 24   dyz \
	OrthoOrbital Au 24   dz2 \
	OrthoOrbital Au 24   dxz \
	OrthoOrbital Au 24   dx2-y2 \
	OrthoOrbital Au 25   s \
	OrthoOrbital Au 25   p \
	OrthoOrbital Au 25   px \
	OrthoOrbital Au 25   py \
	OrthoOrbital Au 25   pz \
	OrthoOrbital Au 25   d \
	OrthoOrbital Au 25   dxy \
	OrthoOrbital Au 25   dyz \
	OrthoOrbital Au 25   dz2 \
	OrthoOrbital Au 25   dxz \
	OrthoOrbital Au 25   dx2-y2 \
	OrthoOrbital Au 26   s \
	OrthoOrbital Au 26   p \
	OrthoOrbital Au 26   px \
	OrthoOrbital Au 26   py \
	OrthoOrbital Au 26   pz \
	OrthoOrbital Au 26   d \
	OrthoOrbital Au 26   dxy \
	OrthoOrbital Au 26   dyz \
	OrthoOrbital Au 26   dz2 \
	OrthoOrbital Au 26   dxz \
	OrthoOrbital Au 26   dx2-y2 \
	OrthoOrbital Au 27   s \
	OrthoOrbital Au 27   p \
	OrthoOrbital Au 27   px \
	OrthoOrbital Au 27   py \
	OrthoOrbital Au 27   pz \
	OrthoOrbital Au 27   d \
	OrthoOrbital Au 27   dxy \
	OrthoOrbital Au 27   dyz \
	OrthoOrbital Au 27   dz2 \
	OrthoOrbital Au 27   dxz \
	OrthoOrbital Au 27   dx2-y2 \
	OrthoOrbital Au 28   s \
	OrthoOrbital Au 28   p \
	OrthoOrbital Au 28   px \
	OrthoOrbital Au 28   py \
	OrthoOrbital Au 28   pz \
	OrthoOrbital Au 28   d \
	OrthoOrbital Au 28   dxy \
	OrthoOrbital Au 28   dyz \
	OrthoOrbital Au 28   dz2 \
	OrthoOrbital Au 28   dxz \
	OrthoOrbital Au 28   dx2-y2 \
	OrthoOrbital Au 29   s \
	OrthoOrbital Au 29   p \
	OrthoOrbital Au 29   px \
	OrthoOrbital Au 29   py \
	OrthoOrbital Au 29   pz \
	OrthoOrbital Au 29   d \
	OrthoOrbital Au 29   dxy \
	OrthoOrbital Au 29   dyz \
	OrthoOrbital Au 29   dz2 \
	OrthoOrbital Au 29   dxz \
	OrthoOrbital Au 29   dx2-y2 \
	OrthoOrbital Au 30   s \
	OrthoOrbital Au 30   p \
	OrthoOrbital Au 30   px \
	OrthoOrbital Au 30   py \
	OrthoOrbital Au 30   pz \
	OrthoOrbital Au 30   d \
	OrthoOrbital Au 30   dxy \
	OrthoOrbital Au 30   dyz \
	OrthoOrbital Au 30   dz2 \
	OrthoOrbital Au 30   dxz \
	OrthoOrbital Au 30   dx2-y2 \
	OrthoOrbital Au 31   s \
	OrthoOrbital Au 31   p \
	OrthoOrbital Au 31   px \
	OrthoOrbital Au 31   py \
	OrthoOrbital Au 31   pz \
	OrthoOrbital Au 31   d \
	OrthoOrbital Au 31   dxy \
	OrthoOrbital Au 31   dyz \
	OrthoOrbital Au 31   dz2 \
	OrthoOrbital Au 31   dxz \
	OrthoOrbital Au 31   dx2-y2 \
	OrthoOrbital Au 32   s \
	OrthoOrbital Au 32   p \
	OrthoOrbital Au 32   px \
	OrthoOrbital Au 32   py \
	OrthoOrbital Au 32   pz \
	OrthoOrbital Au 32   d \
	OrthoOrbital Au 32   dxy \
	OrthoOrbital Au 32   dyz \
	OrthoOrbital Au 32   dz2 \
	OrthoOrbital Au 32   dxz \
	OrthoOrbital Au 32   dx2-y2 \
	OrthoOrbital Au 33   s \
	OrthoOrbital Au 33   p \
	OrthoOrbital Au 33   px \
	OrthoOrbital Au 33   py \
	OrthoOrbital Au 33   pz \
	OrthoOrbital Au 33   d \
	OrthoOrbital Au 33   dxy \
	OrthoOrbital Au 33   dyz \
	OrthoOrbital Au 33   dz2 \
	OrthoOrbital Au 33   dxz \
	OrthoOrbital Au 33   dx2-y2 \
	OrthoOrbital Au 34   s \
	OrthoOrbital Au 34   p \
	OrthoOrbital Au 34   px \
	OrthoOrbital Au 34   py \
	OrthoOrbital Au 34   pz \
	OrthoOrbital Au 34   d \
	OrthoOrbital Au 34   dxy \
	OrthoOrbital Au 34   dyz \
	OrthoOrbital Au 34   dz2 \
	OrthoOrbital Au 34   dxz \
	OrthoOrbital Au 34   dx2-y2 \
	OrthoOrbital Au 35   s \
	OrthoOrbital Au 35   p \
	OrthoOrbital Au 35   px \
	OrthoOrbital Au 35   py \
	OrthoOrbital Au 35   pz \
	OrthoOrbital Au 35   d \
	OrthoOrbital Au 35   dxy \
	OrthoOrbital Au 35   dyz \
	OrthoOrbital Au 35   dz2 \
	OrthoOrbital Au 35   dxz \
	OrthoOrbital Au 35   dx2-y2 \
	OrthoOrbital Au 36   s \
	OrthoOrbital Au 36   p \
	OrthoOrbital Au 36   px \
	OrthoOrbital Au 36   py \
	OrthoOrbital Au 36   pz \
	OrthoOrbital Au 36   d \
	OrthoOrbital Au 36   dxy \
	OrthoOrbital Au 36   dyz \
	OrthoOrbital Au 36   dz2 \
	OrthoOrbital Au 36   dxz \
	OrthoOrbital Au 36   dx2-y2 \
	OrthoOrbital Au 37   s \
	OrthoOrbital Au 37   p \
	OrthoOrbital Au 37   px \
	OrthoOrbital Au 37   py \
	OrthoOrbital Au 37   pz \
	OrthoOrbital Au 37   d \
	OrthoOrbital Au 37   dxy \
	OrthoOrbital Au 37   dyz \
	OrthoOrbital Au 37   dz2 \
	OrthoOrbital Au 37   dxz \
	OrthoOrbital Au 37   dx2-y2 \
	OrthoOrbital Au 38   s \
	OrthoOrbital Au 38   p \
	OrthoOrbital Au 38   px \
	OrthoOrbital Au 38   py \
	OrthoOrbital Au 38   pz \
	OrthoOrbital Au 38   d \
	OrthoOrbital Au 38   dxy \
	OrthoOrbital Au 38   dyz \
	OrthoOrbital Au 38   dz2 \
	OrthoOrbital Au 38   dxz \
	OrthoOrbital Au 38   dx2-y2 \
	OrthoOrbital Au 39   s \
	OrthoOrbital Au 39   p \
	OrthoOrbital Au 39   px \
	OrthoOrbital Au 39   py \
	OrthoOrbital Au 39   pz \
	OrthoOrbital Au 39   d \
	OrthoOrbital Au 39   dxy \
	OrthoOrbital Au 39   dyz \
	OrthoOrbital Au 39   dz2 \
	OrthoOrbital Au 39   dxz \
	OrthoOrbital Au 39   dx2-y2 \
	OrthoOrbital Au 40   s \
	OrthoOrbital Au 40   p \
	OrthoOrbital Au 40   px \
	OrthoOrbital Au 40   py \
	OrthoOrbital Au 40   pz \
	OrthoOrbital Au 40   d \
	OrthoOrbital Au 40   dxy \
	OrthoOrbital Au 40   dyz \
	OrthoOrbital Au 40   dz2 \
	OrthoOrbital Au 40   dxz \
	OrthoOrbital Au 40   dx2-y2 \
	OrthoOrbital Au 41   s \
	OrthoOrbital Au 41   p \
	OrthoOrbital Au 41   px \
	OrthoOrbital Au 41   py \
	OrthoOrbital Au 41   pz \
	OrthoOrbital Au 41   d \
	OrthoOrbital Au 41   dxy \
	OrthoOrbital Au 41   dyz \
	OrthoOrbital Au 41   dz2 \
	OrthoOrbital Au 41   dxz \
	OrthoOrbital Au 41   dx2-y2 \
	OrthoOrbital Au 42   s \
	OrthoOrbital Au 42   p \
	OrthoOrbital Au 42   px \
	OrthoOrbital Au 42   py \
	OrthoOrbital Au 42   pz \
	OrthoOrbital Au 42   d \
	OrthoOrbital Au 42   dxy \
	OrthoOrbital Au 42   dyz \
	OrthoOrbital Au 42   dz2 \
	OrthoOrbital Au 42   dxz \
	OrthoOrbital Au 42   dx2-y2 \
	OrthoOrbital Au 43   s \
	OrthoOrbital Au 43   p \
	OrthoOrbital Au 43   px \
	OrthoOrbital Au 43   py \
	OrthoOrbital Au 43   pz \
	OrthoOrbital Au 43   d \
	OrthoOrbital Au 43   dxy \
	OrthoOrbital Au 43   dyz \
	OrthoOrbital Au 43   dz2 \
	OrthoOrbital Au 43   dxz \
	OrthoOrbital Au 43   dx2-y2 \
	OrthoOrbital Au 44   s \
	OrthoOrbital Au 44   p \
	OrthoOrbital Au 44   px \
	OrthoOrbital Au 44   py \
	OrthoOrbital Au 44   pz \
	OrthoOrbital Au 44   d \
	OrthoOrbital Au 44   dxy \
	OrthoOrbital Au 44   dyz \
	OrthoOrbital Au 44   dz2 \
	OrthoOrbital Au 44   dxz \
	OrthoOrbital Au 44   dx2-y2 \
	OrthoOrbital Au 45   s \
	OrthoOrbital Au 45   p \
	OrthoOrbital Au 45   px \
	OrthoOrbital Au 45   py \
	OrthoOrbital Au 45   pz \
	OrthoOrbital Au 45   d \
	OrthoOrbital Au 45   dxy \
	OrthoOrbital Au 45   dyz \
	OrthoOrbital Au 45   dz2 \
	OrthoOrbital Au 45   dxz \
	OrthoOrbital Au 45   dx2-y2 \
	OrthoOrbital Au 46   s \
	OrthoOrbital Au 46   p \
	OrthoOrbital Au 46   px \
	OrthoOrbital Au 46   py \
	OrthoOrbital Au 46   pz \
	OrthoOrbital Au 46   d \
	OrthoOrbital Au 46   dxy \
	OrthoOrbital Au 46   dyz \
	OrthoOrbital Au 46   dz2 \
	OrthoOrbital Au 46   dxz \
	OrthoOrbital Au 46   dx2-y2 \
	OrthoOrbital Au 47   s \
	OrthoOrbital Au 47   p \
	OrthoOrbital Au 47   px \
	OrthoOrbital Au 47   py \
	OrthoOrbital Au 47   pz \
	OrthoOrbital Au 47   d \
	OrthoOrbital Au 47   dxy \
	OrthoOrbital Au 47   dyz \
	OrthoOrbital Au 47   dz2 \
	OrthoOrbital Au 47   dxz \
	OrthoOrbital Au 47   dx2-y2 \
	OrthoOrbital Au 48   s \
	OrthoOrbital Au 48   p \
	OrthoOrbital Au 48   px \
	OrthoOrbital Au 48   py \
	OrthoOrbital Au 48   pz \
	OrthoOrbital Au 48   d \
	OrthoOrbital Au 48   dxy \
	OrthoOrbital Au 48   dyz \
	OrthoOrbital Au 48   dz2 \
	OrthoOrbital Au 48   dxz \
	OrthoOrbital Au 48   dx2-y2 \
	OrthoOrbital C 1   s \
	OrthoOrbital C 1   p \
	OrthoOrbital C 1   px \
	OrthoOrbital C 1   py \
	OrthoOrbital C 1   pz \
	OrthoOrbital O 1   s \
	OrthoOrbital O 1   p \
	OrthoOrbital O 1   px \
	OrthoOrbital O 1   py \
	OrthoOrbital O 1   pz
dump End ElecDensity KEdensity BandEigs EigStats RhoAtom DOS Kpoints
dump Ionic State IonicPositions Lattice EigStats Ecomponents
dump 
dump 
dump 
dump 
dump 
dump 
dump 
dump 
dump-name jdft.$VAR
elec-cutoff 20
elec-eigen-algo Davidson
elec-ex-corr gga-PBE
elec-initial-magnetization 0.000000 no
elec-n-bands 496
elec-smearing Fermi 0.001
electronic-minimize  \
	dirUpdateScheme      FletcherReeves \
	linminMethod         DirUpdateRecommended \
	nIterations          100 \
	history              15 \
	knormThreshold       0 \
	energyDiffThreshold  1e-07 \
	nEnergyDiff          2 \
	alphaTstart          1 \
	alphaTmin            1e-10 \
	updateTestStepSize   yes \
	alphaTreduceFactor   0.1 \
	alphaTincreaseFactor 3 \
	nAlphaAdjustMax      3 \
	wolfeEnergy          0.0001 \
	wolfeGradient        0.9 \
	fdTest               no
exchange-regularization WignerSeitzTruncated
fluid LinearPCM 298.000000 1.013250
fluid-anion F- 0.5 MeanFieldLJ \
	epsBulk 1 \
	pMol 0 \
	epsInf 1 \
	Pvap 0 \
	sigmaBulk 0 \
	Rvdw 2.24877 \
	Res 0 \
	tauNuc 343133
fluid-cation Na+ 0.5 MeanFieldLJ \
	epsBulk 1 \
	pMol 0 \
	epsInf 1 \
	Pvap 0 \
	sigmaBulk 0 \
	Rvdw 2.19208 \
	Res 0 \
	tauNuc 343133
fluid-ex-corr lda-TF lda-PZ
fluid-gummel-loop 10 1.000000e-05
fluid-minimize  \
	dirUpdateScheme      PolakRibiere \
	linminMethod         DirUpdateRecommended \
	nIterations          400 \
	history              15 \
	knormThreshold       1e-11 \
	energyDiffThreshold  0 \
	nEnergyDiff          2 \
	alphaTstart          1 \
	alphaTmin            1e-10 \
	updateTestStepSize   yes \
	alphaTreduceFactor   0.1 \
	alphaTincreaseFactor 3 \
	nAlphaAdjustMax      6 \
	wolfeEnergy          0.0001 \
	wolfeGradient        0.9 \
	fdTest               no
fluid-solvent H2O 55.338 ScalarEOS \
	epsBulk 78.4 \
	pMol 0.92466 \
	epsInf 1.77 \
	Pvap 1.06736e-10 \
	sigmaBulk 4.62e-05 \
	Rvdw 2.61727 \
	Res 1.42 \
	tauNuc 343133 \
	poleEl 15 7 1
forces-output-coords Positions
initial-state jdft.$VAR
ion Ni   0.000000000000000   5.274698090909091   3.882074000000000 0
ion Ni   0.000000000000000  15.824098090909089   3.882074000000000 0
ion Ni   7.459552000000000   5.274698090909091   3.882074000000000 0
ion Ni   7.459552000000000  15.824098090909089   3.882074000000000 0
ion Ni   0.000000000000000  -0.000001909090909   9.268439000000001 0
ion Ni   0.000000000000000  10.549398090909088   9.268439000000001 0
ion Ni   7.459552000000000  -0.000001909090909   9.268439000000001 0
ion Ni   7.459552000000000  10.549398090909088   9.268439000000001 0
ion Ni   0.000000000000000   5.274698090909091  14.614135999999998 0
ion Ni   0.000000000000000  15.824098090909089  14.614135999999998 0
ion Ni   7.459552000000000   5.274698090909091  14.614135999999998 0
ion Ni   7.459552000000000  15.824098090909089  14.614135999999998 0
ion Ni   0.000000000000000  -0.000001909090909  19.449507000000001 0
ion Ni   0.000000000000000  10.549398090909088  19.449507000000001 0
ion Ni   7.459552000000000  -0.000001909090909  19.449507000000001 0
ion Ni   7.459552000000000  10.549398090909088  19.449507000000001 0
ion Au   3.729776000000000   7.805942090909090   1.216979000000000 0
ion Au   3.729776000000000  18.355342090909090   1.216979000000000 0
ion Au  11.189328000000000   7.805942090909090   1.216979000000000 0
ion Au  11.189328000000000  18.355342090909090   1.216979000000000 0
ion Au   3.729776000000000   2.622842590909091   6.596434000000001 0
ion Au   3.729776000000000  13.172242590909093   6.596434000000001 0
ion Au  11.189328000000000   2.622842590909091   6.596434000000001 0
ion Au  11.189328000000000  13.172242590909093   6.596434000000001 0
ion Au   3.729776000000000   2.743454090909090   1.216979000000000 0
ion Au   3.729776000000000  13.292854090909094   1.216979000000000 0
ion Au  11.189328000000000   2.743454090909090   1.216979000000000 0
ion Au  11.189328000000000  13.292854090909094   1.216979000000000 0
ion Au   3.729776000000000   7.926553590909089   6.596434000000001 0
ion Au   3.729776000000000  18.475953590909089   6.596434000000001 0
ion Au  11.189328000000000   7.926553590909089   6.596434000000001 0
ion Au  11.189328000000000  18.475953590909089   6.596434000000001 0
ion Au   0.000000000000000   5.274698090909091   9.262795000000001 0
ion Au   0.000000000000000  15.824098090909089   9.262795000000001 0
ion Au   7.459552000000000   5.274698090909091   9.262795000000001 0
ion Au   7.459552000000000  15.824098090909089   9.262795000000001 0
ion Au   0.000000000000000  -0.000001909090909   3.807964000000000 0
ion Au   0.000000000000000  10.549398090909088   3.807964000000000 0
ion Au   7.459552000000000  -0.000001909090909   3.807964000000000 0
ion Au   7.459552000000000  10.549398090909088   3.807964000000000 0
ion Au   3.729776000000000   7.897511090909090  11.929789000000000 0
ion Au   3.729776000000000  18.446911090909090  11.929789000000000 0
ion Au  11.189328000000000   7.897511090909090  11.929789000000000 0
ion Au  11.189328000000000  18.446911090909090  11.929789000000000 0
ion Au   3.729776000000000   2.633307590909090  17.362413000000000 0
ion Au   3.729776000000000  13.182697090909095  17.362413000000000 0
ion Au  11.189328000000000   2.633307590909090  17.362413000000000 0
ion Au  11.189328000000000  13.182697090909095  17.362413000000000 0
ion Au   3.729776000000000   2.651885090909093  11.929789000000000 0
ion Au   3.729776000000000  13.201285090909092  11.929789000000000 0
ion Au  11.189328000000000   2.651885090909093  11.929789000000000 0
ion Au  11.189328000000000  13.201285090909092  11.929789000000000 0
ion Au   3.729776000000000   7.916088590909090  17.362413000000000 0
ion Au   3.729776000000000  18.465499090909091  17.362413000000000 0
ion Au  11.189328000000000   7.916088590909090  17.362413000000000 0
ion Au  11.189328000000000  18.465499090909091  17.362413000000000 0
ion Au   0.000000000000000   5.274698090909091  19.814938000000001 0
ion Au   0.000000000000000  15.824098090909089  19.814938000000001 0
ion Au   7.459552000000000   5.274698090909091  19.814938000000001 0
ion Au   7.459552000000000  15.824098090909089  19.814938000000001 0
ion Au   0.000000000000000  -0.000001909090909  14.479526000000000 0
ion Au   0.000000000000000  10.549398090909088  14.479526000000000 0
ion Au   7.459552000000000  -0.000001909090909  14.479526000000000 0
ion Au   7.459552000000000  10.549398090909088  14.479526000000000 0
ion C   7.459552000000000   5.274698090909091  23.553941038128158 1  Linear 0 0 1
ion O   7.519645999999999   5.274698090909091  25.722910432788471 1  Linear 0 0 1
ion-species /projects/musgravc/apps/jdftx-1.6.0/build/pseudopotentials/GBRV_v1.5/$ID_pbe_v1.uspp
ion-species /projects/musgravc/apps/jdftx-1.6.0/build/pseudopotentials/GBRV_v1.5/$ID_pbe_v1.2.uspp
ion-species /projects/musgravc/apps/jdftx-1.6.0/build/pseudopotentials/GBRV_v1.5/$ID_pbe_v1.4.uspp
ion-species /projects/musgravc/apps/jdftx-1.6.0/build/pseudopotentials/GBRV_v1.5/$ID_pbe_v1.5.uspp
ion-width Ecut
ionic-minimize  \
	dirUpdateScheme      L-BFGS \
	linminMethod         DirUpdateRecommended \
	nIterations          100 \
	history              15 \
	knormThreshold       0.0001 \
	energyDiffThreshold  1e-06 \
	nEnergyDiff          2 \
	alphaTstart          1 \
	alphaTmin            1e-10 \
	updateTestStepSize   yes \
	alphaTreduceFactor   0.1 \
	alphaTincreaseFactor 3 \
	nAlphaAdjustMax      3 \
	wolfeEnergy          0.0001 \
	wolfeGradient        0.9 \
	fdTest               no
kpoint   0.000000000000   0.000000000000   0.000000000000  1.00000000000000
kpoint-folding 4 3 1 
latt-move-scale 0 0 0
latt-scale 1 1 1 
lattice  \
	  14.919104000000001    0.000000000000000    0.000000000000000  \
	   0.000000000000000   21.098800000000001    0.000000000000000  \
	   0.000000000000000    0.000000000000000   52.746999000000002 
lattice-minimize  \
	dirUpdateScheme      L-BFGS \
	linminMethod         DirUpdateRecommended \
	nIterations          0 \
	history              15 \
	knormThreshold       0 \
	energyDiffThreshold  1e-06 \
	nEnergyDiff          2 \
	alphaTstart          1 \
	alphaTmin            1e-10 \
	updateTestStepSize   yes \
	alphaTreduceFactor   0.1 \
	alphaTincreaseFactor 3 \
	nAlphaAdjustMax      3 \
	wolfeEnergy          0.0001 \
	wolfeGradient        0.9 \
	fdTest               no
lcao-params 30 1e-06 0.001
pcm-variant CANDLE
spintype z-spin
subspace-rotation-factor 1 yes
symmetries automatic
symmetry-threshold 0.0001
van-der-waals D3



---------- Setting up symmetries ----------

Found 8 point-group symmetries of the bravais lattice
Found 2 space-group symmetries with basis
Applied RMS atom displacement 1.21657e-15 bohrs to make symmetries exact.

---------- Initializing the Grid ----------
R = 
[      14.9191            0            0  ]
[            0      21.0988            0  ]
[            0            0       52.747  ]
unit cell volume = 16603.4
G =
[    0.42115          0          0  ]
[          0   0.297798          0  ]
[          0          0   0.119119  ]
Minimum fftbox size, Smin = [  64  88  216  ]
Chosen fftbox size, S = [  64  90  216  ]

---------- Exchange Correlation functional ----------
Initalized PBE GGA exchange.
Initalized PBE GGA correlation.

---------- Setting up pseudopotentials ----------
Width of ionic core gaussian charges (only for fluid interactions / plotting) set to 0.397384

Reading pseudopotential file '/projects/musgravc/apps/jdftx-1.6.0/build/pseudopotentials/GBRV_v1.5/ni_pbe_v1.4.uspp':
  Title: Ni.  Created by USPP 7.3.6 on 1-4-15
  Reference state energy: -170.398381.  18 valence electrons in orbitals:
    |300>  occupation: 2  eigenvalue: -4.804705
    |310>  occupation: 6  eigenvalue: -3.347751
    |320>  occupation: 8  eigenvalue: -1.042415
    |400>  occupation: 0  eigenvalue: -0.795539
    |410>  occupation: 0  eigenvalue: -0.551375
  lMax: 2  lLocal: 3  QijEcut: 6.5
  6 projectors sampled on a log grid with 611 points:
    l: 0  eig: -4.804708  rCut: 1.44
    l: 0  eig: -0.795541  rCut: 1.44
    l: 1  eig: -3.347753  rCut: 1.55
    l: 1  eig: 0.500000  rCut: 1.55
    l: 2  eig: -1.042418  rCut: 1.5
    l: 2  eig: -0.450000  rCut: 1.5
  Partial core density with radius 0.65
  Transforming core density to a uniform radial grid of dG=0.02 with 1153 points.
  Transforming local potential to a uniform radial grid of dG=0.02 with 1153 points.
  Transforming nonlocal projectors to a uniform radial grid of dG=0.02 with 432 points.
  Transforming density augmentations to a uniform radial grid of dG=0.02 with 1153 points.
  Transforming atomic orbitals to a uniform radial grid of dG=0.02 with 432 points.
  Core radius for overlap checks: 1.55 bohrs.

Reading pseudopotential file '/projects/musgravc/apps/jdftx-1.6.0/build/pseudopotentials/GBRV_v1.5/au_pbe_v1.uspp':
  Title: Au.  Created by USPP 7.3.6 on 14-9-2013
  Reference state energy: -57.375295.  11 valence electrons in orbitals:
    |520>  occupation: 10  eigenvalue: -0.252742
    |600>  occupation: 1  eigenvalue: -0.211744
    |610>  occupation: 0  eigenvalue: -0.028291
  lMax: 3  lLocal: -1  QijEcut: 5
  7 projectors sampled on a log grid with 755 points:
    l: 0  eig: -0.211744  rCut: 2.3
    l: 0  eig: 0.500000  rCut: 2.3
    l: 1  eig: -0.028291  rCut: 2.35
    l: 1  eig: 0.850000  rCut: 2.35
    l: 2  eig: -0.252741  rCut: 2.1
    l: 2  eig: 1.000000  rCut: 2.1
    l: 3  eig: 0.000000  rCut: 2.5
  Partial core density with radius 1
  Transforming core density to a uniform radial grid of dG=0.02 with 1153 points.
  Transforming local potential to a uniform radial grid of dG=0.02 with 1153 points.
  Transforming nonlocal projectors to a uniform radial grid of dG=0.02 with 432 points.
  Transforming density augmentations to a uniform radial grid of dG=0.02 with 1153 points.
  Transforming atomic orbitals to a uniform radial grid of dG=0.02 with 432 points.
  Core radius for overlap checks: 2.50 bohrs.

Reading pseudopotential file '/projects/musgravc/apps/jdftx-1.6.0/build/pseudopotentials/GBRV_v1.5/c_pbe_v1.2.uspp':
  Title: C.  Created by USPP 7.3.6 on 3-2-2014
  Reference state energy: -5.406344.  4 valence electrons in orbitals:
    |200>  occupation: 2  eigenvalue: -0.504890
    |210>  occupation: 2  eigenvalue: -0.194356
  lMax: 1  lLocal: 2  QijEcut: 5
  4 projectors sampled on a log grid with 503 points:
    l: 0  eig: -0.504890  rCut: 1.3
    l: 0  eig: 0.000000  rCut: 1.3
    l: 1  eig: -0.194357  rCut: 1.3
    l: 1  eig: 0.000000  rCut: 1.3
  Partial core density with radius 1.1
  Transforming core density to a uniform radial grid of dG=0.02 with 1153 points.
  Transforming local potential to a uniform radial grid of dG=0.02 with 1153 points.
  Transforming nonlocal projectors to a uniform radial grid of dG=0.02 with 432 points.
  Transforming density augmentations to a uniform radial grid of dG=0.02 with 1153 points.
  Transforming atomic orbitals to a uniform radial grid of dG=0.02 with 432 points.
  Core radius for overlap checks: 1.30 bohrs.

Reading pseudopotential file '/projects/musgravc/apps/jdftx-1.6.0/build/pseudopotentials/GBRV_v1.5/o_pbe_v1.2.uspp':
  Title: O.  Created by USPP 7.3.6 on 3-2-2014
  Reference state energy: -15.894388.  6 valence electrons in orbitals:
    |200>  occupation: 2  eigenvalue: -0.878823
    |210>  occupation: 4  eigenvalue: -0.332131
  lMax: 2  lLocal: 2  QijEcut: 6
  5 projectors sampled on a log grid with 511 points:
    l: 0  eig: -0.878823  rCut: 1.25
    l: 0  eig: 0.000000  rCut: 1.25
    l: 1  eig: -0.332132  rCut: 1.25
    l: 1  eig: 0.000000  rCut: 1.25
    l: 2  eig: 1.000000  rCut: 1.25
  Partial core density with radius 0.7
  Transforming core density to a uniform radial grid of dG=0.02 with 1153 points.
  Transforming local potential to a uniform radial grid of dG=0.02 with 1153 points.
  Transforming nonlocal projectors to a uniform radial grid of dG=0.02 with 432 points.
  Transforming density augmentations to a uniform radial grid of dG=0.02 with 1153 points.
  Transforming atomic orbitals to a uniform radial grid of dG=0.02 with 432 points.
  Core radius for overlap checks: 1.25 bohrs.

Initialized 4 species with 66 total atoms.

Folded 1 k-points by 4x3x1 to 12 k-points.

---------- Setting up k-points, bands, fillings ----------
Adding inversion symmetry to k-mesh for non-inversion-symmetric unit cell.
Reduced to 6 k-points under symmetry. 
Computing the number of bands and number of electrons
Reading initial fillings from file jdft.fillings.
nElectrons: 826.000000   nBands: 496   nStates: 12

----- Setting up reduced wavefunction bases (one per k-point) -----
average nbasis = 70918.750 , ideal nbasis = 70931.190

----- Initializing Supercell corresponding to k-point mesh -----
Lattice vector linear combinations in supercell:
[   4   0   0  ]
[   0   3   0  ]
[   0   0   1  ]
Supercell lattice vectors:
[  59.6764  0  0  ]
[  0  63.2964  0  ]
[  0  0  52.747  ]

Initializing DFT-D3 calculator:
	Parameters set for gga-PBE functional
	s6:  1.000  s_r6:  1.217
	s8:  0.722  s_r8:  1.000
	Per-atom parameters loaded for:
	Ni:  sqrtQ[a0]:  5.285  Rcov[a0]:  1.871  CN: [ 0.00 1.79 6.55 6.29 ]
	Au:  sqrtQ[a0]:  5.707  Rcov[a0]:  2.135  CN: [ 0.00 0.98 ]
	 C:  sqrtQ[a0]:  3.105  Rcov[a0]:  1.417  CN: [ 0.00 0.99 2.00 3.00 3.98 ]
	 O:  sqrtQ[a0]:  2.594  Rcov[a0]:  1.191  CN: [ 0.00 0.99 1.99 ]

Initializing DFT-D2 calculator for fluid / solvation:
	Ni:  C6:  187.33 Eh-a0^6  R0: 2.952 a0
	Au:  C6:  815.23 Eh-a0^6  R0: 3.326 a0 (WARNING: beyond Grimme's data set)
	 C:  C6:   30.35 Eh-a0^6  R0: 2.744 a0
	 O:  C6:   12.14 Eh-a0^6  R0: 2.536 a0

---------- Setting up ewald sum ----------
Optimum gaussian width for ewald sums = 5.062738 bohr.
Real space sum over 495 unit cells with max indices [  5  4  2  ]
Reciprocal space sum over 7735 terms with max indices [  6  8  17  ]

Computing DFT-D3 correction:
# coordination-number Ni 6.003 6.003 6.003 6.003 6.498 6.498 6.498 6.498 6.448 6.447 6.448 6.447 4.851 4.851 4.855 4.855
# coordination-number Au 5.058 5.058 5.058 5.058 8.346 8.346 8.346 8.346 5.058 5.058 5.058 5.058 8.346 8.346 8.346 8.346 8.442 8.442 8.442 8.442 7.660 7.660 7.660 7.660 8.487 8.487 8.487 8.487 7.931 7.928 7.931 7.928 8.487 8.487 8.487 8.487 7.931 7.928 7.931 7.928 5.128 5.126 6.130 5.126 8.683 8.683 8.683 8.683
# coordination-number C 2.010
# coordination-number O 1.023
# diagonal-C6 Ni 137.76 137.76 137.76 137.76 134.59 134.59 134.59 134.59 134.92 134.92 134.92 134.92 141.32 141.32 141.32 141.32
# diagonal-C6 Au 317.16 317.16 317.16 317.16 317.16 317.16 317.16 317.16 317.16 317.16 317.16 317.16 317.16 317.16 317.16 317.16 317.16 317.16 317.16 317.16 317.16 317.16 317.16 317.16 317.16 317.16 317.16 317.16 317.16 317.16 317.16 317.16 317.16 317.16 317.16 317.16 317.16 317.16 317.16 317.16 317.16 317.16 317.16 317.16 317.16 317.16 317.16 317.16
# diagonal-C6 C 29.47
# diagonal-C6 O 12.79
EvdW_6 =   -0.475011
EvdW_8 =   -0.829728

---------- Allocating electronic variables ----------
Initializing wave functions:  reading from 'jdft.wfns'
----- createFluidSolver() ----- (Fluid-side solver setup)
   Initializing fluid molecule 'H2O'
     Initializing site 'O'
       Electron density: proportional to exp(-r/0.36935)*erfc((r-0.51523)/0.36823) with norm 6.826
       Charge density: gaussian nuclear width 0.478731 with net site charge 0.826
       Polarizability: cuspless exponential with width 0.32 and norm 3.73
       Hard sphere radius: 2.57003 bohrs
       Positions in reference frame:
         [ +0.000000 +0.000000 +0.000000 ]
     Initializing site 'H'
       Electron density: proportional to exp(-r/0.34641)*erfc((r-0)/0.390882) with norm 0.587
       Charge density: gaussian nuclear width 0.377945 with net site charge -0.413
       Polarizability: cuspless exponential with width 0.39 and norm 3.3
       Positions in reference frame:
         [ +0.000000 -1.441945 +1.122523 ]
         [ +0.000000 +1.441945 +1.122523 ]
     Net charge: 0   dipole magnitude: 0.927204
     Initializing spherical shell mfKernel with radius 2.61727 Bohr
     deltaS corrections:
       site 'O': -7.54299
       site 'H': -6.83917
   Initializing fluid molecule 'Na+'
     Initializing site 'Na'
       Electron density: proportional to exp(-r/0.19682)*erfc((r-0.71491)/0.41314) with norm 8.1383
       Charge density: gaussian nuclear width 0.365347 with net site charge -1
       Hard sphere radius: 1.86327 bohrs
       Positions in reference frame:
         [ +0.000000 +0.000000 +0.000000 ]
     Net charge: -1   dipole magnitude: 0
     Initializing gaussian mfKernel with width: 1.55004 Bohr
     deltaS corrections:
       site 'Na': -22.3555
   Initializing fluid molecule 'F-'
     Initializing site 'F'
       Electron density: proportional to exp(-r/0.38886)*erfc((r-0)/0.438782) with norm 8
       Charge density: gaussian nuclear width 0.374796 with net site charge 1
       Hard sphere radius: 2.39995 bohrs
       Positions in reference frame:
         [ +0.000000 +0.000000 +0.000000 ]
     Net charge: 1   dipole magnitude: 0
     Initializing gaussian mfKernel with width: 1.59012 Bohr
     deltaS corrections:
       site 'F': -9.04335

Correction to mu due to finite nuclear width = -0.0493607
   Cavity determined by nc: 0.00142 and sigma: 0.707107
   Nonlocal vdW cavity from gaussian model electron density with norm = 8 and sigma = 0.993594 bohr
   Charge asymmetry in cavity with sensitivity pCavity = 36.5 e-bohr/Eh
   Electrostatic cavity expanded by eta = 1.46 bohrs
   Weighted density cavitation model constrained by Nbulk: 0.0049383 bohr^-3, Pvap: 3.14029 kPa, Rvdw: 2.61727 bohr and sigmaBulk: 4.62e-05 Eh/bohr^2 at T: 298 K.
   Weighted density dispersion model using vdW pair potentials with single solvent site with sqrtC6eff: 0.77 SI.
Reading fluid state from 'jdft.fluidState'


---- Citations for features of the code used in this run ----

   Software package:
      R. Sundararaman, K. Letchworth-Weaver, K.A. Schwarz, D. Gunceler, Y. Ozhabes and T.A. Arias, 'JDFTx: software for joint density-functional theory', SoftwareX 6, 278 (2017)

   gga-PBE exchange-correlation functional:
      J.P. Perdew, K. Burke and M. Ernzerhof, Phys. Rev. Lett. 77, 3865 (1996)

   Pseudopotentials:
      KF Garrity, JW Bennett, KM Rabe and D Vanderbilt, Comput. Mater. Sci. 81, 446 (2014)

   DFT-D3 dispersion correction:
      S. Grimme, J. Antony, S. Ehrlich and H. Krieg, J. Chem. Phys. 132, 154104 (2010)

   DFT-D2 dispersion correction:
      S. Grimme, J. Comput. Chem. 27, 1787 (2006)

   Charge-asymmetric nonlocally-determined local-electric (CANDLE) solvation model:
      R. Sundararaman and W.A. Goddard III, J. Chem. Phys. 142, 064107 (2015)

   Total energy minimization with Auxiliary Hamiltonian:
      C. Freysoldt, S. Boeck, and J. Neugebauer, Phys. Rev. B 79, 241103(R) (2009)

   Linear-tetrahedron sampling for density of states:
      G. Lehmann and M. Taut, Phys. status solidi (b) 54, 469 (1972)

This list may not be complete. Please suggest additional citations or
report any other bugs at https://github.com/shankar1729/jdftx/issues

Initialization completed successfully at t[s]:     58.00


Computing DFT-D3 correction:
# coordination-number Ni 6.003 6.003 6.003 6.003 6.498 6.498 6.498 6.498 6.448 6.447 6.448 6.447 4.851 4.851 4.855 4.855
# coordination-number Au 5.058 5.058 5.058 5.058 8.346 8.346 8.346 8.346 5.058 5.058 5.058 5.058 8.346 8.346 8.346 8.346 8.442 8.442 8.442 8.442 7.660 7.660 7.660 7.660 8.487 8.487 8.487 8.487 7.931 7.928 7.931 7.928 8.487 8.487 8.487 8.487 7.931 7.928 7.931 7.928 5.128 5.126 6.130 5.126 8.683 8.683 8.683 8.683
# coordination-number C 2.010
# coordination-number O 1.023
# diagonal-C6 Ni 137.76 137.76 137.76 137.76 134.59 134.59 134.59 134.59 134.92 134.92 134.92 134.92 141.32 141.32 141.32 141.32
# diagonal-C6 Au 317.16 317.16 317.16 317.16 317.16 317.16 317.16 317.16 317.16 317.16 317.16 317.16 317.16 317.16 317.16 317.16 317.16 317.16 317.16 317.16 317.16 317.16 317.16 317.16 317.16 317.16 317.16 317.16 317.16 317.16 317.16 317.16 317.16 317.16 317.16 317.16 317.16 317.16 317.16 317.16 317.16 317.16 317.16 317.16 317.16 317.16 317.16 317.16
# diagonal-C6 C 29.47
# diagonal-C6 O 12.79
EvdW_6 =   -0.475011
EvdW_8 =   -0.829728

-------- Electronic minimization -----------
	Linear fluid (dielectric constant: 78.4, screening length: 8.12261 Bohr) occupying 0.422404 of unit cell:	Completed after 10 iterations at t[s]:     87.78
	FillingsUpdate:  mu: -0.168397057  nElectrons: 826.000000  magneticMoment: [ Abs: 3.43484  Tot: +2.52232 ]
ElecMinimize: Iter:   0  F: -4426.264312517478174  |grad|_K:  1.525e-06  alpha:  1.000e+00
	Linear fluid (dielectric constant: 78.4, screening length: 8.12261 Bohr) occupying 0.423920 of unit cell:	Completed after 24 iterations at t[s]:    314.78
	Linear fluid (dielectric constant: 78.4, screening length: 8.12261 Bohr) occupying 0.422417 of unit cell:	Completed after 24 iterations at t[s]:    392.62
	FillingsUpdate:  mu: -0.168528715  nElectrons: 826.000000  magneticMoment: [ Abs: 3.43837  Tot: +2.52560 ]
	SubspaceRotationAdjust: set factor to 0.546
ElecMinimize: Iter:   1  F: -4426.264328776081129  |grad|_K:  3.810e-07  alpha:  1.405e-02  linmin: -1.705e-02  t[s]:    487.08
	Linear fluid (dielectric constant: 78.4, screening length: 8.12261 Bohr) occupying 0.422416 of unit cell:	Completed after 3 iterations at t[s]:    590.90
	Linear fluid (dielectric constant: 78.4, screening length: 8.12261 Bohr) occupying 0.422416 of unit cell:	Completed after 2 iterations at t[s]:    661.40
	FillingsUpdate:  mu: -0.168518502  nElectrons: 826.000000  magneticMoment: [ Abs: 3.43857  Tot: +2.52569 ]
	SubspaceRotationAdjust: set factor to 0.328
ElecMinimize: Iter:   2  F: -4426.264330206907289  |grad|_K:  1.255e-07  alpha:  1.991e-02  linmin:  2.998e-04  t[s]:    755.98
	Linear fluid (dielectric constant: 78.4, screening length: 8.12261 Bohr) occupying 0.422415 of unit cell:	Completed after 2 iterations at t[s]:    859.42
	Linear fluid (dielectric constant: 78.4, screening length: 8.12261 Bohr) occupying 0.422413 of unit cell:	Completed after 2 iterations at t[s]:    930.03
	FillingsUpdate:  mu: -0.168476100  nElectrons: 826.000000  magneticMoment: [ Abs: 3.43800  Tot: +2.52508 ]
	SubspaceRotationAdjust: set factor to 0.281
ElecMinimize: Iter:   3  F: -4426.264330470825371  |grad|_K:  6.376e-08  alpha:  4.026e-02  linmin: -1.756e-04  t[s]:   1024.46
	Linear fluid (dielectric constant: 78.4, screening length: 8.12261 Bohr) occupying 0.422413 of unit cell:	Completed after 2 iterations at t[s]:   1127.59
	Linear fluid (dielectric constant: 78.4, screening length: 8.12261 Bohr) occupying 0.422412 of unit cell:	Completed after 2 iterations at t[s]:   1198.38
	FillingsUpdate:  mu: -0.168471133  nElectrons: 826.000000  magneticMoment: [ Abs: 3.43791  Tot: +2.52494 ]
	SubspaceRotationAdjust: set factor to 0.197
ElecMinimize: Iter:   4  F: -4426.264330593819068  |grad|_K:  3.507e-08  alpha:  6.546e-02  linmin: -4.934e-03  t[s]:   1292.83
	Linear fluid (dielectric constant: 78.4, screening length: 8.12261 Bohr) occupying 0.422413 of unit cell:	Completed after 2 iterations at t[s]:   1396.02
	Linear fluid (dielectric constant: 78.4, screening length: 8.12261 Bohr) occupying 0.422413 of unit cell:	Completed after 0 iterations at t[s]:   1465.77
	FillingsUpdate:  mu: -0.168480937  nElectrons: 826.000000  magneticMoment: [ Abs: 3.43808  Tot: +2.52507 ]
	SubspaceRotationAdjust: set factor to 0.252
ElecMinimize: Iter:   5  F: -4426.264330633663121  |grad|_K:  1.626e-08  alpha:  6.270e-02  linmin: -8.342e-04  t[s]:   1560.95
	Linear fluid (dielectric constant: 78.4, screening length: 8.12261 Bohr) occupying 0.422413 of unit cell:	Completed after 0 iterations at t[s]:   1662.96
ElecMinimize: 	Predicted alpha/alphaT>3.000000, increasing alphaT to 1.880933e-01.
	Linear fluid (dielectric constant: 78.4, screening length: 8.12261 Bohr) occupying 0.422413 of unit cell:	Completed after 2 iterations at t[s]:   1733.53
	Linear fluid (dielectric constant: 78.4, screening length: 8.12261 Bohr) occupying 0.422413 of unit cell:	Completed after 0 iterations at t[s]:   1803.37
	FillingsUpdate:  mu: -0.168491834  nElectrons: 826.000000  magneticMoment: [ Abs: 3.43821  Tot: +2.52515 ]
	SubspaceRotationAdjust: set factor to 0.221
ElecMinimize: Iter:   6  F: -4426.264330652154968  |grad|_K:  1.651e-08  alpha:  1.582e-01  linmin:  3.721e-04  t[s]:   1897.73
ElecMinimize: Converged (|Delta F|<1.000000e-07 for 2 iters).
Setting wave functions to eigenvectors of Hamiltonian
Converging empty states (this may take a while): |deigs|: 1.502e-09

Computing DFT-D3 correction:
# coordination-number Ni 6.003 6.003 6.003 6.003 6.498 6.498 6.498 6.498 6.448 6.447 6.448 6.447 4.851 4.851 4.855 4.855
# coordination-number Au 5.058 5.058 5.058 5.058 8.346 8.346 8.346 8.346 5.058 5.058 5.058 5.058 8.346 8.346 8.346 8.346 8.442 8.442 8.442 8.442 7.660 7.660 7.660 7.660 8.487 8.487 8.487 8.487 7.931 7.928 7.931 7.928 8.487 8.487 8.487 8.487 7.931 7.928 7.931 7.928 5.128 5.126 6.130 5.126 8.683 8.683 8.683 8.683
# coordination-number C 2.010
# coordination-number O 1.023
# diagonal-C6 Ni 137.76 137.76 137.76 137.76 134.59 134.59 134.59 134.59 134.92 134.92 134.92 134.92 141.32 141.32 141.32 141.32
# diagonal-C6 Au 317.16 317.16 317.16 317.16 317.16 317.16 317.16 317.16 317.16 317.16 317.16 317.16 317.16 317.16 317.16 317.16 317.16 317.16 317.16 317.16 317.16 317.16 317.16 317.16 317.16 317.16 317.16 317.16 317.16 317.16 317.16 317.16 317.16 317.16 317.16 317.16 317.16 317.16 317.16 317.16 317.16 317.16 317.16 317.16 317.16 317.16 317.16 317.16
# diagonal-C6 C 29.47
# diagonal-C6 O 12.79
EvdW_6 =   -0.475011
EvdW_8 =   -0.829728

# Ionic positions in cartesian coordinates:
ion Ni   0.000000000000000   5.274698090909091   3.882074000000000 0
ion Ni   0.000000000000000  15.824098090909091   3.882074000000000 0
ion Ni   7.459552000000000   5.274698090909091   3.882074000000000 0
ion Ni   7.459552000000000  15.824098090909091   3.882074000000000 0
ion Ni   0.000000000000000  -0.000001909090908   9.268439000000001 0
ion Ni   0.000000000000000  10.549398090909088   9.268439000000001 0
ion Ni   7.459552000000000  -0.000001909090908   9.268439000000001 0
ion Ni   7.459552000000000  10.549398090909088   9.268439000000001 0
ion Ni   0.000000000000000   5.274698090909091  14.614135999999998 0
ion Ni   0.000000000000000  15.824098090909091  14.614135999999998 0
ion Ni   7.459552000000000   5.274698090909091  14.614135999999998 0
ion Ni   7.459552000000000  15.824098090909091  14.614135999999998 0
ion Ni   0.000000000000000  -0.000001909090908  19.449507000000001 0
ion Ni   0.000000000000000  10.549398090909088  19.449507000000001 0
ion Ni   7.459552000000000  -0.000001909090908  19.449507000000001 0
ion Ni   7.459552000000000  10.549398090909088  19.449507000000001 0
ion Au   3.729776000000000   7.805942090909091   1.216979000000000 0
ion Au   3.729776000000000  18.355342090909090   1.216979000000000 0
ion Au  11.189328000000000   7.805942090909091   1.216979000000000 0
ion Au  11.189328000000000  18.355342090909090   1.216979000000000 0
ion Au   3.729776000000000   2.622842590909091   6.596434000000001 0
ion Au   3.729776000000000  13.172242590909093   6.596434000000001 0
ion Au  11.189328000000000   2.622842590909091   6.596434000000001 0
ion Au  11.189328000000000  13.172242590909093   6.596434000000001 0
ion Au   3.729776000000000   2.743454090909090   1.216979000000000 0
ion Au   3.729776000000000  13.292854090909092   1.216979000000000 0
ion Au  11.189328000000000   2.743454090909090   1.216979000000000 0
ion Au  11.189328000000000  13.292854090909092   1.216979000000000 0
ion Au   3.729776000000000   7.926553590909090   6.596434000000001 0
ion Au   3.729776000000000  18.475953590909089   6.596434000000001 0
ion Au  11.189328000000000   7.926553590909090   6.596434000000001 0
ion Au  11.189328000000000  18.475953590909089   6.596434000000001 0
ion Au   0.000000000000000   5.274698090909091   9.262795000000001 0
ion Au   0.000000000000000  15.824098090909091   9.262795000000001 0
ion Au   7.459552000000000   5.274698090909091   9.262795000000001 0
ion Au   7.459552000000000  15.824098090909091   9.262795000000001 0
ion Au   0.000000000000000  -0.000001909090908   3.807964000000000 0
ion Au   0.000000000000000  10.549398090909088   3.807964000000000 0
ion Au   7.459552000000000  -0.000001909090908   3.807964000000000 0
ion Au   7.459552000000000  10.549398090909088   3.807964000000000 0
ion Au   3.729776000000000   7.897511090909089  11.929789000000000 0
ion Au   3.729776000000000  18.446911090909090  11.929789000000000 0
ion Au  11.189328000000000   7.897511090909089  11.929789000000000 0
ion Au  11.189328000000000  18.446911090909090  11.929789000000000 0
ion Au   3.729776000000000   2.633307590909091  17.362413000000000 0
ion Au   3.729776000000000  13.182697090909093  17.362413000000000 0
ion Au  11.189328000000000   2.633307590909091  17.362413000000000 0
ion Au  11.189328000000000  13.182697090909093  17.362413000000000 0
ion Au   3.729776000000000   2.651885090909092  11.929789000000000 0
ion Au   3.729776000000000  13.201285090909092  11.929789000000000 0
ion Au  11.189328000000000   2.651885090909092  11.929789000000000 0
ion Au  11.189328000000000  13.201285090909092  11.929789000000000 0
ion Au   3.729776000000000   7.916088590909090  17.362413000000000 0
ion Au   3.729776000000000  18.465499090909088  17.362413000000000 0
ion Au  11.189328000000000   7.916088590909090  17.362413000000000 0
ion Au  11.189328000000000  18.465499090909088  17.362413000000000 0
ion Au   0.000000000000000   5.274698090909091  19.814938000000001 0
ion Au   0.000000000000000  15.824098090909091  19.814938000000001 0
ion Au   7.459552000000000   5.274698090909091  19.814938000000001 0
ion Au   7.459552000000000  15.824098090909091  19.814938000000001 0
ion Au   0.000000000000000  -0.000001909090908  14.479526000000000 0
ion Au   0.000000000000000  10.549398090909088  14.479526000000000 0
ion Au   7.459552000000000  -0.000001909090908  14.479526000000000 0
ion Au   7.459552000000000  10.549398090909088  14.479526000000000 0
ion C   7.459552000000000   5.274698090909091  23.553941038128158 1  Linear 0 0 1
ion O   7.519645999999999   5.274698090909091  25.722910432788471 1  Linear 0 0 1

# Forces in Cartesian coordinates:
force Ni  -0.000010696226952   0.000000000000000  -0.000206172965500 0
force Ni  -0.000011059282679   0.000000000000000  -0.000018030265447 0
force Ni  -0.000009697515370   0.000000000000000  -0.000903946879738 0
force Ni  -0.000012099979736   0.000000000000000   0.000025358970927 0
force Ni   0.000003252839644   0.000066814873485   0.000235043850533 0
force Ni   0.000003252839644  -0.000066814873485   0.000235043850533 0
force Ni   0.000002946278071   0.000244598987702   0.000062632528659 0
force Ni   0.000002946278071  -0.000244598987702   0.000062632528659 0
force Ni  -0.000007799118819   0.000000000000000   0.000387860135980 0
force Ni  -0.000020924812725   0.000000000000000   0.000186068025949 0
force Ni  -0.000011196363589   0.000000000000000   0.006761731103876 0
force Ni  -0.000021890308520   0.000000000000000  -0.000110052900593 0
force Ni  -0.000030237147760   0.000513690772980   0.000279244121940 0
force Ni  -0.000030237147760  -0.000513690772980   0.000279244121940 0
force Ni  -0.000034727834938  -0.002568342194214  -0.001480203878963 0
force Ni  -0.000034727834938   0.002568342194214  -0.001480203878963 0
force Au   0.000067051617519  -0.000220974102986   0.000015939148876 0
force Au   0.000068291043678  -0.000104185725231   0.000171832977199 0
force Au  -0.000035470949562  -0.000220113361581   0.000013705024058 0
force Au  -0.000034907733686  -0.000103713064855   0.000172507010691 0
force Au   0.000079804798031  -0.000335274797489  -0.000003049376335 0
force Au  -0.000048168482321  -0.000361263372540   0.000195962283833 0
force Au  -0.000089892888062  -0.000334703021080  -0.000003885260796 0
force Au   0.000044313101419  -0.000361252478315   0.000197675556436 0
force Au   0.000067051617519   0.000220974102986   0.000015939148876 0
force Au   0.000068291043678   0.000104185725231   0.000171832977199 0
force Au  -0.000035470949562   0.000220113361581   0.000013705024058 0
force Au  -0.000034907733686   0.000103713064855   0.000172507010691 0
force Au   0.000079804798031   0.000335274797489  -0.000003049376335 0
force Au  -0.000048168482321   0.000361263372540   0.000195962283833 0
force Au  -0.000089892888062   0.000334703021080  -0.000003885260796 0
force Au   0.000044313101419   0.000361252478315   0.000197675556436 0
force Au  -0.000018549405087   0.000000000000000  -0.000052438123886 0
force Au  -0.000011660281878   0.000000000000000   0.000180738249275 0
force Au  -0.000018955782756   0.000000000000000  -0.000180228236150 0
force Au  -0.000010934802436   0.000000000000000  -0.000129232613523 0
force Au  -0.000025492315655   0.000058555045393   0.000139792881252 0
force Au  -0.000025492315655  -0.000058555045393   0.000139792881252 0
force Au  -0.000026342625077   0.000195816196004   0.000182177013306 0
force Au  -0.000026342625077  -0.000195816196004   0.000182177013306 0
force Au  -0.000127731474596  -0.000011343345368  -0.000076666319256 0
force Au   0.000052557696429  -0.000003672939884   0.000196002124483 0
force Au   0.000110005688056  -0.000009702178553  -0.000088169336546 0
force Au  -0.000085131098792  -0.000006020236771   0.000193713215593 0
force Au  -0.000888276645894  -0.001585251741887  -0.002308345165814 0
force Au  -0.000127145390574  -0.000411500385343   0.000354518415801 0
force Au   0.000796015320608  -0.001525816973732  -0.002213716570571 0
force Au   0.000114309935008  -0.000406602312660   0.000350541704350 0
force Au  -0.000127731474596   0.000011343345368  -0.000076666319256 0
force Au   0.000052557696429   0.000003672939884   0.000196002124483 0
force Au   0.000110005688056   0.000009702178553  -0.000088169336546 0
force Au  -0.000085131098792   0.000006020236771   0.000193713215593 0
force Au  -0.000888276645894   0.001585251741887  -0.002308345165814 0
force Au  -0.000127145390574   0.000411500385343   0.000354518415801 0
force Au   0.000796015320608   0.001525816973732  -0.002213716570571 0
force Au   0.000114309935008   0.000406602312660   0.000350541704350 0
force Au   0.000029343142171   0.000000000000000  -0.000240018149806 0
force Au   0.000021585849434   0.000000000000000   0.000018130144408 0
force Au  -0.000169928294790   0.000000000000000   0.009908610309003 0
force Au   0.000020961684468   0.000000000000000  -0.000063271715133 0
force Au   0.000001629941104  -0.000007636926705   0.000184516354891 0
force Au   0.000001629941104   0.000007636926705   0.000184516354891 0
force Au   0.000008013443757   0.000107856014196   0.000176988519664 0
force Au   0.000008013443757  -0.000107856014196   0.000176988519664 0
force C   0.000622387339431   0.000000000000000  -0.000299113879250 1  Linear 0 0 1
force O  -0.000329495175905   0.000000000000000   0.000592342364867 1  Linear 0 0 1

# Energy components:
   A_diel =       -0.0252890640591028
   Eewald =    17786.7563942760789359
       EH =    22013.0306003140904068
     Eloc =   -44745.9587710827545379
      Enl =      217.2167968945814209
     EvdW =       -1.3047391612680659
      Exc =    -1783.7835618025364965
 Exc_core =     1102.1911645753903031
       KE =      985.6177319224256053
  MuShift =       -0.0000000000001066
-------------------------------------
     Etot =    -4426.2596731280546010
       TS =        0.0046575240999947
-------------------------------------
        F =    -4426.2643306521549675


Dumping 'jdft.fillings' ... done
Dumping 'jdft.wfns' ... done
Dumping 'jdft.fluidState' ... done
Dumping 'jdft.ionpos' ... done
Dumping 'jdft.lattice' ... done
Dumping 'jdft.eigenvals' ... done
Dumping 'jdft.eigStats' ... 
	eMin: -3.933863 at state 3 ( [ +0.250000 +0.333333 +0.000000 ] spin 1 )
	HOMO: -0.168528 at state 0 ( [ +0.000000 +0.000000 +0.000000 ] spin 1 )
	mu  : -0.168492
	LUMO: -0.168403 at state 11 ( [ +0.500000 +0.333333 +0.000000 ] spin -1 )
	eMax: +0.085412 at state 1 ( [ +0.000000 +0.333333 +0.000000 ] spin 1 )
	HOMO-LUMO gap: +0.000126
	Optical gap  : +0.000167 at state 0 ( [ +0.000000 +0.000000 +0.000000 ] spin 1 )
Dumping 'jdft.Ecomponents' ... done
IonicMinimize: Iter:   0  F: -4426.264330652154968  |grad|_K:  4.692e-04  t[s]:   2181.01

#--- Lowdin population analysis ---
# oxidation-state Ni +0.226 +0.226 +0.226 +0.227 +0.198 +0.198 +0.197 +0.197 +0.210 +0.209 +0.173 +0.207 +0.315 +0.315 +0.305 +0.305
# magnetic-moments Ni +0.001 -0.034 +0.031 +0.008 +0.036 +0.036 +0.054 +0.054 +0.183 +0.139 +0.114 +0.140 +0.468 +0.468 +0.526 +0.526
# oxidation-state Au -0.008 -0.006 -0.008 -0.006 -0.060 -0.060 -0.060 -0.060 -0.008 -0.006 -0.008 -0.006 -0.060 -0.060 -0.060 -0.060 -0.049 -0.048 -0.050 -0.049 -0.114 -0.114 -0.116 -0.116 -0.046 -0.044 -0.046 -0.044 -0.124 -0.125 -0.124 -0.125 -0.046 -0.044 -0.046 -0.044 -0.124 -0.125 -0.124 -0.125 +0.036 +0.039 -0.079 +0.037 -0.058 -0.058 -0.056 -0.056
# magnetic-moments Au -0.003 -0.003 -0.003 -0.003 -0.001 -0.002 -0.001 -0.002 -0.003 -0.003 -0.003 -0.003 -0.001 -0.002 -0.001 -0.002 -0.004 -0.004 -0.002 -0.004 +0.001 +0.001 +0.001 +0.001 -0.005 -0.006 -0.005 -0.006 -0.005 -0.006 -0.005 -0.006 -0.005 -0.006 -0.005 -0.006 -0.005 -0.006 -0.005 -0.006 -0.013 -0.015 -0.002 -0.014 -0.005 -0.005 -0.005 -0.005
# oxidation-state C +0.398
# magnetic-moments C +0.000
# oxidation-state O -0.063
# magnetic-moments O -0.002


Computing DFT-D3 correction:
# coordination-number Ni 6.003 6.003 6.003 6.003 6.498 6.498 6.498 6.498 6.448 6.447 6.448 6.447 4.851 4.851 4.855 4.855
# coordination-number Au 5.058 5.058 5.058 5.058 8.346 8.346 8.346 8.346 5.058 5.058 5.058 5.058 8.346 8.346 8.346 8.346 8.442 8.442 8.442 8.442 7.660 7.660 7.660 7.660 8.487 8.487 8.487 8.487 7.931 7.928 7.931 7.928 8.487 8.487 8.487 8.487 7.931 7.928 7.931 7.928 5.128 5.126 6.130 5.126 8.683 8.683 8.683 8.683
# coordination-number C 2.010
# coordination-number O 1.023
# diagonal-C6 Ni 137.76 137.76 137.76 137.76 134.59 134.59 134.59 134.59 134.92 134.92 134.92 134.92 141.32 141.32 141.32 141.32
# diagonal-C6 Au 317.16 317.16 317.16 317.16 317.16 317.16 317.16 317.16 317.16 317.16 317.16 317.16 317.16 317.16 317.16 317.16 317.16 317.16 317.16 317.16 317.16 317.16 317.16 317.16 317.16 317.16 317.16 317.16 317.16 317.16 317.16 317.16 317.16 317.16 317.16 317.16 317.16 317.16 317.16 317.16 317.16 317.16 317.16 317.16 317.16 317.16 317.16 317.16
# diagonal-C6 C 29.47
# diagonal-C6 O 12.79
EvdW_6 =   -0.475011
EvdW_8 =   -0.829728

-------- Electronic minimization -----------
	Linear fluid (dielectric constant: 78.4, screening length: 8.12261 Bohr) occupying 0.422406 of unit cell:	Completed after 8 iterations at t[s]:   2306.68
	FillingsUpdate:  mu: -0.168292619  nElectrons: 826.000000  magneticMoment: [ Abs: 3.43709  Tot: +2.52359 ]
ElecMinimize: Iter:   0  F: -4426.264316493187835  |grad|_K:  7.117e-07  alpha:  1.000e+00
	Linear fluid (dielectric constant: 78.4, screening length: 8.12261 Bohr) occupying 0.422493 of unit cell:	Completed after 17 iterations at t[s]:   2531.51
	Linear fluid (dielectric constant: 78.4, screening length: 8.12261 Bohr) occupying 0.422411 of unit cell:	Completed after 18 iterations at t[s]:   2607.57
	FillingsUpdate:  mu: -0.168455253  nElectrons: 826.000000  magneticMoment: [ Abs: 3.43866  Tot: +2.52499 ]
	SubspaceRotationAdjust: set factor to 0.264
ElecMinimize: Iter:   1  F: -4426.264329685949633  |grad|_K:  1.022e-07  alpha:  6.035e-02  linmin: -2.667e-03  t[s]:   2702.00
	Linear fluid (dielectric constant: 78.4, screening length: 8.12261 Bohr) occupying 0.422410 of unit cell:	Completed after 2 iterations at t[s]:   2805.32
	Linear fluid (dielectric constant: 78.4, screening length: 8.12261 Bohr) occupying 0.422409 of unit cell:	Completed after 2 iterations at t[s]:   2876.10
	FillingsUpdate:  mu: -0.168472251  nElectrons: 826.000000  magneticMoment: [ Abs: 3.43848  Tot: +2.52478 ]
	SubspaceRotationAdjust: set factor to 0.205
ElecMinimize: Iter:   2  F: -4426.264330270942082  |grad|_K:  5.847e-08  alpha:  1.244e-01  linmin: -2.124e-03  t[s]:   2970.75
	Linear fluid (dielectric constant: 78.4, screening length: 8.12261 Bohr) occupying 0.422410 of unit cell:	Completed after 2 iterations at t[s]:   3073.93
	Linear fluid (dielectric constant: 78.4, screening length: 8.12261 Bohr) occupying 0.422410 of unit cell:	Completed after 0 iterations at t[s]:   3143.65
	FillingsUpdate:  mu: -0.168497526  nElectrons: 826.000000  magneticMoment: [ Abs: 3.43894  Tot: +2.52520 ]
	SubspaceRotationAdjust: set factor to 0.158
ElecMinimize: Iter:   3  F: -4426.264330456116113  |grad|_K:  2.786e-08  alpha:  1.197e-01  linmin:  9.759e-04  t[s]:   3238.04
	Linear fluid (dielectric constant: 78.4, screening length: 8.12261 Bohr) occupying 0.422410 of unit cell:	Completed after 2 iterations at t[s]:   3341.30
	Linear fluid (dielectric constant: 78.4, screening length: 8.12261 Bohr) occupying 0.422410 of unit cell:	Completed after 0 iterations at t[s]:   3410.97
	FillingsUpdate:  mu: -0.168488701  nElectrons: 826.000000  magneticMoment: [ Abs: 3.43886  Tot: +2.52509 ]
	SubspaceRotationAdjust: set factor to 0.173
ElecMinimize: Iter:   4  F: -4426.264330510554828  |grad|_K:  1.713e-08  alpha:  1.567e-01  linmin: -7.802e-03  t[s]:   3505.22
	Linear fluid (dielectric constant: 78.4, screening length: 8.12261 Bohr) occupying 0.422409 of unit cell:	Completed after 0 iterations at t[s]:   3607.40
ElecMinimize: 	Predicted alpha/alphaT>3.000000, increasing alphaT to 4.700446e-01.
	Linear fluid (dielectric constant: 78.4, screening length: 8.12261 Bohr) occupying 0.422408 of unit cell:	Completed after 2 iterations at t[s]:   3678.06
	Linear fluid (dielectric constant: 78.4, screening length: 8.12261 Bohr) occupying 0.422409 of unit cell:	Completed after 0 iterations at t[s]:   3748.24
	FillingsUpdate:  mu: -0.168483099  nElectrons: 826.000000  magneticMoment: [ Abs: 3.43883  Tot: +2.52500 ]
	SubspaceRotationAdjust: set factor to 0.152
ElecMinimize: Iter:   5  F: -4426.264330559679365  |grad|_K:  2.812e-08  alpha:  2.968e-01  linmin:  2.461e-03  t[s]:   3842.57
ElecMinimize: Converged (|Delta F|<1.000000e-07 for 2 iters).
Setting wave functions to eigenvectors of Hamiltonian
Converging empty states (this may take a while): |deigs|: 9.808e-10

Computing DFT-D3 correction:
# coordination-number Ni 6.003 6.003 6.003 6.003 6.498 6.498 6.498 6.498 6.448 6.447 6.448 6.447 4.851 4.851 4.855 4.855
# coordination-number Au 5.058 5.058 5.058 5.058 8.346 8.346 8.346 8.346 5.058 5.058 5.058 5.058 8.346 8.346 8.346 8.346 8.442 8.442 8.442 8.442 7.660 7.660 7.660 7.660 8.487 8.487 8.487 8.487 7.931 7.928 7.931 7.928 8.487 8.487 8.487 8.487 7.931 7.928 7.931 7.928 5.128 5.126 6.130 5.126 8.683 8.683 8.683 8.683
# coordination-number C 2.010
# coordination-number O 1.023
# diagonal-C6 Ni 137.76 137.76 137.76 137.76 134.59 134.59 134.59 134.59 134.92 134.92 134.92 134.92 141.32 141.32 141.32 141.32
# diagonal-C6 Au 317.16 317.16 317.16 317.16 317.16 317.16 317.16 317.16 317.16 317.16 317.16 317.16 317.16 317.16 317.16 317.16 317.16 317.16 317.16 317.16 317.16 317.16 317.16 317.16 317.16 317.16 317.16 317.16 317.16 317.16 317.16 317.16 317.16 317.16 317.16 317.16 317.16 317.16 317.16 317.16 317.16 317.16 317.16 317.16 317.16 317.16 317.16 317.16
# diagonal-C6 C 29.47
# diagonal-C6 O 12.79
EvdW_6 =   -0.475011
EvdW_8 =   -0.829728
IonicMinimize: 	Wolfe criterion not satisfied: alpha: 1  (E-E0)/|gdotd0|: 0.21001  gdotd/gdotd0: -1.12135 (taking cubic step)

Computing DFT-D3 correction:
# coordination-number Ni 6.003 6.003 6.003 6.003 6.498 6.498 6.498 6.498 6.448 6.447 6.448 6.447 4.851 4.851 4.855 4.855
# coordination-number Au 5.058 5.058 5.058 5.058 8.346 8.346 8.346 8.346 5.058 5.058 5.058 5.058 8.346 8.346 8.346 8.346 8.442 8.442 8.442 8.442 7.660 7.660 7.660 7.660 8.487 8.487 8.487 8.487 7.931 7.928 7.931 7.928 8.487 8.487 8.487 8.487 7.931 7.928 7.931 7.928 5.128 5.126 6.130 5.126 8.683 8.683 8.683 8.683
# coordination-number C 2.010
# coordination-number O 1.023
# diagonal-C6 Ni 137.76 137.76 137.76 137.76 134.59 134.59 134.59 134.59 134.92 134.92 134.92 134.92 141.32 141.32 141.32 141.32
# diagonal-C6 Au 317.16 317.16 317.16 317.16 317.16 317.16 317.16 317.16 317.16 317.16 317.16 317.16 317.16 317.16 317.16 317.16 317.16 317.16 317.16 317.16 317.16 317.16 317.16 317.16 317.16 317.16 317.16 317.16 317.16 317.16 317.16 317.16 317.16 317.16 317.16 317.16 317.16 317.16 317.16 317.16 317.16 317.16 317.16 317.16 317.16 317.16 317.16 317.16
# diagonal-C6 C 29.47
# diagonal-C6 O 12.79
EvdW_6 =   -0.475011
EvdW_8 =   -0.829728

-------- Electronic minimization -----------
	Linear fluid (dielectric constant: 78.4, screening length: 8.12261 Bohr) occupying 0.422462 of unit cell:	Completed after 12 iterations at t[s]:   4252.58
	FillingsUpdate:  mu: -0.168281574  nElectrons: 826.000000  magneticMoment: [ Abs: 3.45203  Tot: +2.53751 ]
ElecMinimize: Iter:   0  F: -4426.264266047161982  |grad|_K:  1.356e-06  alpha:  1.000e+00
	Linear fluid (dielectric constant: 78.4, screening length: 8.12261 Bohr) occupying 0.422043 of unit cell:	Completed after 21 iterations at t[s]:   4479.53
	Linear fluid (dielectric constant: 78.4, screening length: 8.12261 Bohr) occupying 0.422417 of unit cell:	Completed after 21 iterations at t[s]:   4556.20
	FillingsUpdate:  mu: -0.168530434  nElectrons: 826.000000  magneticMoment: [ Abs: 3.44244  Tot: +2.52789 ]
	SubspaceRotationAdjust: set factor to 0.314
ElecMinimize: Iter:   1  F: -4426.264326778529721  |grad|_K:  2.199e-07  alpha:  7.998e-02  linmin:  2.544e-03  t[s]:   4650.29
	Linear fluid (dielectric constant: 78.4, screening length: 8.12261 Bohr) occupying 0.422415 of unit cell:	Completed after 3 iterations at t[s]:   4753.87
	Linear fluid (dielectric constant: 78.4, screening length: 8.12261 Bohr) occupying 0.422413 of unit cell:	Completed after 6 iterations at t[s]:   4825.94
	FillingsUpdate:  mu: -0.168554497  nElectrons: 826.000000  magneticMoment: [ Abs: 3.44185  Tot: +2.52719 ]
	SubspaceRotationAdjust: set factor to 0.257
ElecMinimize: Iter:   2  F: -4426.264329918915791  |grad|_K:  1.074e-07  alpha:  1.565e-01  linmin: -8.758e-04  t[s]:   4920.45
	Linear fluid (dielectric constant: 78.4, screening length: 8.12261 Bohr) occupying 0.422405 of unit cell:	Completed after 8 iterations at t[s]:   5025.53
	Linear fluid (dielectric constant: 78.4, screening length: 8.12261 Bohr) occupying 0.422409 of unit cell:	Completed after 7 iterations at t[s]:   5098.01
	FillingsUpdate:  mu: -0.168541847  nElectrons: 826.000000  magneticMoment: [ Abs: 3.44086  Tot: +2.52619 ]
	SubspaceRotationAdjust: set factor to 0.15
ElecMinimize: Iter:   3  F: -4426.264330247700855  |grad|_K:  6.221e-08  alpha:  6.839e-02  linmin:  6.080e-04  t[s]:   5192.53
	Linear fluid (dielectric constant: 78.4, screening length: 8.12261 Bohr) occupying 0.422410 of unit cell:	Completed after 2 iterations at t[s]:   5295.81
	Linear fluid (dielectric constant: 78.4, screening length: 8.12261 Bohr) occupying 0.422411 of unit cell:	Completed after 2 iterations at t[s]:   5366.52
	FillingsUpdate:  mu: -0.168540395  nElectrons: 826.000000  magneticMoment: [ Abs: 3.44086  Tot: +2.52616 ]
	SubspaceRotationAdjust: set factor to 0.175
ElecMinimize: Iter:   4  F: -4426.264330520725707  |grad|_K:  3.991e-08  alpha:  1.683e-01  linmin: -2.179e-04  t[s]:   5462.15
	Linear fluid (dielectric constant: 78.4, screening length: 8.12261 Bohr) occupying 0.422412 of unit cell:	Completed after 2 iterations at t[s]:   5565.39
	Linear fluid (dielectric constant: 78.4, screening length: 8.12261 Bohr) occupying 0.422412 of unit cell:	Completed after 0 iterations at t[s]:   5635.08
	FillingsUpdate:  mu: -0.168514689  nElectrons: 826.000000  magneticMoment: [ Abs: 3.44085  Tot: +2.52612 ]
	SubspaceRotationAdjust: set factor to 0.157
ElecMinimize: Iter:   5  F: -4426.264330618237182  |grad|_K:  2.827e-08  alpha:  1.428e-01  linmin:  1.544e-03  t[s]:   5729.47
	Linear fluid (dielectric constant: 78.4, screening length: 8.12261 Bohr) occupying 0.422412 of unit cell:	Completed after 2 iterations at t[s]:   5832.60
	Linear fluid (dielectric constant: 78.4, screening length: 8.12261 Bohr) occupying 0.422412 of unit cell:	Completed after 0 iterations at t[s]:   5902.38
	FillingsUpdate:  mu: -0.168492628  nElectrons: 826.000000  magneticMoment: [ Abs: 3.44061  Tot: +2.52585 ]
	SubspaceRotationAdjust: set factor to 0.146
ElecMinimize: Iter:   6  F: -4426.264330667334434  |grad|_K:  1.844e-08  alpha:  1.558e-01  linmin: -3.566e-03  t[s]:   5996.71
ElecMinimize: Converged (|Delta F|<1.000000e-07 for 2 iters).
Setting wave functions to eigenvectors of Hamiltonian
Converging empty states (this may take a while): |deigs|: 5.437e-10

Computing DFT-D3 correction:
# coordination-number Ni 6.003 6.003 6.003 6.003 6.498 6.498 6.498 6.498 6.448 6.447 6.448 6.447 4.851 4.851 4.855 4.855
# coordination-number Au 5.058 5.058 5.058 5.058 8.346 8.346 8.346 8.346 5.058 5.058 5.058 5.058 8.346 8.346 8.346 8.346 8.442 8.442 8.442 8.442 7.660 7.660 7.660 7.660 8.487 8.487 8.487 8.487 7.931 7.928 7.931 7.928 8.487 8.487 8.487 8.487 7.931 7.928 7.931 7.928 5.128 5.126 6.130 5.126 8.683 8.683 8.683 8.683
# coordination-number C 2.010
# coordination-number O 1.023
# diagonal-C6 Ni 137.76 137.76 137.76 137.76 134.59 134.59 134.59 134.59 134.92 134.92 134.92 134.92 141.32 141.32 141.32 141.32
# diagonal-C6 Au 317.16 317.16 317.16 317.16 317.16 317.16 317.16 317.16 317.16 317.16 317.16 317.16 317.16 317.16 317.16 317.16 317.16 317.16 317.16 317.16 317.16 317.16 317.16 317.16 317.16 317.16 317.16 317.16 317.16 317.16 317.16 317.16 317.16 317.16 317.16 317.16 317.16 317.16 317.16 317.16 317.16 317.16 317.16 317.16 317.16 317.16 317.16 317.16
# diagonal-C6 C 29.47
# diagonal-C6 O 12.79
EvdW_6 =   -0.475011
EvdW_8 =   -0.829728

# Ionic positions in cartesian coordinates:
ion Ni   0.000000000000000   5.274698090909091   3.882074000000000 0
ion Ni   0.000000000000000  15.824098090909091   3.882074000000000 0
ion Ni   7.459552000000000   5.274698090909091   3.882074000000000 0
ion Ni   7.459552000000000  15.824098090909091   3.882074000000000 0
ion Ni   0.000000000000000  -0.000001909090908   9.268439000000001 0
ion Ni   0.000000000000000  10.549398090909088   9.268439000000001 0
ion Ni   7.459552000000000  -0.000001909090908   9.268439000000001 0
ion Ni   7.459552000000000  10.549398090909088   9.268439000000001 0
ion Ni   0.000000000000000   5.274698090909091  14.614135999999998 0
ion Ni   0.000000000000000  15.824098090909091  14.614135999999998 0
ion Ni   7.459552000000000   5.274698090909091  14.614135999999998 0
ion Ni   7.459552000000000  15.824098090909091  14.614135999999998 0
ion Ni   0.000000000000000  -0.000001909090908  19.449507000000001 0
ion Ni   0.000000000000000  10.549398090909088  19.449507000000001 0
ion Ni   7.459552000000000  -0.000001909090908  19.449507000000001 0
ion Ni   7.459552000000000  10.549398090909088  19.449507000000001 0
ion Au   3.729776000000000   7.805942090909091   1.216979000000000 0
ion Au   3.729776000000000  18.355342090909090   1.216979000000000 0
ion Au  11.189328000000000   7.805942090909091   1.216979000000000 0
ion Au  11.189328000000000  18.355342090909090   1.216979000000000 0
ion Au   3.729776000000000   2.622842590909091   6.596434000000001 0
ion Au   3.729776000000000  13.172242590909093   6.596434000000001 0
ion Au  11.189328000000000   2.622842590909091   6.596434000000001 0
ion Au  11.189328000000000  13.172242590909093   6.596434000000001 0
ion Au   3.729776000000000   2.743454090909090   1.216979000000000 0
ion Au   3.729776000000000  13.292854090909092   1.216979000000000 0
ion Au  11.189328000000000   2.743454090909090   1.216979000000000 0
ion Au  11.189328000000000  13.292854090909092   1.216979000000000 0
ion Au   3.729776000000000   7.926553590909090   6.596434000000001 0
ion Au   3.729776000000000  18.475953590909089   6.596434000000001 0
ion Au  11.189328000000000   7.926553590909090   6.596434000000001 0
ion Au  11.189328000000000  18.475953590909089   6.596434000000001 0
ion Au   0.000000000000000   5.274698090909091   9.262795000000001 0
ion Au   0.000000000000000  15.824098090909091   9.262795000000001 0
ion Au   7.459552000000000   5.274698090909091   9.262795000000001 0
ion Au   7.459552000000000  15.824098090909091   9.262795000000001 0
ion Au   0.000000000000000  -0.000001909090908   3.807964000000000 0
ion Au   0.000000000000000  10.549398090909088   3.807964000000000 0
ion Au   7.459552000000000  -0.000001909090908   3.807964000000000 0
ion Au   7.459552000000000  10.549398090909088   3.807964000000000 0
ion Au   3.729776000000000   7.897511090909089  11.929789000000000 0
ion Au   3.729776000000000  18.446911090909090  11.929789000000000 0
ion Au  11.189328000000000   7.897511090909089  11.929789000000000 0
ion Au  11.189328000000000  18.446911090909090  11.929789000000000 0
ion Au   3.729776000000000   2.633307590909091  17.362413000000000 0
ion Au   3.729776000000000  13.182697090909093  17.362413000000000 0
ion Au  11.189328000000000   2.633307590909091  17.362413000000000 0
ion Au  11.189328000000000  13.182697090909093  17.362413000000000 0
ion Au   3.729776000000000   2.651885090909092  11.929789000000000 0
ion Au   3.729776000000000  13.201285090909092  11.929789000000000 0
ion Au  11.189328000000000   2.651885090909092  11.929789000000000 0
ion Au  11.189328000000000  13.201285090909092  11.929789000000000 0
ion Au   3.729776000000000   7.916088590909090  17.362413000000000 0
ion Au   3.729776000000000  18.465499090909088  17.362413000000000 0
ion Au  11.189328000000000   7.916088590909090  17.362413000000000 0
ion Au  11.189328000000000  18.465499090909088  17.362413000000000 0
ion Au   0.000000000000000   5.274698090909091  19.814938000000001 0
ion Au   0.000000000000000  15.824098090909091  19.814938000000001 0
ion Au   7.459552000000000   5.274698090909091  19.814938000000001 0
ion Au   7.459552000000000  15.824098090909091  19.814938000000001 0
ion Au   0.000000000000000  -0.000001909090908  14.479526000000000 0
ion Au   0.000000000000000  10.549398090909088  14.479526000000000 0
ion Au   7.459552000000000  -0.000001909090908  14.479526000000000 0
ion Au   7.459552000000000  10.549398090909088  14.479526000000000 0
ion C   7.459552000000000   5.274698090909091  23.553829572170468 1  Linear 0 0 1
ion O   7.519645999999999   5.274698090909091  25.723131171488880 1  Linear 0 0 1

# Forces in Cartesian coordinates:
force Ni  -0.000010455663539   0.000000000000000  -0.000152060858145 0
force Ni  -0.000010893308999   0.000000000000000   0.000032621125871 0
force Ni  -0.000009896636755   0.000000000000000  -0.000863713187638 0
force Ni  -0.000012172424732   0.000000000000000   0.000067202704848 0
force Ni   0.000003419133413   0.000064595645773   0.000218132503419 0
force Ni   0.000003419133413  -0.000064595645773   0.000218132503419 0
force Ni   0.000002785698935   0.000246157681212   0.000028640369413 0
force Ni   0.000002785698935  -0.000246157681212   0.000028640369413 0
force Ni  -0.000007744619363   0.000000000000000   0.000305046882606 0
force Ni  -0.000020754659867   0.000000000000000   0.000106950916350 0
force Ni  -0.000011371644895   0.000000000000000   0.006751259496215 0
force Ni  -0.000021937355724   0.000000000000000  -0.000116413015220 0
force Ni  -0.000030328976390   0.000516774817422   0.000203530754914 0
force Ni  -0.000030328976390  -0.000516774817422   0.000203530754914 0
force Ni  -0.000034684930469  -0.002556945847043  -0.001345886364165 0
force Ni  -0.000034684930469   0.002556945847043  -0.001345886364165 0
force Au   0.000065805875489  -0.000218995601681   0.000049786468790 0
force Au   0.000069912052685  -0.000104795767201   0.000204986216482 0
force Au  -0.000034182608605  -0.000218173915871   0.000047571755791 0
force Au  -0.000036533991046  -0.000104392658845   0.000205583950154 0
force Au   0.000081976242932  -0.000335867978054   0.000001854532903 0
force Au  -0.000044465845801  -0.000358514557910   0.000201293207823 0
force Au  -0.000092063064378  -0.000335284012589   0.000001061201356 0
force Au   0.000040610319697  -0.000358493875166   0.000202966382958 0
force Au   0.000065805875489   0.000218995601681   0.000049786468790 0
force Au   0.000069912052685   0.000104795767201   0.000204986216482 0
force Au  -0.000034182608605   0.000218173915871   0.000047571755791 0
force Au  -0.000036533991046   0.000104392658845   0.000205583950154 0
force Au   0.000081976242932   0.000335867978054   0.000001854532903 0
force Au  -0.000044465845801   0.000358514557910   0.000201293207823 0
force Au  -0.000092063064378   0.000335284012589   0.000001061201356 0
force Au   0.000040610319697   0.000358493875166   0.000202966382958 0
force Au  -0.000018572122416   0.000000000000000  -0.000062510160507 0
force Au  -0.000011635517773   0.000000000000000   0.000172652067246 0
force Au  -0.000018958930584   0.000000000000000  -0.000191365831383 0
force Au  -0.000010961684617   0.000000000000000  -0.000141249033688 0
force Au  -0.000025493510291   0.000058261731997   0.000163593777680 0
force Au  -0.000025493510291  -0.000058261731997   0.000163593777680 0
force Au  -0.000026364646133   0.000192561861208   0.000205008994765 0
force Au  -0.000026364646133  -0.000192561861208   0.000205008994765 0
force Au  -0.000120391228123  -0.000013638791057  -0.000091278795995 0
force Au   0.000058069461955  -0.000007881855733   0.000178741899475 0
force Au   0.000102681397817  -0.000011971628548  -0.000102847111658 0
force Au  -0.000090643150706  -0.000010193757153   0.000176480436239 0
[...]
     Etot =    -4426.2596728894422995
       TS =        0.0046577778918408
-------------------------------------
        F =    -4426.2643306673344341


Dumping 'jdft.fillings' ... done
Dumping 'jdft.wfns' ... done
Dumping 'jdft.fluidState' ... done
Dumping 'jdft.ionpos' ... done
Dumping 'jdft.lattice' ... done
Dumping 'jdft.eigenvals' ... done
Dumping 'jdft.eigStats' ... 
	eMin: -3.933782 at state 3 ( [ +0.250000 +0.333333 +0.000000 ] spin 1 )
	HOMO: -0.168536 at state 0 ( [ +0.000000 +0.000000 +0.000000 ] spin 1 )
	mu  : -0.168493
	LUMO: -0.168399 at state 11 ( [ +0.500000 +0.333333 +0.000000 ] spin -1 )
	eMax: +0.085411 at state 1 ( [ +0.000000 +0.333333 +0.000000 ] spin 1 )
	HOMO-LUMO gap: +0.000137
	Optical gap  : +0.000170 at state 0 ( [ +0.000000 +0.000000 +0.000000 ] spin 1 )
Dumping 'jdft.Ecomponents' ... done
IonicMinimize: Iter:   1  F: -4426.264330667334434  |grad|_K:  2.354e-04  alpha:  3.727e-01  linmin: -1.928e-02  t[s]:   6280.52

#--- Lowdin population analysis ---
# oxidation-state Ni +0.227 +0.226 +0.226 +0.227 +0.198 +0.198 +0.197 +0.197 +0.208 +0.209 +0.174 +0.208 +0.312 +0.312 +0.310 +0.310
# magnetic-moments Ni +0.000 -0.035 +0.032 +0.009 +0.036 +0.036 +0.054 +0.054 +0.182 +0.139 +0.115 +0.140 +0.466 +0.466 +0.529 +0.529
# oxidation-state Au -0.008 -0.006 -0.008 -0.006 -0.060 -0.060 -0.060 -0.060 -0.008 -0.006 -0.008 -0.006 -0.060 -0.060 -0.060 -0.060 -0.049 -0.048 -0.050 -0.049 -0.114 -0.114 -0.116 -0.116 -0.046 -0.044 -0.046 -0.044 -0.124 -0.126 -0.124 -0.126 -0.046 -0.044 -0.046 -0.044 -0.124 -0.126 -0.124 -0.126 +0.036 +0.039 -0.079 +0.037 -0.058 -0.058 -0.056 -0.056
# magnetic-moments Au -0.003 -0.003 -0.003 -0.003 -0.001 -0.002 -0.001 -0.002 -0.003 -0.003 -0.003 -0.003 -0.001 -0.002 -0.001 -0.002 -0.004 -0.004 -0.002 -0.004 +0.001 +0.001 +0.001 +0.001 -0.005 -0.006 -0.005 -0.006 -0.005 -0.006 -0.005 -0.006 -0.005 -0.006 -0.005 -0.006 -0.005 -0.006 -0.005 -0.006 -0.013 -0.015 -0.002 -0.014 -0.006 -0.006 -0.005 -0.005
# oxidation-state C +0.398
# magnetic-moments C +0.000
# oxidation-state O -0.063
# magnetic-moments O -0.002


Computing DFT-D3 correction:
# coordination-number Ni 6.003 6.003 6.003 6.003 6.498 6.498 6.498 6.498 6.448 6.447 6.448 6.447 4.851 4.851 4.855 4.855
# coordination-number Au 5.058 5.058 5.058 5.058 8.346 8.346 8.346 8.346 5.058 5.058 5.058 5.058 8.346 8.346 8.346 8.346 8.442 8.442 8.442 8.442 7.660 7.660 7.660 7.660 8.487 8.487 8.487 8.487 7.931 7.928 7.931 7.928 8.487 8.487 8.487 8.487 7.931 7.928 7.931 7.928 5.128 5.126 6.130 5.126 8.683 8.683 8.683 8.683
# coordination-number C 2.010
# coordination-number O 1.023
# diagonal-C6 Ni 137.76 137.76 137.76 137.76 134.59 134.59 134.59 134.59 134.92 134.92 134.92 134.92 141.32 141.32 141.32 141.32
# diagonal-C6 Au 317.16 317.16 317.16 317.16 317.16 317.16 317.16 317.16 317.16 317.16 317.16 317.16 317.16 317.16 317.16 317.16 317.16 317.16 317.16 317.16 317.16 317.16 317.16 317.16 317.16 317.16 317.16 317.16 317.16 317.16 317.16 317.16 317.16 317.16 317.16 317.16 317.16 317.16 317.16 317.16 317.16 317.16 317.16 317.16 317.16 317.16 317.16 317.16
# diagonal-C6 C 29.47
# diagonal-C6 O 12.79
EvdW_6 =   -0.475011
EvdW_8 =   -0.829728

-------- Electronic minimization -----------
	Linear fluid (dielectric constant: 78.4, screening length: 8.12261 Bohr) occupying 0.422411 of unit cell:	Completed after 5 iterations at t[s]:   6405.29
	FillingsUpdate:  mu: -0.168576436  nElectrons: 826.000000  magneticMoment: [ Abs: 3.44252  Tot: +2.52687 ]
ElecMinimize: Iter:   0  F: -4426.264326546940538  |grad|_K:  3.259e-07  alpha:  1.000e+00
	Linear fluid (dielectric constant: 78.4, screening length: 8.12261 Bohr) occupying 0.422393 of unit cell:	Completed after 13 iterations at t[s]:   6629.29
	Linear fluid (dielectric constant: 78.4, screening length: 8.12261 Bohr) occupying 0.422410 of unit cell:	Completed after 13 iterations at t[s]:   6703.52
	FillingsUpdate:  mu: -0.168573683  nElectrons: 826.000000  magneticMoment: [ Abs: 3.44174  Tot: +2.52617 ]
	SubspaceRotationAdjust: set factor to 0.199
ElecMinimize: Iter:   1  F: -4426.264330217192764  |grad|_K:  7.112e-08  alpha:  8.217e-02  linmin:  8.904e-04  t[s]:   6797.90
	Linear fluid (dielectric constant: 78.4, screening length: 8.12261 Bohr) occupying 0.422411 of unit cell:	Completed after 2 iterations at t[s]:   6901.20
	Linear fluid (dielectric constant: 78.4, screening length: 8.12261 Bohr) occupying 0.422412 of unit cell:	Completed after 2 iterations at t[s]:   6971.61
	FillingsUpdate:  mu: -0.168546884  nElectrons: 826.000000  magneticMoment: [ Abs: 3.44197  Tot: +2.52640 ]
	SubspaceRotationAdjust: set factor to 0.171
ElecMinimize: Iter:   2  F: -4426.264330643822177  |grad|_K:  3.765e-08  alpha:  2.010e-01  linmin:  2.107e-05  t[s]:   7066.00
	Linear fluid (dielectric constant: 78.4, screening length: 8.12261 Bohr) occupying 0.422411 of unit cell:	Completed after 2 iterations at t[s]:   7170.37
	Linear fluid (dielectric constant: 78.4, screening length: 8.12261 Bohr) occupying 0.422411 of unit cell:	Completed after 2 iterations at t[s]:   7241.02
	FillingsUpdate:  mu: -0.168508220  nElectrons: 826.000000  magneticMoment: [ Abs: 3.44165  Tot: +2.52608 ]
	SubspaceRotationAdjust: set factor to 0.153
ElecMinimize: Iter:   3  F: -4426.264330710896502  |grad|_K:  2.068e-08  alpha:  1.207e-01  linmin:  5.529e-04  t[s]:   7335.53
	Linear fluid (dielectric constant: 78.4, screening length: 8.12261 Bohr) occupying 0.422412 of unit cell:	Completed after 0 iterations at t[s]:   7438.32
	Linear fluid (dielectric constant: 78.4, screening length: 8.12261 Bohr) occupying 0.422412 of unit cell:	Completed after 2 iterations at t[s]:   7508.87
	FillingsUpdate:  mu: -0.168504987  nElectrons: 826.000000  magneticMoment: [ Abs: 3.44157  Tot: +2.52595 ]
	SubspaceRotationAdjust: set factor to 0.155
ElecMinimize: Iter:   4  F: -4426.264330751289890  |grad|_K:  1.899e-08  alpha:  3.231e-01  linmin:  2.197e-03  t[s]:   7603.33
ElecMinimize: Converged (|Delta F|<1.000000e-07 for 2 iters).
Setting wave functions to eigenvectors of Hamiltonian
Converging empty states (this may take a while): |deigs|: 3.323e-10

Computing DFT-D3 correction:
# coordination-number Ni 6.003 6.003 6.003 6.003 6.498 6.498 6.498 6.498 6.448 6.447 6.448 6.447 4.851 4.851 4.855 4.855
# coordination-number Au 5.058 5.058 5.058 5.058 8.346 8.346 8.346 8.346 5.058 5.058 5.058 5.058 8.346 8.346 8.346 8.346 8.442 8.442 8.442 8.442 7.660 7.660 7.660 7.660 8.487 8.487 8.487 8.487 7.931 7.928 7.931 7.928 8.487 8.487 8.487 8.487 7.931 7.928 7.931 7.928 5.128 5.126 6.130 5.126 8.683 8.683 8.683 8.683
# coordination-number C 2.010
# coordination-number O 1.023
# diagonal-C6 Ni 137.76 137.76 137.76 137.76 134.59 134.59 134.59 134.59 134.92 134.92 134.92 134.92 141.32 141.32 141.32 141.32
# diagonal-C6 Au 317.16 317.16 317.16 317.16 317.16 317.16 317.16 317.16 317.16 317.16 317.16 317.16 317.16 317.16 317.16 317.16 317.16 317.16 317.16 317.16 317.16 317.16 317.16 317.16 317.16 317.16 317.16 317.16 317.16 317.16 317.16 317.16 317.16 317.16 317.16 317.16 317.16 317.16 317.16 317.16 317.16 317.16 317.16 317.16 317.16 317.16 317.16 317.16
# diagonal-C6 C 29.47
# diagonal-C6 O 12.79
EvdW_6 =   -0.475011
EvdW_8 =   -0.829728

# Ionic positions in cartesian coordinates:
ion Ni   0.000000000000000   5.274698090909091   3.882074000000000 0
ion Ni   0.000000000000000  15.824098090909091   3.882074000000000 0
ion Ni   7.459552000000000   5.274698090909091   3.882074000000000 0
ion Ni   7.459552000000000  15.824098090909091   3.882074000000000 0
ion Ni   0.000000000000000  -0.000001909090908   9.268439000000001 0
ion Ni   0.000000000000000  10.549398090909088   9.268439000000001 0
ion Ni   7.459552000000000  -0.000001909090908   9.268439000000001 0
ion Ni   7.459552000000000  10.549398090909088   9.268439000000001 0
ion Ni   0.000000000000000   5.274698090909091  14.614135999999998 0
ion Ni   0.000000000000000  15.824098090909091  14.614135999999998 0
ion Ni   7.459552000000000   5.274698090909091  14.614135999999998 0
ion Ni   7.459552000000000  15.824098090909091  14.614135999999998 0
ion Ni   0.000000000000000  -0.000001909090908  19.449507000000001 0
ion Ni   0.000000000000000  10.549398090909088  19.449507000000001 0
ion Ni   7.459552000000000  -0.000001909090908  19.449507000000001 0
ion Ni   7.459552000000000  10.549398090909088  19.449507000000001 0
ion Au   3.729776000000000   7.805942090909091   1.216979000000000 0
ion Au   3.729776000000000  18.355342090909090   1.216979000000000 0
ion Au  11.189328000000000   7.805942090909091   1.216979000000000 0
ion Au  11.189328000000000  18.355342090909090   1.216979000000000 0
ion Au   3.729776000000000   2.622842590909091   6.596434000000001 0
ion Au   3.729776000000000  13.172242590909093   6.596434000000001 0
ion Au  11.189328000000000   2.622842590909091   6.596434000000001 0
ion Au  11.189328000000000  13.172242590909093   6.596434000000001 0
ion Au   3.729776000000000   2.743454090909090   1.216979000000000 0
ion Au   3.729776000000000  13.292854090909092   1.216979000000000 0
ion Au  11.189328000000000   2.743454090909090   1.216979000000000 0
ion Au  11.189328000000000  13.292854090909092   1.216979000000000 0
ion Au   3.729776000000000   7.926553590909090   6.596434000000001 0
ion Au   3.729776000000000  18.475953590909089   6.596434000000001 0
ion Au  11.189328000000000   7.926553590909090   6.596434000000001 0
ion Au  11.189328000000000  18.475953590909089   6.596434000000001 0
ion Au   0.000000000000000   5.274698090909091   9.262795000000001 0
ion Au   0.000000000000000  15.824098090909091   9.262795000000001 0
ion Au   7.459552000000000   5.274698090909091   9.262795000000001 0
ion Au   7.459552000000000  15.824098090909091   9.262795000000001 0
ion Au   0.000000000000000  -0.000001909090908   3.807964000000000 0
ion Au   0.000000000000000  10.549398090909088   3.807964000000000 0
ion Au   7.459552000000000  -0.000001909090908   3.807964000000000 0
ion Au   7.459552000000000  10.549398090909088   3.807964000000000 0
ion Au   3.729776000000000   7.897511090909089  11.929789000000000 0
ion Au   3.729776000000000  18.446911090909090  11.929789000000000 0
ion Au  11.189328000000000   7.897511090909089  11.929789000000000 0
ion Au  11.189328000000000  18.446911090909090  11.929789000000000 0
ion Au   3.729776000000000   2.633307590909091  17.362413000000000 0
ion Au   3.729776000000000  13.182697090909093  17.362413000000000 0
ion Au  11.189328000000000   2.633307590909091  17.362413000000000 0
ion Au  11.189328000000000  13.182697090909093  17.362413000000000 0
ion Au   3.729776000000000   2.651885090909092  11.929789000000000 0
ion Au   3.729776000000000  13.201285090909092  11.929789000000000 0
ion Au  11.189328000000000   2.651885090909092  11.929789000000000 0
ion Au  11.189328000000000  13.201285090909092  11.929789000000000 0
ion Au   3.729776000000000   7.916088590909090  17.362413000000000 0
ion Au   3.729776000000000  18.465499090909088  17.362413000000000 0
ion Au  11.189328000000000   7.916088590909090  17.362413000000000 0
ion Au  11.189328000000000  18.465499090909088  17.362413000000000 0
ion Au   0.000000000000000   5.274698090909091  19.814938000000001 0
ion Au   0.000000000000000  15.824098090909091  19.814938000000001 0
ion Au   7.459552000000000   5.274698090909091  19.814938000000001 0
ion Au   7.459552000000000  15.824098090909091  19.814938000000001 0
ion Au   0.000000000000000  -0.000001909090908  14.479526000000000 0
ion Au   0.000000000000000  10.549398090909088  14.479526000000000 0
ion Au   7.459552000000000  -0.000001909090908  14.479526000000000 0
ion Au   7.459552000000000  10.549398090909088  14.479526000000000 0
ion C   7.459552000000000   5.274698090909091  23.553863298286995 1  Linear 0 0 1
ion O   7.519645999999999   5.274698090909091  25.723431878547824 1  Linear 0 0 1

# Forces in Cartesian coordinates:
force Ni  -0.000010734006318   0.000000000000000  -0.000187470580861 0
force Ni  -0.000011082713279   0.000000000000000  -0.000000036847203 0
force Ni  -0.000009676294761   0.000000000000000  -0.000892736013059 0
force Ni  -0.000012108561838   0.000000000000000   0.000035990653086 0
force Ni   0.000003200443649   0.000064766357939   0.000235587831475 0
force Ni   0.000003200443649  -0.000064766357939   0.000235587831475 0
force Ni   0.000002947537850   0.000242280795262   0.000049763776668 0
force Ni   0.000002947537850  -0.000242280795262   0.000049763776668 0
force Ni  -0.000007743651320   0.000000000000000   0.000365701775045 0
force Ni  -0.000020998885671   0.000000000000000   0.000164011662420 0
force Ni  -0.000010990000183   0.000000000000000   0.006752841367543 0
force Ni  -0.000021877547115   0.000000000000000  -0.000114385620402 0
force Ni  -0.000030263666699   0.000517313272362   0.000167291035794 0
force Ni  -0.000030263666699  -0.000517313272362   0.000167291035794 0
force Ni  -0.000034630582614  -0.002578410692303  -0.001448950490284 0
force Ni  -0.000034630582614   0.002578410692303  -0.001448950490284 0
force Au   0.000067029522404  -0.000215701256134   0.000010799365445 0
force Au   0.000068757449108  -0.000097032213668   0.000165505984750 0
force Au  -0.000035445679486  -0.000214842322874   0.000008545299592 0
force Au  -0.000035378419355  -0.000096554711331   0.000166166069262 0
force Au   0.000080255535703  -0.000336879802317  -0.000003835465117 0
force Au  -0.000047434094896  -0.000362355555815   0.000200835744928 0
force Au  -0.000090346254930  -0.000336301400624  -0.000004673264655 0
force Au   0.000043573463281  -0.000362346881090   0.000202540257682 0
force Au   0.000067029522404   0.000215701256134   0.000010799365445 0
force Au   0.000068757449108   0.000097032213668   0.000165505984750 0
force Au  -0.000035445679486   0.000214842322874   0.000008545299592 0
force Au  -0.000035378419355   0.000096554711331   0.000166166069262 0
force Au   0.000080255535703   0.000336879802317  -0.000003835465117 0
force Au  -0.000047434094896   0.000362355555815   0.000200835744928 0
force Au  -0.000090346254930   0.000336301400624  -0.000004673264655 0
force Au   0.000043573463281   0.000362346881090   0.000202540257682 0
force Au  -0.000018543998872   0.000000000000000  -0.000059936840519 0
force Au  -0.000011666526038   0.000000000000000   0.000185204237589 0
force Au  -0.000018952614245   0.000000000000000  -0.000187169465176 0
force Au  -0.000010912137515   0.000000000000000  -0.000126548038274 0
force Au  -0.000025494556367   0.000060711275027   0.000138059020253 0
force Au  -0.000025494556367  -0.000060711275027   0.000138059020253 0
force Au  -0.000026337612810   0.000198349116282   0.000180548913823 0
force Au  -0.000026337612810  -0.000198349116282   0.000180548913823 0
force Au  -0.000122295201222  -0.000015088480264  -0.000077536767678 0
force Au   0.000055524273903  -0.000016824200526   0.000199935757342 0
force Au   0.000104568788854  -0.000013434459721  -0.000089048242736 0
force Au  -0.000088093207571  -0.000019162877263   0.000197657811955 0
force Au  -0.000864945951607  -0.001597289639217  -0.002305699433954 0
force Au  -0.000107344657803  -0.000416863377612   0.000351003943939 0
force Au   0.000772599532398  -0.001537724549576  -0.002211029281389 0
force Au   0.000094503968965  -0.000411987647477   0.000347035060168 0
force Au  -0.000122295201222   0.000015088480264  -0.000077536767678 0
force Au   0.000055524273903   0.000016824200526   0.000199935757342 0
force Au   0.000104568788854   0.000013434459721  -0.000089048242736 0
force Au  -0.000088093207571   0.000019162877263   0.000197657811955 0
force Au  -0.000864945951607   0.001597289639217  -0.002305699433954 0
force Au  -0.000107344657803   0.000416863377612   0.000351003943939 0
force Au   0.000772599532398   0.001537724549576  -0.002211029281389 0
force Au   0.000094503968965   0.000411987647477   0.000347035060168 0
force Au   0.000029333927693   0.000000000000000  -0.000240362741638 0
force Au   0.000021573507967   0.000000000000000   0.000002508788886 0
force Au  -0.000171696078507   0.000000000000000   0.009929859957310 0
force Au   0.000020966610333   0.000000000000000  -0.000048013555461 0
force Au   0.000001642776131  -0.000018302677790   0.000184348730125 0
force Au   0.000001642776131   0.000018302677790   0.000184348730125 0
force Au   0.000008011533459   0.000101508688571   0.000191298199449 0
force Au   0.000008011533459  -0.000101508688571   0.000191298199449 0
force C   0.000649165693186   0.000000000000000   0.000476572049862 1  Linear 0 0 1
force O  -0.000348222120236   0.000000000000000  -0.000195534547960 1  Linear 0 0 1

# Energy components:
   A_diel =       -0.0253078308762372
   Eewald =    17786.7339528554366552
       EH =    22013.0138347695828998
     Eloc =   -44745.9187762184446910
      Enl =      217.2164458167956695
     EvdW =       -1.3047389762778583
      Exc =    -1783.7833620340609286
 Exc_core =     1102.1911646526232289
       KE =      985.6171138362183228
  MuShift =       -0.0000000000001066
-------------------------------------
     Etot =    -4426.2596731290013850
       TS =        0.0046576222883379
-------------------------------------
        F =    -4426.2643307512898900


Dumping 'jdft.fillings' ... done
Dumping 'jdft.wfns' ... done
Dumping 'jdft.fluidState' ... done
Dumping 'jdft.ionpos' ... done
Dumping 'jdft.lattice' ... done
Dumping 'jdft.eigenvals' ... done
Dumping 'jdft.eigStats' ... 
	eMin: -3.933877 at state 3 ( [ +0.250000 +0.333333 +0.000000 ] spin 1 )
	HOMO: -0.168534 at state 0 ( [ +0.000000 +0.000000 +0.000000 ] spin 1 )
	mu  : -0.168505
	LUMO: -0.168416 at state 11 ( [ +0.500000 +0.333333 +0.000000 ] spin -1 )
	eMax: +0.085411 at state 1 ( [ +0.000000 +0.333333 +0.000000 ] spin 1 )
	HOMO-LUMO gap: +0.000119
	Optical gap  : +0.000157 at state 0 ( [ +0.000000 +0.000000 +0.000000 ] spin 1 )
Dumping 'jdft.Ecomponents' ... done
IonicMinimize: Iter:   2  F: -4426.264330751289890  |grad|_K:  3.642e-04  alpha:  1.000e+00  linmin:  9.964e-03  t[s]:   7886.99
IonicMinimize: Converged (|Delta F|<1.000000e-06 for 2 iters).

#--- Lowdin population analysis ---
# oxidation-state Ni +0.228 +0.227 +0.227 +0.228 +0.198 +0.198 +0.196 +0.196 +0.209 +0.210 +0.173 +0.208 +0.312 +0.312 +0.306 +0.306
# magnetic-moments Ni +0.000 -0.035 +0.032 +0.010 +0.037 +0.037 +0.054 +0.054 +0.183 +0.139 +0.114 +0.140 +0.466 +0.466 +0.526 +0.526
# oxidation-state Au -0.008 -0.006 -0.008 -0.006 -0.060 -0.060 -0.060 -0.060 -0.008 -0.006 -0.008 -0.006 -0.060 -0.060 -0.060 -0.060 -0.049 -0.048 -0.050 -0.049 -0.114 -0.114 -0.116 -0.116 -0.046 -0.044 -0.046 -0.044 -0.124 -0.125 -0.124 -0.125 -0.046 -0.044 -0.046 -0.044 -0.124 -0.125 -0.124 -0.125 +0.036 +0.039 -0.078 +0.037 -0.058 -0.058 -0.056 -0.056
# magnetic-moments Au -0.003 -0.003 -0.003 -0.003 -0.001 -0.002 -0.001 -0.002 -0.003 -0.003 -0.003 -0.003 -0.001 -0.002 -0.001 -0.002 -0.004 -0.004 -0.002 -0.004 +0.001 +0.001 +0.001 +0.001 -0.005 -0.006 -0.005 -0.006 -0.005 -0.006 -0.005 -0.006 -0.005 -0.006 -0.005 -0.006 -0.005 -0.006 -0.005 -0.006 -0.013 -0.015 -0.002 -0.014 -0.006 -0.006 -0.005 -0.005
# oxidation-state C +0.398
# magnetic-moments C +0.000
# oxidation-state O -0.063
# magnetic-moments O -0.002


Dumping 'jdft.n_up' ... done
Dumping 'jdft.n_dn' ... done
Dumping 'jdft.tau_up' ... done
Dumping 'jdft.tau_dn' ... done
Dumping 'jdft.eigenvals' ... done
Dumping 'jdft.eigStats' ... 
	eMin: -3.933877 at state 3 ( [ +0.250000 +0.333333 +0.000000 ] spin 1 )
	HOMO: -0.168534 at state 0 ( [ +0.000000 +0.000000 +0.000000 ] spin 1 )
	mu  : -0.168505
	LUMO: -0.168416 at state 11 ( [ +0.500000 +0.333333 +0.000000 ] spin -1 )
	eMax: +0.085411 at state 1 ( [ +0.000000 +0.333333 +0.000000 ] spin 1 )
	HOMO-LUMO gap: +0.000119
	Optical gap  : +0.000157 at state 0 ( [ +0.000000 +0.000000 +0.000000 ] spin 1 )
Dumping 'jdft.kPts' ... done
Dumping 'jdft.kMap' ... done
Dumping 'jdft.dosUp' ... done.
Dumping 'jdft.dosDn' ... done.
End date and time: Wed Mar  2 17:37:10 2022  (Duration: 0-2:13:58.77)
Done!
