
*************** JDFTx 1.6.0  ***************

Start date and time: Mon Dec  6 16:31:12 2021
Executable /projects/musgravc/apps/jdftx-1.6.1/build/jdftx with command-line: -i in
Running on hosts (process indices):  shas0209.rc.int.colorado.edu (0-23)
Divided in process groups (process indices):  0 (0)  1 (1)  2 (2)  3 (3)  4 (4)  5 (5)  6 (6)  7 (7)  8 (8)  9 (9)  10 (10)  11 (11)  12 (12)  13 (13)  14 (14)  15 (15)  16 (16)  17 (17)  18 (18)  19 (19)  20 (20)  21 (21)  22 (22)  23 (23)
Resource initialization completed at t[s]:      0.00
Run totals: 24 processes, 24 threads, 0 GPUs


Input parsed successfully to the following command list (including defaults):

basis kpoint-dependent
converge-empty-states yes
coords-type Cartesian
core-overlap-check none
coulomb-interaction Periodic
davidson-band-ratio 1.1
density-of-states Etol 1.000000e-06 Esigma 1.000000e-03 \
		Complete \
	Total \
	OrthoOrbital Pt 1   s \
	OrthoOrbital Pt 1   p \
	OrthoOrbital Pt 1   px \
	OrthoOrbital Pt 1   py \
	OrthoOrbital Pt 1   pz \
	OrthoOrbital Pt 1   d \
	OrthoOrbital Pt 1   dxy \
	OrthoOrbital Pt 1   dyz \
	OrthoOrbital Pt 1   dz2 \
	OrthoOrbital Pt 1   dxz \
	OrthoOrbital Pt 1   dx2-y2 \
	OrthoOrbital Pt 2   s \
	OrthoOrbital Pt 2   p \
	OrthoOrbital Pt 2   px \
	OrthoOrbital Pt 2   py \
	OrthoOrbital Pt 2   pz \
	OrthoOrbital Pt 2   d \
	OrthoOrbital Pt 2   dxy \
	OrthoOrbital Pt 2   dyz \
	OrthoOrbital Pt 2   dz2 \
	OrthoOrbital Pt 2   dxz \
	OrthoOrbital Pt 2   dx2-y2 \
	OrthoOrbital Pt 3   s \
	OrthoOrbital Pt 3   p \
	OrthoOrbital Pt 3   px \
	OrthoOrbital Pt 3   py \
	OrthoOrbital Pt 3   pz \
	OrthoOrbital Pt 3   d \
	OrthoOrbital Pt 3   dxy \
	OrthoOrbital Pt 3   dyz \
	OrthoOrbital Pt 3   dz2 \
	OrthoOrbital Pt 3   dxz \
	OrthoOrbital Pt 3   dx2-y2 \
	OrthoOrbital Pt 4   s \
	OrthoOrbital Pt 4   p \
	OrthoOrbital Pt 4   px \
	OrthoOrbital Pt 4   py \
	OrthoOrbital Pt 4   pz \
	OrthoOrbital Pt 4   d \
	OrthoOrbital Pt 4   dxy \
	OrthoOrbital Pt 4   dyz \
	OrthoOrbital Pt 4   dz2 \
	OrthoOrbital Pt 4   dxz \
	OrthoOrbital Pt 4   dx2-y2 \
	OrthoOrbital Pt 5   s \
	OrthoOrbital Pt 5   p \
	OrthoOrbital Pt 5   px \
	OrthoOrbital Pt 5   py \
	OrthoOrbital Pt 5   pz \
	OrthoOrbital Pt 5   d \
	OrthoOrbital Pt 5   dxy \
	OrthoOrbital Pt 5   dyz \
	OrthoOrbital Pt 5   dz2 \
	OrthoOrbital Pt 5   dxz \
	OrthoOrbital Pt 5   dx2-y2 \
	OrthoOrbital Pt 6   s \
	OrthoOrbital Pt 6   p \
	OrthoOrbital Pt 6   px \
	OrthoOrbital Pt 6   py \
	OrthoOrbital Pt 6   pz \
	OrthoOrbital Pt 6   d \
	OrthoOrbital Pt 6   dxy \
	OrthoOrbital Pt 6   dyz \
	OrthoOrbital Pt 6   dz2 \
	OrthoOrbital Pt 6   dxz \
	OrthoOrbital Pt 6   dx2-y2 \
	OrthoOrbital Pt 7   s \
	OrthoOrbital Pt 7   p \
	OrthoOrbital Pt 7   px \
	OrthoOrbital Pt 7   py \
	OrthoOrbital Pt 7   pz \
	OrthoOrbital Pt 7   d \
	OrthoOrbital Pt 7   dxy \
	OrthoOrbital Pt 7   dyz \
	OrthoOrbital Pt 7   dz2 \
	OrthoOrbital Pt 7   dxz \
	OrthoOrbital Pt 7   dx2-y2 \
	OrthoOrbital Pt 8   s \
	OrthoOrbital Pt 8   p \
	OrthoOrbital Pt 8   px \
	OrthoOrbital Pt 8   py \
	OrthoOrbital Pt 8   pz \
	OrthoOrbital Pt 8   d \
	OrthoOrbital Pt 8   dxy \
	OrthoOrbital Pt 8   dyz \
	OrthoOrbital Pt 8   dz2 \
	OrthoOrbital Pt 8   dxz \
	OrthoOrbital Pt 8   dx2-y2 \
	OrthoOrbital Pt 9   s \
	OrthoOrbital Pt 9   p \
	OrthoOrbital Pt 9   px \
	OrthoOrbital Pt 9   py \
	OrthoOrbital Pt 9   pz \
	OrthoOrbital Pt 9   d \
	OrthoOrbital Pt 9   dxy \
	OrthoOrbital Pt 9   dyz \
	OrthoOrbital Pt 9   dz2 \
	OrthoOrbital Pt 9   dxz \
	OrthoOrbital Pt 9   dx2-y2 \
	OrthoOrbital Pt 10   s \
	OrthoOrbital Pt 10   p \
	OrthoOrbital Pt 10   px \
	OrthoOrbital Pt 10   py \
	OrthoOrbital Pt 10   pz \
	OrthoOrbital Pt 10   d \
	OrthoOrbital Pt 10   dxy \
	OrthoOrbital Pt 10   dyz \
	OrthoOrbital Pt 10   dz2 \
	OrthoOrbital Pt 10   dxz \
	OrthoOrbital Pt 10   dx2-y2
dump End ElecDensity KEdensity BandEigs EigStats RhoAtom DOS Kpoints
dump Ionic State IonicPositions Lattice EigStats Ecomponents
dump 
dump 
dump 
dump 
dump 
dump 
dump 
dump 
dump-name jdft.$VAR
elec-cutoff 20
elec-eigen-algo Davidson
elec-ex-corr gga-PBE
elec-initial-magnetization 0.000000 no
elec-n-bands 96
elec-smearing Fermi 0.001
electronic-minimize  \
	dirUpdateScheme      FletcherReeves \
	linminMethod         DirUpdateRecommended \
	nIterations          100 \
	history              15 \
	knormThreshold       0 \
	energyDiffThreshold  1e-07 \
	nEnergyDiff          2 \
	alphaTstart          1 \
	alphaTmin            1e-10 \
	updateTestStepSize   yes \
	alphaTreduceFactor   0.1 \
	alphaTincreaseFactor 3 \
	nAlphaAdjustMax      3 \
	wolfeEnergy          0.0001 \
	wolfeGradient        0.9 \
	fdTest               no
exchange-regularization WignerSeitzTruncated
fluid LinearPCM 298.000000 1.013250
fluid-anion F- 0.5 MeanFieldLJ \
	epsBulk 1 \
	pMol 0 \
	epsInf 1 \
	Pvap 0 \
	sigmaBulk 0 \
	Rvdw 2.24877 \
	Res 0 \
	tauNuc 343133
fluid-cation Na+ 0.5 MeanFieldLJ \
	epsBulk 1 \
	pMol 0 \
	epsInf 1 \
	Pvap 0 \
	sigmaBulk 0 \
	Rvdw 2.19208 \
	Res 0 \
	tauNuc 343133
fluid-ex-corr lda-TF lda-PZ
fluid-gummel-loop 10 1.000000e-05
fluid-minimize  \
	dirUpdateScheme      PolakRibiere \
	linminMethod         DirUpdateRecommended \
	nIterations          400 \
	history              15 \
	knormThreshold       1e-11 \
	energyDiffThreshold  0 \
	nEnergyDiff          2 \
	alphaTstart          1 \
	alphaTmin            1e-10 \
	updateTestStepSize   yes \
	alphaTreduceFactor   0.1 \
	alphaTincreaseFactor 3 \
	nAlphaAdjustMax      6 \
	wolfeEnergy          0.0001 \
	wolfeGradient        0.9 \
	fdTest               no
fluid-solvent H2O 55.338 ScalarEOS \
	epsBulk 78.4 \
	pMol 0.92466 \
	epsInf 1.77 \
	Pvap 1.06736e-10 \
	sigmaBulk 4.62e-05 \
	Rvdw 2.61727 \
	Res 1.42 \
	tauNuc 343133 \
	poleEl 15 7 1
forces-output-coords Positions
ion Pt   3.699579000000000   1.654502000000000  12.408765999999998 1
ion Pt   0.000000000000000   3.309004000000000   9.099744999999999 1
ion Pt   3.699579000000000   4.963506000000000   5.790773999999999 1
ion Pt   0.000000000000000   6.618008000000000   2.481752999999999 1
ion Pt  -3.699579000000000   8.272510000000000  15.717785999999997 1
ion Pt   3.699579000000000   6.618008000000000  10.754280000000000 1
ion Pt   3.699579000000000   0.000000000000000   7.445258999999999 1
ion Pt   0.000000000000000   1.654502000000000   4.136238999999999 1
ion Pt   3.699579000000000   3.309004000000000   0.827268000000000 1
ion Pt   0.000000000000000   4.963506000000000  14.063250999999998 1
ion-species /projects/musgravc/apps/jdftx-1.6.0/build/pseudopotentials/GBRV_v1.5/$ID_pbe_v1.uspp
ion-species /projects/musgravc/apps/jdftx-1.6.0/build/pseudopotentials/GBRV_v1.5/$ID_pbe_v1.2.uspp
ion-species /projects/musgravc/apps/jdftx-1.6.0/build/pseudopotentials/GBRV_v1.5/$ID_pbe_v1.4.uspp
ion-species /projects/musgravc/apps/jdftx-1.6.0/build/pseudopotentials/GBRV_v1.5/$ID_pbe_v1.5.uspp
ion-width Ecut
ionic-minimize  \
	dirUpdateScheme      L-BFGS \
	linminMethod         DirUpdateRecommended \
	nIterations          100 \
	history              15 \
	knormThreshold       0.0001 \
	energyDiffThreshold  1e-06 \
	nEnergyDiff          2 \
	alphaTstart          1 \
	alphaTmin            1e-10 \
	updateTestStepSize   yes \
	alphaTreduceFactor   0.1 \
	alphaTincreaseFactor 3 \
	nAlphaAdjustMax      3 \
	wolfeEnergy          0.0001 \
	wolfeGradient        0.9 \
	fdTest               no
kpoint   0.000000000000   0.000000000000   0.000000000000  1.00000000000000
kpoint-folding 9 7 1 
latt-move-scale 0 0 0
latt-scale 1 1 1 
lattice  \
	   7.399158000000000   -3.699579000000000    0.000000000000000  \
	   0.000000000000000    8.272510000000000    0.000000000000000  \
	   0.000000000000000    0.000000000000000   49.635063000000002 
lattice-minimize  \
	dirUpdateScheme      L-BFGS \
	linminMethod         DirUpdateRecommended \
	nIterations          0 \
	history              15 \
	knormThreshold       0 \
	energyDiffThreshold  1e-06 \
	nEnergyDiff          2 \
	alphaTstart          1 \
	alphaTmin            1e-10 \
	updateTestStepSize   yes \
	alphaTreduceFactor   0.1 \
	alphaTincreaseFactor 3 \
	nAlphaAdjustMax      3 \
	wolfeEnergy          0.0001 \
	wolfeGradient        0.9 \
	fdTest               no
lcao-params 30 1e-06 0.001
pcm-variant CANDLE
spintype z-spin
subspace-rotation-factor 1 yes
symmetries none
symmetry-threshold 0.0001
van-der-waals D3


Applied RMS atom displacement 0 bohrs to make symmetries exact.

---------- Initializing the Grid ----------
R = 
[      7.39916     -3.69958            0  ]
[            0      8.27251            0  ]
[            0            0      49.6351  ]
unit cell volume = 3038.14
G =
[   0.849176   0.379763         -0  ]
[          0   0.759526          0  ]
[          0         -0   0.126588  ]
Minimum fftbox size, Smin = [  32  40  200  ]
Chosen fftbox size, S = [  32  40  200  ]

---------- Exchange Correlation functional ----------
Initalized PBE GGA exchange.
Initalized PBE GGA correlation.

---------- Setting up pseudopotentials ----------
Width of ionic core gaussian charges (only for fluid interactions / plotting) set to 0.397384

Reading pseudopotential file '/projects/musgravc/apps/jdftx-1.6.0/build/pseudopotentials/GBRV_v1.5/pt_pbe_v1.4.uspp':
  Title: Pt.  Created by USPP 7.3.6 on 31-3-15
  Reference state energy: -105.002503.  16 valence electrons in orbitals:
    |510>  occupation: 6  eigenvalue: -2.158104
    |520>  occupation: 9.5  eigenvalue: -0.335376
    |600>  occupation: 0  eigenvalue: -0.319640
    |610>  occupation: 0  eigenvalue: -0.122947
  lMax: 2  lLocal: 3  QijEcut: 5.5
  6 projectors sampled on a log grid with 745 points:
    l: 0  eig: -0.319640  rCut: 2.45
    l: 0  eig: 1.500000  rCut: 2.45
    l: 1  eig: -2.158104  rCut: 1.6
    l: 1  eig: -0.122947  rCut: 1.6
    l: 2  eig: -0.500000  rCut: 1.6
    l: 2  eig: -0.335375  rCut: 1.6
  Partial core density with radius 1.1
  Transforming core density to a uniform radial grid of dG=0.02 with 1417 points.
  Transforming local potential to a uniform radial grid of dG=0.02 with 1417 points.
  Transforming nonlocal projectors to a uniform radial grid of dG=0.02 with 432 points.
  Transforming density augmentations to a uniform radial grid of dG=0.02 with 1417 points.
  Transforming atomic orbitals to a uniform radial grid of dG=0.02 with 432 points.
  Core radius for overlap checks: 2.45 bohrs.

Initialized 1 species with 10 total atoms.

Folded 1 k-points by 9x7x1 to 63 k-points.

---------- Setting up k-points, bands, fillings ----------
No reducable k-points. 
Computing the number of bands and number of electrons
Calculating initial fillings.
nElectrons: 160.000000   nBands: 96   nStates: 126

----- Setting up reduced wavefunction bases (one per k-point) -----
average nbasis = 12976.429 , ideal nbasis = 12979.177

----- Initializing Supercell corresponding to k-point mesh -----
Lattice vector linear combinations in supercell:
[   9   0   0  ]
[   0   7   0  ]
[   0   0   1  ]
Supercell lattice vectors:
[  66.5924  -25.8971  0  ]
[  0  57.9076  0  ]
[  0  0  49.6351  ]

Initializing DFT-D3 calculator:
	Parameters set for gga-PBE functional
	s6:  1.000  s_r6:  1.217
	s8:  0.722  s_r8:  1.000
	Per-atom parameters loaded for:
	Pt:  sqrtQ[a0]:  5.888  Rcov[a0]:  2.116  CN: [ 0.00 1.92 6.67 ]

Initializing DFT-D2 calculator for fluid / solvation:
	Pt:  C6:  815.23 Eh-a0^6  R0: 3.326 a0 (WARNING: beyond Grimme's data set)

---------- Setting up ewald sum ----------
Optimum gaussian width for ewald sums = 3.936523 bohr.
Real space sum over 975 unit cells with max indices [  7  6  2  ]
Reciprocal space sum over 4257 terms with max indices [  4  5  21  ]

Computing DFT-D3 correction:
# coordination-number Pt 8.734 9.550 9.523 7.152 4.809 9.523 9.550 8.734 4.809 7.152
# diagonal-C6 Pt 336.87 336.87 336.87 336.87 336.87 336.87 336.87 336.87 336.87 336.87
EvdW_6 =   -0.074874
EvdW_8 =   -0.128585

---------- Allocating electronic variables ----------
Initializing wave functions:  linear combination of atomic orbitals
Pt pseudo-atom occupations:   s ( 0 )  p ( 6 0 )  d ( 10 )
	FillingsUpdate:  mu: -0.863676768  nElectrons: 160.000000  magneticMoment: [ Abs: 0.00170  Tot: -0.00016 ]
LCAOMinimize: Iter:   0  F: -884.2491983536865519  |grad|_K:  1.047e-02  alpha:  1.000e+00
LCAOMinimize: 	Step increased F by 5.658883e+01, reducing alpha to 2.396304e-02.
	FillingsUpdate:  mu: -0.312717857  nElectrons: 160.000000  magneticMoment: [ Abs: 0.00139  Tot: -0.00009 ]
LCAOMinimize: Iter:   1  F: -887.9793409402483348  |grad|_K:  4.306e-03  alpha:  2.396e-02  linmin: -2.254e-01  cgtest:  7.601e-01  t[s]:     58.94
LCAOMinimize: Encountered beta<0, resetting CG.
	FillingsUpdate:  mu: +0.130775151  nElectrons: 160.000000  magneticMoment: [ Abs: 0.00123  Tot: +0.00001 ]
LCAOMinimize: Iter:   2  F: -888.5676704540553601  |grad|_K:  2.930e-03  alpha:  3.936e-02  linmin:  8.156e-02  cgtest: -3.023e-01  t[s]:     77.40
	FillingsUpdate:  mu: +0.281266528  nElectrons: 160.000000  magneticMoment: [ Abs: 0.00101  Tot: -0.00003 ]
LCAOMinimize: Iter:   3  F: -889.0679392695005845  |grad|_K:  2.634e-03  alpha:  8.826e-02  linmin: -2.859e-02  cgtest:  8.100e-01  t[s]:     96.21
	FillingsUpdate:  mu: +0.060727736  nElectrons: 160.000000  magneticMoment: [ Abs: 0.00098  Tot: +0.00000 ]
LCAOMinimize: Iter:   4  F: -889.2257920070605905  |grad|_K:  1.280e-03  alpha:  3.433e-02  linmin:  8.454e-02  cgtest: -4.929e-01  t[s]:    114.61
LCAOMinimize: 	Predicted alpha/alphaT>3.000000, increasing alphaT to 1.029802e-01.
	FillingsUpdate:  mu: +0.104177451  nElectrons: 160.000000  magneticMoment: [ Abs: 0.00084  Tot: -0.00009 ]
LCAOMinimize: Iter:   5  F: -889.3512462995225860  |grad|_K:  9.085e-04  alpha:  1.416e-01  linmin:  5.165e-03  cgtest:  6.246e-01  t[s]:    138.09
	FillingsUpdate:  mu: +0.130089291  nElectrons: 160.000000  magneticMoment: [ Abs: 0.00082  Tot: -0.00011 ]
LCAOMinimize: Iter:   6  F: -889.3888342508066671  |grad|_K:  5.940e-04  alpha:  4.197e-02  linmin: -3.956e-02  cgtest:  2.365e-01  t[s]:    156.85
	FillingsUpdate:  mu: +0.161402941  nElectrons: 160.000000  magneticMoment: [ Abs: 0.00080  Tot: -0.00009 ]
LCAOMinimize: Iter:   7  F: -889.4060717472399347  |grad|_K:  9.978e-04  alpha:  4.859e-02  linmin:  1.076e-03  cgtest: -6.491e-02  t[s]:    175.15
	FillingsUpdate:  mu: +0.131479198  nElectrons: 160.000000  magneticMoment: [ Abs: 0.00077  Tot: -0.00005 ]
LCAOMinimize: Iter:   8  F: -889.4255801655320965  |grad|_K:  3.467e-04  alpha:  2.198e-02  linmin:  2.280e-03  cgtest:  2.776e-01  t[s]:    193.67
	FillingsUpdate:  mu: +0.157964152  nElectrons: 160.000000  magneticMoment: [ Abs: 0.00076  Tot: -0.00007 ]
LCAOMinimize: Iter:   9  F: -889.4314258783717833  |grad|_K:  6.020e-04  alpha:  5.322e-02  linmin:  8.403e-04  cgtest: -5.407e-04  t[s]:    212.09
	FillingsUpdate:  mu: +0.163100312  nElectrons: 160.000000  magneticMoment: [ Abs: 0.00074  Tot: -0.00009 ]
LCAOMinimize: Iter:  10  F: -889.4390619823386714  |grad|_K:  4.485e-04  alpha:  2.318e-02  linmin:  2.701e-04  cgtest:  3.627e-02  t[s]:    230.67
	FillingsUpdate:  mu: +0.124747281  nElectrons: 160.000000  magneticMoment: [ Abs: 0.00071  Tot: -0.00008 ]
LCAOMinimize: Iter:  11  F: -889.4495216908561588  |grad|_K:  2.108e-04  alpha:  5.499e-02  linmin: -1.013e-02  cgtest:  6.117e-02  t[s]:    249.44
	FillingsUpdate:  mu: +0.142267024  nElectrons: 160.000000  magneticMoment: [ Abs: 0.00070  Tot: -0.00007 ]
LCAOMinimize: Iter:  12  F: -889.4527432163645244  |grad|_K:  4.933e-04  alpha:  7.551e-02  linmin:  4.668e-04  cgtest: -1.871e-02  t[s]:    268.00
	FillingsUpdate:  mu: +0.141118156  nElectrons: 160.000000  magneticMoment: [ Abs: 0.00068  Tot: -0.00006 ]
LCAOMinimize: Iter:  13  F: -889.4580245379278267  |grad|_K:  9.250e-05  alpha:  2.326e-02  linmin: -3.984e-03  cgtest:  5.881e-01  t[s]:    286.57
LCAOMinimize: Encountered beta<0, resetting CG.
	FillingsUpdate:  mu: +0.139958825  nElectrons: 160.000000  magneticMoment: [ Abs: 0.00068  Tot: -0.00006 ]
LCAOMinimize: Iter:  14  F: -889.4581462862154240  |grad|_K:  8.060e-05  alpha:  1.544e-02  linmin:  3.279e-06  cgtest: -5.235e-04  t[s]:    305.08
LCAOMinimize: 	Predicted alpha/alphaT>3.000000, increasing alphaT to 4.633180e-02.
	FillingsUpdate:  mu: +0.134204658  nElectrons: 160.000000  magneticMoment: [ Abs: 0.00068  Tot: -0.00006 ]
LCAOMinimize: Iter:  15  F: -889.4585025314829636  |grad|_K:  4.282e-05  alpha:  5.940e-02  linmin: -6.143e-04  cgtest: -5.145e-03  t[s]:    328.51
	FillingsUpdate:  mu: +0.136643290  nElectrons: 160.000000  magneticMoment: [ Abs: 0.00068  Tot: -0.00006 ]
LCAOMinimize: Iter:  16  F: -889.4585753133992512  |grad|_K:  2.527e-05  alpha:  4.293e-02  linmin: -4.700e-05  cgtest: -3.228e-03  t[s]:    347.63
LCAOMinimize: 	Predicted alpha/alphaT>3.000000, increasing alphaT to 1.288035e-01.
	FillingsUpdate:  mu: +0.136096320  nElectrons: 160.000000  magneticMoment: [ Abs: 0.00068  Tot: -0.00005 ]
LCAOMinimize: Iter:  17  F: -889.4587759055557399  |grad|_K:  5.306e-05  alpha:  3.412e-01  linmin:  1.479e-04  cgtest:  2.948e-03  t[s]:    371.36
	FillingsUpdate:  mu: +0.135913687  nElectrons: 160.000000  magneticMoment: [ Abs: 0.00068  Tot: -0.00005 ]
LCAOMinimize: Iter:  18  F: -889.4587995758694206  |grad|_K:  4.700e-06  alpha:  8.739e-03  linmin: -2.527e-02  cgtest:  5.712e-01  t[s]:    390.03
LCAOMinimize: Encountered beta<0, resetting CG.
LCAOMinimize: 	Predicted alpha/alphaT>3.000000, increasing alphaT to 2.621631e-02.
	FillingsUpdate:  mu: +0.135904218  nElectrons: 160.000000  magneticMoment: [ Abs: 0.00068  Tot: -0.00005 ]
LCAOMinimize: Iter:  19  F: -889.4588001303574174  |grad|_K:  6.440e-06  alpha:  2.721e-02  linmin: -1.837e-05  cgtest:  9.870e-05  t[s]:    413.60
	FillingsUpdate:  mu: +0.135941637  nElectrons: 160.000000  magneticMoment: [ Abs: 0.00068  Tot: -0.00005 ]
LCAOMinimize: Iter:  20  F: -889.4588018259473756  |grad|_K:  3.610e-06  alpha:  4.432e-02  linmin:  3.226e-05  cgtest: -4.089e-03  t[s]:    432.01
	FillingsUpdate:  mu: +0.136357370  nElectrons: 160.000000  magneticMoment: [ Abs: 0.00068  Tot: -0.00005 ]
LCAOMinimize: Iter:  21  F: -889.4588025214189884  |grad|_K:  2.809e-06  alpha:  5.786e-02  linmin:  7.630e-06  cgtest:  5.852e-04  t[s]:    450.59
	FillingsUpdate:  mu: +0.136403335  nElectrons: 160.000000  magneticMoment: [ Abs: 0.00069  Tot: -0.00005 ]
LCAOMinimize: Iter:  22  F: -889.4588032093782886  |grad|_K:  1.389e-06  alpha:  9.450e-02  linmin: -7.370e-05  cgtest:  5.113e-05  t[s]:    469.18
LCAOMinimize: Converged (|Delta F|<1.000000e-06 for 2 iters).
----- createFluidSolver() ----- (Fluid-side solver setup)
   Initializing fluid molecule 'H2O'
     Initializing site 'O'
       Electron density: proportional to exp(-r/0.36935)*erfc((r-0.51523)/0.36823) with norm 6.826
       Charge density: gaussian nuclear width 0.478731 with net site charge 0.826
       Polarizability: cuspless exponential with width 0.32 and norm 3.73
       Hard sphere radius: 2.57003 bohrs
       Positions in reference frame:
         [ +0.000000 +0.000000 +0.000000 ]
     Initializing site 'H'
       Electron density: proportional to exp(-r/0.34641)*erfc((r-0)/0.390882) with norm 0.587
       Charge density: gaussian nuclear width 0.377945 with net site charge -0.413
       Polarizability: cuspless exponential with width 0.39 and norm 3.3
       Positions in reference frame:
         [ +0.000000 -1.441945 +1.122523 ]
         [ +0.000000 +1.441945 +1.122523 ]
     Net charge: 0   dipole magnitude: 0.927204
     Initializing spherical shell mfKernel with radius 2.61727 Bohr
     deltaS corrections:
       site 'O': -7.54299
       site 'H': -6.83917
   Initializing fluid molecule 'Na+'
     Initializing site 'Na'
       Electron density: proportional to exp(-r/0.19682)*erfc((r-0.71491)/0.41314) with norm 8.1383
       Charge density: gaussian nuclear width 0.365347 with net site charge -1
       Hard sphere radius: 1.86327 bohrs
       Positions in reference frame:
         [ +0.000000 +0.000000 +0.000000 ]
     Net charge: -1   dipole magnitude: 0
     Initializing gaussian mfKernel with width: 1.55004 Bohr
     deltaS corrections:
       site 'Na': -22.3555
   Initializing fluid molecule 'F-'
     Initializing site 'F'
       Electron density: proportional to exp(-r/0.38886)*erfc((r-0)/0.438782) with norm 8
       Charge density: gaussian nuclear width 0.374796 with net site charge 1
       Hard sphere radius: 2.39995 bohrs
       Positions in reference frame:
         [ +0.000000 +0.000000 +0.000000 ]
     Net charge: 1   dipole magnitude: 0
     Initializing gaussian mfKernel with width: 1.59012 Bohr
     deltaS corrections:
       site 'F': -9.04335

Correction to mu due to finite nuclear width = -0.052253
   Cavity determined by nc: 0.00142 and sigma: 0.707107
   Nonlocal vdW cavity from gaussian model electron density with norm = 8 and sigma = 0.993594 bohr
   Charge asymmetry in cavity with sensitivity pCavity = 36.5 e-bohr/Eh
   Electrostatic cavity expanded by eta = 1.46 bohrs
   Weighted density cavitation model constrained by Nbulk: 0.0049383 bohr^-3, Pvap: 3.14029 kPa, Rvdw: 2.61727 bohr and sigmaBulk: 4.62e-05 Eh/bohr^2 at T: 298 K.
   Weighted density dispersion model using vdW pair potentials with single solvent site with sqrtC6eff: 0.77 SI.


---- Citations for features of the code used in this run ----

   Software package:
      R. Sundararaman, K. Letchworth-Weaver, K.A. Schwarz, D. Gunceler, Y. Ozhabes and T.A. Arias, 'JDFTx: software for joint density-functional theory', SoftwareX 6, 278 (2017)

   gga-PBE exchange-correlation functional:
      J.P. Perdew, K. Burke and M. Ernzerhof, Phys. Rev. Lett. 77, 3865 (1996)

   Pseudopotentials:
      KF Garrity, JW Bennett, KM Rabe and D Vanderbilt, Comput. Mater. Sci. 81, 446 (2014)

   DFT-D3 dispersion correction:
      S. Grimme, J. Antony, S. Ehrlich and H. Krieg, J. Chem. Phys. 132, 154104 (2010)

   DFT-D2 dispersion correction:
      S. Grimme, J. Comput. Chem. 27, 1787 (2006)

   Charge-asymmetric nonlocally-determined local-electric (CANDLE) solvation model:
      R. Sundararaman and W.A. Goddard III, J. Chem. Phys. 142, 064107 (2015)

   Total energy minimization with Auxiliary Hamiltonian:
      C. Freysoldt, S. Boeck, and J. Neugebauer, Phys. Rev. B 79, 241103(R) (2009)

   Linear-tetrahedron sampling for density of states:
      G. Lehmann and M. Taut, Phys. status solidi (b) 54, 469 (1972)

This list may not be complete. Please suggest additional citations or
report any other bugs at https://github.com/shankar1729/jdftx/issues

Initialization completed successfully at t[s]:    474.11


Computing DFT-D3 correction:
# coordination-number Pt 8.734 9.550 9.523 7.152 4.809 9.523 9.550 8.734 4.809 7.152
# diagonal-C6 Pt 336.87 336.87 336.87 336.87 336.87 336.87 336.87 336.87 336.87 336.87
EvdW_6 =   -0.074874
EvdW_8 =   -0.128585
Fluid solver invoked on fresh (random / LCAO) wavefunctions
Running a vacuum solve first:

-------- Initial electronic minimization -----------
	FillingsUpdate:  mu: +0.136403337  nElectrons: 160.000000  magneticMoment: [ Abs: 0.00069  Tot: -0.00005 ]
ElecMinimize: Iter:   0  F: -889.458803209378516  |grad|_K:  3.920e-05  alpha:  1.000e+00
	FillingsUpdate:  mu: +0.168942132  nElectrons: 160.000000  magneticMoment: [ Abs: 0.00056  Tot: -0.00005 ]
	SubspaceRotationAdjust: set factor to 0.999
ElecMinimize: Iter:   1  F: -889.563936769691736  |grad|_K:  2.263e-05  alpha:  4.358e-01  linmin:  2.047e-05  t[s]:    510.74
	FillingsUpdate:  mu: +0.155660888  nElectrons: 160.000000  magneticMoment: [ Abs: 0.00052  Tot: -0.00004 ]
	SubspaceRotationAdjust: set factor to 0.555
ElecMinimize: Iter:   2  F: -889.572703058457705  |grad|_K:  5.101e-05  alpha:  1.162e-01  linmin:  2.220e-04  t[s]:    532.80
	FillingsUpdate:  mu: +0.136600310  nElectrons: 160.000000  magneticMoment: [ Abs: 0.00048  Tot: -0.00004 ]
	SubspaceRotationAdjust: set factor to 0.325
ElecMinimize: Iter:   3  F: -889.580503418742182  |grad|_K:  3.452e-05  alpha:  2.131e-02  linmin:  2.468e-04  t[s]:    554.99
ElecMinimize: 	Predicted alpha/alphaT>3.000000, increasing alphaT to 6.391508e-02.
	FillingsUpdate:  mu: +0.137925194  nElectrons: 160.000000  magneticMoment: [ Abs: 0.00041  Tot: -0.00004 ]
	SubspaceRotationAdjust: set factor to 0.436
ElecMinimize: Iter:   4  F: -889.592277958056798  |grad|_K:  1.249e-05  alpha:  6.606e-02  linmin:  4.149e-06  t[s]:    583.00
	FillingsUpdate:  mu: +0.145295069  nElectrons: 160.000000  magneticMoment: [ Abs: 0.00039  Tot: -0.00003 ]
	SubspaceRotationAdjust: set factor to 0.327
ElecMinimize: Iter:   5  F: -889.593740120916550  |grad|_K:  1.520e-05  alpha:  5.946e-02  linmin:  1.203e-05  t[s]:    605.21
	FillingsUpdate:  mu: +0.156481704  nElectrons: 160.000000  magneticMoment: [ Abs: 0.00032  Tot: -0.00003 ]
	SubspaceRotationAdjust: set factor to 0.23
ElecMinimize: Iter:   6  F: -889.597601435835713  |grad|_K:  9.618e-06  alpha:  1.068e-01  linmin:  6.432e-05  t[s]:    627.43
	FillingsUpdate:  mu: +0.146689603  nElectrons: 160.000000  magneticMoment: [ Abs: 0.00029  Tot: -0.00002 ]
	SubspaceRotationAdjust: set factor to 0.163
ElecMinimize: Iter:   7  F: -889.598980986576066  |grad|_K:  5.818e-06  alpha:  9.551e-02  linmin: -4.321e-06  t[s]:    649.80
	FillingsUpdate:  mu: +0.143405413  nElectrons: 160.000000  magneticMoment: [ Abs: 0.00027  Tot: -0.00002 ]
	SubspaceRotationAdjust: set factor to 0.108
	SubspaceRotationAdjust: resetting CG because factor has changed by 0.108488
ElecMinimize: 	State modified externally: resetting search direction.
ElecMinimize: Iter:   8  F: -889.599460895400739  |grad|_K:  4.820e-06  alpha:  8.995e-02
	FillingsUpdate:  mu: +0.146085283  nElectrons: 160.000000  magneticMoment: [ Abs: 0.00026  Tot: -0.00002 ]
	SubspaceRotationAdjust: set factor to 0.0933
ElecMinimize: Iter:   9  F: -889.600023167161112  |grad|_K:  3.982e-06  alpha:  1.537e-01  linmin:  1.276e-04  t[s]:    707.07
	FillingsUpdate:  mu: +0.148458667  nElectrons: 160.000000  magneticMoment: [ Abs: 0.00024  Tot: -0.00002 ]
	SubspaceRotationAdjust: set factor to 0.0685
ElecMinimize: Iter:  10  F: -889.600508340700912  |grad|_K:  2.425e-06  alpha:  1.945e-01  linmin:  1.432e-05  t[s]:    729.19
	FillingsUpdate:  mu: +0.145375581  nElectrons: 160.000000  magneticMoment: [ Abs: 0.00020  Tot: -0.00002 ]
	SubspaceRotationAdjust: set factor to 0.0646
ElecMinimize: Iter:  11  F: -889.600962076038400  |grad|_K:  1.609e-06  alpha:  4.902e-01  linmin:  4.382e-05  t[s]:    751.43
	FillingsUpdate:  mu: +0.147660070  nElectrons: 160.000000  magneticMoment: [ Abs: 0.00017  Tot: -0.00002 ]
	SubspaceRotationAdjust: set factor to 0.0585
ElecMinimize: Iter:  12  F: -889.601141249624902  |grad|_K:  1.389e-06  alpha:  4.400e-01  linmin: -7.996e-06  t[s]:    773.51
	FillingsUpdate:  mu: +0.148428885  nElectrons: 160.000000  magneticMoment: [ Abs: 0.00016  Tot: -0.00002 ]
	SubspaceRotationAdjust: set factor to 0.0395
ElecMinimize: Iter:  13  F: -889.601211490716878  |grad|_K:  1.020e-06  alpha:  2.310e-01  linmin: -2.099e-06  t[s]:    795.93
	FillingsUpdate:  mu: +0.148090839  nElectrons: 160.000000  magneticMoment: [ Abs: 0.00015  Tot: -0.00001 ]
	SubspaceRotationAdjust: set factor to 0.0491
ElecMinimize: Iter:  14  F: -889.601278595463441  |grad|_K:  6.117e-07  alpha:  4.098e-01  linmin:  1.712e-05  t[s]:    818.07
	FillingsUpdate:  mu: +0.148030908  nElectrons: 160.000000  magneticMoment: [ Abs: 0.00015  Tot: -0.00001 ]
	SubspaceRotationAdjust: set factor to 0.0534
ElecMinimize: Iter:  15  F: -889.601301327378792  |grad|_K:  4.691e-07  alpha:  3.859e-01  linmin:  2.576e-06  t[s]:    840.44
	FillingsUpdate:  mu: +0.148000886  nElectrons: 160.000000  magneticMoment: [ Abs: 0.00014  Tot: -0.00001 ]
	SubspaceRotationAdjust: set factor to 0.048
ElecMinimize: Iter:  16  F: -889.601316647046929  |grad|_K:  5.204e-07  alpha:  4.421e-01  linmin:  4.186e-06  t[s]:    862.53
	FillingsUpdate:  mu: +0.147849821  nElectrons: 160.000000  magneticMoment: [ Abs: 0.00013  Tot: -0.00001 ]
	SubspaceRotationAdjust: set factor to 0.0507
ElecMinimize: Iter:  17  F: -889.601334110315292  |grad|_K:  4.047e-07  alpha:  4.095e-01  linmin:  6.364e-06  t[s]:    884.71
	FillingsUpdate:  mu: +0.147809497  nElectrons: 160.000000  magneticMoment: [ Abs: 0.00013  Tot: -0.00001 ]
	SubspaceRotationAdjust: set factor to 0.0615
ElecMinimize: Iter:  18  F: -889.601352065703622  |grad|_K:  4.002e-07  alpha:  6.971e-01  linmin:  1.368e-05  t[s]:    907.10
	FillingsUpdate:  mu: +0.148167083  nElectrons: 160.000000  magneticMoment: [ Abs: 0.00012  Tot: -0.00001 ]
	SubspaceRotationAdjust: set factor to 0.0584
ElecMinimize: Iter:  19  F: -889.601365289795353  |grad|_K:  4.849e-07  alpha:  5.252e-01  linmin:  1.339e-06  t[s]:    929.37
	FillingsUpdate:  mu: +0.148356345  nElectrons: 160.000000  magneticMoment: [ Abs: 0.00011  Tot: -0.00001 ]
	SubspaceRotationAdjust: set factor to 0.0464
ElecMinimize: Iter:  20  F: -889.601377490404957  |grad|_K:  4.412e-07  alpha:  3.294e-01  linmin:  2.109e-07  t[s]:    951.42
	FillingsUpdate:  mu: +0.148183671  nElectrons: 160.000000  magneticMoment: [ Abs: 0.00010  Tot: -0.00000 ]
	SubspaceRotationAdjust: set factor to 0.0477
ElecMinimize: Iter:  21  F: -889.601395249943948  |grad|_K:  4.223e-07  alpha:  5.795e-01  linmin:  4.230e-06  t[s]:    973.50
	FillingsUpdate:  mu: +0.148405713  nElectrons: 160.000000  magneticMoment: [ Abs: 0.00008  Tot: +0.00000 ]
	SubspaceRotationAdjust: set factor to 0.0487
ElecMinimize: Iter:  22  F: -889.601410691883075  |grad|_K:  3.400e-07  alpha:  5.505e-01  linmin: -4.664e-06  t[s]:    995.66
	FillingsUpdate:  mu: +0.148477979  nElectrons: 160.000000  magneticMoment: [ Abs: 0.00008  Tot: +0.00000 ]
	SubspaceRotationAdjust: set factor to 0.0387
ElecMinimize: Iter:  23  F: -889.601417621846053  |grad|_K:  2.921e-07  alpha:  3.802e-01  linmin: -1.459e-06  t[s]:   1017.91
	FillingsUpdate:  mu: +0.148412584  nElectrons: 160.000000  magneticMoment: [ Abs: 0.00007  Tot: +0.00000 ]
	SubspaceRotationAdjust: set factor to 0.0312
ElecMinimize: Iter:  24  F: -889.601422249335769  |grad|_K:  2.036e-07  alpha:  3.441e-01  linmin: -2.251e-06  t[s]:   1040.04
	FillingsUpdate:  mu: +0.148369269  nElectrons: 160.000000  magneticMoment: [ Abs: 0.00007  Tot: +0.00000 ]
	SubspaceRotationAdjust: set factor to 0.0343
ElecMinimize: Iter:  25  F: -889.601425468840262  |grad|_K:  1.497e-07  alpha:  4.926e-01  linmin: -4.673e-06  t[s]:   1062.20
	FillingsUpdate:  mu: +0.148403430  nElectrons: 160.000000  magneticMoment: [ Abs: 0.00006  Tot: +0.00000 ]
	SubspaceRotationAdjust: set factor to 0.0305
ElecMinimize: Iter:  26  F: -889.601427027309683  |grad|_K:  1.117e-07  alpha:  4.411e-01  linmin: -1.834e-06  t[s]:   1084.29
	FillingsUpdate:  mu: +0.148391921  nElectrons: 160.000000  magneticMoment: [ Abs: 0.00006  Tot: +0.00000 ]
	SubspaceRotationAdjust: set factor to 0.0267
ElecMinimize: Iter:  27  F: -889.601427784848624  |grad|_K:  7.476e-08  alpha:  3.852e-01  linmin: -1.116e-06  t[s]:   1106.41
	FillingsUpdate:  mu: +0.148374067  nElectrons: 160.000000  magneticMoment: [ Abs: 0.00006  Tot: +0.00001 ]
	SubspaceRotationAdjust: set factor to 0.0305
ElecMinimize: Iter:  28  F: -889.601428167448148  |grad|_K:  4.910e-08  alpha:  4.345e-01  linmin:  1.053e-06  t[s]:   1128.55
	FillingsUpdate:  mu: +0.148393148  nElectrons: 160.000000  magneticMoment: [ Abs: 0.00006  Tot: +0.00001 ]
	SubspaceRotationAdjust: set factor to 0.0312
ElecMinimize: Iter:  29  F: -889.601428346358148  |grad|_K:  3.940e-08  alpha:  4.712e-01  linmin:  2.057e-06  t[s]:   1150.81
	FillingsUpdate:  mu: +0.148401483  nElectrons: 160.000000  magneticMoment: [ Abs: 0.00006  Tot: +0.00001 ]
	SubspaceRotationAdjust: set factor to 0.033
ElecMinimize: Iter:  30  F: -889.601428461546220  |grad|_K:  3.163e-08  alpha:  4.712e-01  linmin: -3.037e-07  t[s]:   1173.36
	FillingsUpdate:  mu: +0.148391125  nElectrons: 160.000000  magneticMoment: [ Abs: 0.00006  Tot: +0.00001 ]
	SubspaceRotationAdjust: set factor to 0.0412
ElecMinimize: Iter:  31  F: -889.601428542515578  |grad|_K:  2.632e-08  alpha:  5.141e-01  linmin:  4.507e-07  t[s]:   1195.70
	FillingsUpdate:  mu: +0.148386477  nElectrons: 160.000000  magneticMoment: [ Abs: 0.00006  Tot: +0.00001 ]
	SubspaceRotationAdjust: set factor to 0.0493
ElecMinimize: Iter:  32  F: -889.601428604838020  |grad|_K:  2.678e-08  alpha:  5.720e-01  linmin:  2.270e-06  t[s]:   1217.99
ElecMinimize: Converged (|Delta F|<1.000000e-07 for 2 iters).
Setting wave functions to eigenvectors of Hamiltonian
Converging empty states (this may take a while): |deigs|: 3.424e-03
Vacuum energy after initial minimize, F = -889.601428604838020


-------- Electronic minimization -----------
	Linear fluid (dielectric constant: 78.4, screening length: 8.12261 Bohr) occupying 0.484492 of unit cell:	Completed after 25 iterations at t[s]:   1290.16
	FillingsUpdate:  mu: -0.188627720  nElectrons: 160.000000  magneticMoment: [ Abs: 0.00004  Tot: +0.00001 ]
ElecMinimize: Iter:   0  F: -889.604242414109876  |grad|_K:  9.814e-07  alpha:  1.000e+00
	Linear fluid (dielectric constant: 78.4, screening length: 8.12261 Bohr) occupying 0.485390 of unit cell:	Completed after 19 iterations at t[s]:   1309.61
	Linear fluid (dielectric constant: 78.4, screening length: 8.12261 Bohr) occupying 0.484838 of unit cell:	Completed after 18 iterations at t[s]:   1316.85
	FillingsUpdate:  mu: -0.187065791  nElectrons: 160.000000  magneticMoment: [ Abs: 0.00004  Tot: +0.00001 ]
	SubspaceRotationAdjust: set factor to 0.0393
ElecMinimize: Iter:   1  F: -889.604301833697377  |grad|_K:  7.477e-07  alpha:  3.919e-01  linmin:  1.155e-06  t[s]:   1326.28
	Linear fluid (dielectric constant: 78.4, screening length: 8.12261 Bohr) occupying 0.485317 of unit cell:	Completed after 14 iterations at t[s]:   1334.52
	Linear fluid (dielectric constant: 78.4, screening length: 8.12261 Bohr) occupying 0.485855 of unit cell:	Completed after 13 iterations at t[s]:   1341.40
	FillingsUpdate:  mu: -0.184836862  nElectrons: 160.000000  magneticMoment: [ Abs: 0.00004  Tot: +0.00001 ]
	SubspaceRotationAdjust: set factor to 0.0478
ElecMinimize: Iter:   2  F: -889.604375509698002  |grad|_K:  5.794e-07  alpha:  8.361e-01  linmin: -1.675e-06  t[s]:   1350.70
	Linear fluid (dielectric constant: 78.4, screening length: 8.12261 Bohr) occupying 0.486626 of unit cell:	Completed after 17 iterations at t[s]:   1359.10
	Linear fluid (dielectric constant: 78.4, screening length: 8.12261 Bohr) occupying 0.486322 of unit cell:	Completed after 13 iterations at t[s]:   1366.03
	FillingsUpdate:  mu: -0.184783361  nElectrons: 160.000000  magneticMoment: [ Abs: 0.00003  Tot: +0.00001 ]
	SubspaceRotationAdjust: set factor to 0.0559
ElecMinimize: Iter:   3  F: -889.604402238511398  |grad|_K:  3.973e-07  alpha:  5.045e-01  linmin:  1.461e-07  t[s]:   1375.42
	Linear fluid (dielectric constant: 78.4, screening length: 8.12261 Bohr) occupying 0.486560 of unit cell:	Completed after 10 iterations at t[s]:   1383.44
	Linear fluid (dielectric constant: 78.4, screening length: 8.12261 Bohr) occupying 0.486613 of unit cell:	Completed after 7 iterations at t[s]:   1390.06
	FillingsUpdate:  mu: -0.184595689  nElectrons: 160.000000  magneticMoment: [ Abs: 0.00003  Tot: +0.00001 ]
	SubspaceRotationAdjust: set factor to 0.0688
ElecMinimize: Iter:   4  F: -889.604417600940678  |grad|_K:  3.495e-07  alpha:  6.177e-01  linmin: -2.525e-07  t[s]:   1399.65
	Linear fluid (dielectric constant: 78.4, screening length: 8.12261 Bohr) occupying 0.486824 of unit cell:	Completed after 13 iterations at t[s]:   1407.78
	Linear fluid (dielectric constant: 78.4, screening length: 8.12261 Bohr) occupying 0.486896 of unit cell:	Completed after 9 iterations at t[s]:   1414.51
	FillingsUpdate:  mu: -0.183987473  nElectrons: 160.000000  magneticMoment: [ Abs: 0.00003  Tot: +0.00001 ]
	SubspaceRotationAdjust: set factor to 0.0823
ElecMinimize: Iter:   5  F: -889.604433635135933  |grad|_K:  3.466e-07  alpha:  8.316e-01  linmin: -7.305e-07  t[s]:   1423.98
	Linear fluid (dielectric constant: 78.4, screening length: 8.12261 Bohr) occupying 0.487142 of unit cell:	Completed after 15 iterations at t[s]:   1432.36
	Linear fluid (dielectric constant: 78.4, screening length: 8.12261 Bohr) occupying 0.487136 of unit cell:	Completed after 2 iterations at t[s]:   1438.68
	FillingsUpdate:  mu: -0.183581980  nElectrons: 160.000000  magneticMoment: [ Abs: 0.00003  Tot: +0.00001 ]
	SubspaceRotationAdjust: set factor to 0.091
ElecMinimize: Iter:   6  F: -889.604449052515747  |grad|_K:  3.613e-07  alpha:  8.122e-01  linmin: -3.094e-07  t[s]:   1448.13
	Linear fluid (dielectric constant: 78.4, screening length: 8.12261 Bohr) occupying 0.487369 of unit cell:	Completed after 16 iterations at t[s]:   1456.43
	Linear fluid (dielectric constant: 78.4, screening length: 8.12261 Bohr) occupying 0.487311 of unit cell:	Completed after 10 iterations at t[s]:   1463.26
	FillingsUpdate:  mu: -0.182940901  nElectrons: 160.000000  magneticMoment: [ Abs: 0.00003  Tot: +0.00001 ]
	SubspaceRotationAdjust: set factor to 0.0839
ElecMinimize: Iter:   7  F: -889.604461498255773  |grad|_K:  3.718e-07  alpha:  6.050e-01  linmin: -1.024e-07  t[s]:   1472.67
	Linear fluid (dielectric constant: 78.4, screening length: 8.12261 Bohr) occupying 0.487478 of unit cell:	Completed after 15 iterations at t[s]:   1480.87
	Linear fluid (dielectric constant: 78.4, screening length: 8.12261 Bohr) occupying 0.487431 of unit cell:	Completed after 10 iterations at t[s]:   1487.69
	FillingsUpdate:  mu: -0.182677981  nElectrons: 160.000000  magneticMoment: [ Abs: 0.00003  Tot: +0.00001 ]
	SubspaceRotationAdjust: set factor to 0.0655
ElecMinimize: Iter:   8  F: -889.604470801991397  |grad|_K:  3.109e-07  alpha:  4.270e-01  linmin:  6.163e-08  t[s]:   1496.88
	Linear fluid (dielectric constant: 78.4, screening length: 8.12261 Bohr) occupying 0.487505 of unit cell:	Completed after 10 iterations at t[s]:   1504.97
	Linear fluid (dielectric constant: 78.4, screening length: 8.12261 Bohr) occupying 0.487525 of unit cell:	Completed after 7 iterations at t[s]:   1511.60
	FillingsUpdate:  mu: -0.182641170  nElectrons: 160.000000  magneticMoment: [ Abs: 0.00003  Tot: +0.00001 ]
	SubspaceRotationAdjust: set factor to 0.0642
ElecMinimize: Iter:   9  F: -889.604479049633710  |grad|_K:  2.245e-07  alpha:  5.419e-01  linmin: -3.457e-08  t[s]:   1521.10
	Linear fluid (dielectric constant: 78.4, screening length: 8.12261 Bohr) occupying 0.487565 of unit cell:	Completed after 10 iterations at t[s]:   1529.16
	Linear fluid (dielectric constant: 78.4, screening length: 8.12261 Bohr) occupying 0.487571 of unit cell:	Completed after 2 iterations at t[s]:   1535.55
	FillingsUpdate:  mu: -0.182390301  nElectrons: 160.000000  magneticMoment: [ Abs: 0.00002  Tot: +0.00001 ]
	SubspaceRotationAdjust: set factor to 0.0701
ElecMinimize: Iter:  10  F: -889.604484030300682  |grad|_K:  1.685e-07  alpha:  6.267e-01  linmin: -3.024e-07  t[s]:   1545.65
	Linear fluid (dielectric constant: 78.4, screening length: 8.12261 Bohr) occupying 0.487585 of unit cell:	Completed after 7 iterations at t[s]:   1553.65
	Linear fluid (dielectric constant: 78.4, screening length: 8.12261 Bohr) occupying 0.487585 of unit cell:	Completed after 2 iterations at t[s]:   1559.97
	FillingsUpdate:  mu: -0.182481272  nElectrons: 160.000000  magneticMoment: [ Abs: 0.00002  Tot: +0.00001 ]
	SubspaceRotationAdjust: set factor to 0.0774
ElecMinimize: Iter:  11  F: -889.604486706513399  |grad|_K:  1.263e-07  alpha:  5.970e-01  linmin:  4.346e-08  t[s]:   1569.34
	Linear fluid (dielectric constant: 78.4, screening length: 8.12261 Bohr) occupying 0.487585 of unit cell:	Completed after 8 iterations at t[s]:   1577.30
	Linear fluid (dielectric constant: 78.4, screening length: 8.12261 Bohr) occupying 0.487585 of unit cell:	Completed after 0 iterations at t[s]:   1583.51
	FillingsUpdate:  mu: -0.182404559  nElectrons: 160.000000  magneticMoment: [ Abs: 0.00002  Tot: +0.00001 ]
	SubspaceRotationAdjust: set factor to 0.0865
ElecMinimize: Iter:  12  F: -889.604488164205236  |grad|_K:  9.887e-08  alpha:  5.801e-01  linmin:  4.800e-07  t[s]:   1592.99
	Linear fluid (dielectric constant: 78.4, screening length: 8.12261 Bohr) occupying 0.487581 of unit cell:	Completed after 8 iterations at t[s]:   1600.91
	Linear fluid (dielectric constant: 78.4, screening length: 8.12261 Bohr) occupying 0.487581 of unit cell:	Completed after 2 iterations at t[s]:   1607.25
	FillingsUpdate:  mu: -0.182507973  nElectrons: 160.000000  magneticMoment: [ Abs: 0.00002  Tot: +0.00001 ]
	SubspaceRotationAdjust: set factor to 0.0894
ElecMinimize: Iter:  13  F: -889.604488996470991  |grad|_K:  8.355e-08  alpha:  5.422e-01  linmin: -9.178e-08  t[s]:   1616.58
	Linear fluid (dielectric constant: 78.4, screening length: 8.12261 Bohr) occupying 0.487577 of unit cell:	Completed after 9 iterations at t[s]:   1624.51
	Linear fluid (dielectric constant: 78.4, screening length: 8.12261 Bohr) occupying 0.487577 of unit cell:	Completed after 4 iterations at t[s]:   1630.96
	FillingsUpdate:  mu: -0.182537462  nElectrons: 160.000000  magneticMoment: [ Abs: 0.00002  Tot: +0.00001 ]
	SubspaceRotationAdjust: set factor to 0.0791
ElecMinimize: Iter:  14  F: -889.604489484054852  |grad|_K:  7.194e-08  alpha:  4.437e-01  linmin:  1.013e-07  t[s]:   1640.51
	Linear fluid (dielectric constant: 78.4, screening length: 8.12261 Bohr) occupying 0.487575 of unit cell:	Completed after 8 iterations at t[s]:   1648.45
	Linear fluid (dielectric constant: 78.4, screening length: 8.12261 Bohr) occupying 0.487575 of unit cell:	Completed after 0 iterations at t[s]:   1654.67
	FillingsUpdate:  mu: -0.182552625  nElectrons: 160.000000  magneticMoment: [ Abs: 0.00002  Tot: +0.00001 ]
	SubspaceRotationAdjust: set factor to 0.0708
ElecMinimize: Iter:  15  F: -889.604489832921217  |grad|_K:  5.485e-08  alpha:  4.281e-01  linmin:  1.499e-06  t[s]:   1664.24
	Linear fluid (dielectric constant: 78.4, screening length: 8.12261 Bohr) occupying 0.487574 of unit cell:	Completed after 7 iterations at t[s]:   1672.13
	Linear fluid (dielectric constant: 78.4, screening length: 8.12261 Bohr) occupying 0.487574 of unit cell:	Completed after 2 iterations at t[s]:   1678.49
	FillingsUpdate:  mu: -0.182623649  nElectrons: 160.000000  magneticMoment: [ Abs: 0.00002  Tot: +0.00001 ]
	SubspaceRotationAdjust: set factor to 0.076
ElecMinimize: Iter:  16  F: -889.604490088322223  |grad|_K:  4.134e-08  alpha:  5.396e-01  linmin: -4.526e-06  t[s]:   1688.02
	Linear fluid (dielectric constant: 78.4, screening length: 8.12261 Bohr) occupying 0.487575 of unit cell:	Completed after 2 iterations at t[s]:   1695.61
	Linear fluid (dielectric constant: 78.4, screening length: 8.12261 Bohr) occupying 0.487575 of unit cell:	Completed after 1 iterations at t[s]:   1701.91
	FillingsUpdate:  mu: -0.182620334  nElectrons: 160.000000  magneticMoment: [ Abs: 0.00002  Tot: +0.00001 ]
	SubspaceRotationAdjust: set factor to 0.0864
ElecMinimize: Iter:  17  F: -889.604490259566546  |grad|_K:  3.345e-08  alpha:  6.253e-01  linmin: -1.407e-06  t[s]:   1711.28
	Linear fluid (dielectric constant: 78.4, screening length: 8.12261 Bohr) occupying 0.487576 of unit cell:	Completed after 3 iterations at t[s]:   1718.92
	Linear fluid (dielectric constant: 78.4, screening length: 8.12261 Bohr) occupying 0.487576 of unit cell:	Completed after 0 iterations at t[s]:   1725.26
	FillingsUpdate:  mu: -0.182650535  nElectrons: 160.000000  magneticMoment: [ Abs: 0.00002  Tot: +0.00001 ]
	SubspaceRotationAdjust: set factor to 0.1
ElecMinimize: Iter:  18  F: -889.604490374371949  |grad|_K:  2.833e-08  alpha:  6.483e-01  linmin: -1.893e-06  t[s]:   1734.70
	Linear fluid (dielectric constant: 78.4, screening length: 8.12261 Bohr) occupying 0.487578 of unit cell:	Completed after 6 iterations at t[s]:   1742.58
	Linear fluid (dielectric constant: 78.4, screening length: 8.12261 Bohr) occupying 0.487578 of unit cell:	Completed after 0 iterations at t[s]:   1748.75
	FillingsUpdate:  mu: -0.182687925  nElectrons: 160.000000  magneticMoment: [ Abs: 0.00002  Tot: +0.00001 ]
	SubspaceRotationAdjust: set factor to 0.106
ElecMinimize: Iter:  19  F: -889.604490448301817  |grad|_K:  2.713e-08  alpha:  5.810e-01  linmin:  5.598e-06  t[s]:   1758.20
	Linear fluid (dielectric constant: 78.4, screening length: 8.12261 Bohr) occupying 0.487579 of unit cell:	Completed after 7 iterations at t[s]:   1766.28
	Linear fluid (dielectric constant: 78.4, screening length: 8.12261 Bohr) occupying 0.487579 of unit cell:	Completed after 2 iterations at t[s]:   1772.66
	FillingsUpdate:  mu: -0.182677716  nElectrons: 160.000000  magneticMoment: [ Abs: 0.00002  Tot: +0.00001 ]
	SubspaceRotationAdjust: set factor to 0.0863
ElecMinimize: Iter:  20  F: -889.604490488678493  |grad|_K:  2.597e-08  alpha:  3.590e-01  linmin:  1.006e-05  t[s]:   1781.97
ElecMinimize: Converged (|Delta F|<1.000000e-07 for 2 iters).
Setting wave functions to eigenvectors of Hamiltonian
Converging empty states (this may take a while): |deigs|: 1.513e-04
Single-point solvation energy estimate, DeltaF = -0.003061883840473

Computing DFT-D3 correction:
# coordination-number Pt 8.734 9.550 9.523 7.152 4.809 9.523 9.550 8.734 4.809 7.152
# diagonal-C6 Pt 336.87 336.87 336.87 336.87 336.87 336.87 336.87 336.87 336.87 336.87
EvdW_6 =   -0.074874
EvdW_8 =   -0.128585

# Ionic positions in cartesian coordinates:
ion Pt   3.699579000000000   1.654502000000000  12.408765999999998 1
ion Pt   0.000000000000000   3.309004000000000   9.099744999999999 1
ion Pt   3.699579000000000   4.963506000000000   5.790773999999999 1
ion Pt   0.000000000000000   6.618008000000000   2.481752999999999 1
ion Pt  -3.699579000000000   8.272510000000000  15.717785999999997 1
ion Pt   3.699579000000000   6.618008000000000  10.754280000000000 1
ion Pt   3.699579000000000   0.000000000000000   7.445258999999999 1
ion Pt   0.000000000000000   1.654502000000000   4.136238999999999 1
ion Pt   3.699579000000000   3.309004000000000   0.827268000000000 1
ion Pt   0.000000000000000   4.963506000000000  14.063250999999998 1

# Forces in Cartesian coordinates:
force Pt   0.000082037087741   0.004828965382265   0.018612318616368 1
force Pt  -0.000381040370782  -0.000265180485753   0.000270378255159 1
force Pt  -0.000250016975854  -0.000396847714379   0.003982534864225 1
force Pt  -0.000043978763310  -0.002097926682222  -0.013365099349343 1
force Pt   0.000159714709871  -0.003036528480159  -0.023774032105570 1
force Pt   0.000236054882184   0.000392203597282  -0.004334364120760 1
force Pt   0.000389530814519   0.000262963790695  -0.000683795156394 1
force Pt  -0.000073128213097  -0.004803032316100  -0.018747320845022 1
force Pt  -0.000151141232749   0.003039653586798   0.024015150949563 1
force Pt   0.000031475354654   0.002089055074623   0.013398208953182 1

# Energy components:
   A_diel =       -0.0033101323245871
   Eewald =     4081.2529439614022522
       EH =     4889.5499764164678709
     Eloc =   -10014.7874694018773880
      Enl =      -10.5866926415416458
     EvdW =       -0.2034584113802622
      Exc =     -284.3466275825973071
 Exc_core =      163.9138150486513155
       KE =      285.6082123590686592
-------------------------------------
     Etot =     -889.6026103841315944
       TS =        0.0018801045469197
-------------------------------------
        F =     -889.6044904886784934


Dumping 'jdft.fillings' ... done
Dumping 'jdft.wfns' ... done
Dumping 'jdft.fluidState' ... done
Dumping 'jdft.ionpos' ... done
Dumping 'jdft.lattice' ... done
Dumping 'jdft.eigenvals' ... done
Dumping 'jdft.eigStats' ... 
	eMin: -2.131377 at state 35 ( [ -0.444444 +0.000000 +0.000000 ] spin 1 )
	HOMO: -0.182903 at state 114 ( [ -0.222222 +0.285714 +0.000000 ] spin -1 )
	mu  : -0.182678
	LUMO: -0.182618 at state 32 ( [ +0.444444 -0.428571 +0.000000 ] spin 1 )
	eMax: +0.106005 at state 30 ( [ +0.444444 +0.285714 +0.000000 ] spin 1 )
	HOMO-LUMO gap: +0.000285
	Optical gap  : +0.001028 at state 19 ( [ +0.222222 -0.285714 +0.000000 ] spin 1 )
Dumping 'jdft.Ecomponents' ... done
IonicMinimize: Iter:   0  F: -889.604490488678493  |grad|_K:  8.770e-03  t[s]:   1849.48

#--- Lowdin population analysis ---
# oxidation-state Pt -0.036 +0.010 -0.002 -0.037 +0.116 -0.005 +0.011 -0.032 +0.121 -0.042
# magnetic-moments Pt +0.000 +0.000 +0.000 -0.000 +0.000 +0.000 +0.000 -0.000 -0.000 +0.000


Computing DFT-D3 correction:
# coordination-number Pt 8.728 9.524 9.518 7.156 4.870 9.517 9.525 8.729 4.871 7.155
# diagonal-C6 Pt 336.87 336.87 336.87 336.87 336.87 336.87 336.87 336.87 336.87 336.87
EvdW_6 =   -0.074870
EvdW_8 =   -0.128538

-------- Electronic minimization -----------
	Linear fluid (dielectric constant: 78.4, screening length: 8.12261 Bohr) occupying 0.487563 of unit cell:	Completed after 22 iterations at t[s]:   1858.42
	FillingsUpdate:  mu: -0.185843550  nElectrons: 160.000000  magneticMoment: [ Abs: 0.00001  Tot: +0.00000 ]
ElecMinimize: Iter:   0  F: -889.521371317263061  |grad|_K:  3.903e-05  alpha:  1.000e+00
	Linear fluid (dielectric constant: 78.4, screening length: 8.12261 Bohr) occupying 0.487872 of unit cell:	Completed after 23 iterations at t[s]:   1878.24
	Linear fluid (dielectric constant: 78.4, screening length: 8.12261 Bohr) occupying 0.487604 of unit cell:	Completed after 23 iterations at t[s]:   1885.89
	FillingsUpdate:  mu: -0.203398808  nElectrons: 160.000000  magneticMoment: [ Abs: 0.00001  Tot: +0.00000 ]
	SubspaceRotationAdjust: set factor to 0.0764
ElecMinimize: Iter:   1  F: -889.596358784603012  |grad|_K:  1.122e-05  alpha:  3.129e-01  linmin:  1.078e-03  t[s]:   1895.47
	Linear fluid (dielectric constant: 78.4, screening length: 8.12261 Bohr) occupying 0.487788 of unit cell:	Completed after 20 iterations at t[s]:   1904.16
	Linear fluid (dielectric constant: 78.4, screening length: 8.12261 Bohr) occupying 0.487789 of unit cell:	Completed after 6 iterations at t[s]:   1910.77
	FillingsUpdate:  mu: -0.178162550  nElectrons: 160.000000  magneticMoment: [ Abs: 0.00001  Tot: +0.00000 ]
	SubspaceRotationAdjust: set factor to 0.0597
ElecMinimize: Iter:   2  F: -889.602573894231682  |grad|_K:  4.352e-06  alpha:  3.139e-01  linmin:  6.699e-05  t[s]:   1920.16
	Linear fluid (dielectric constant: 78.4, screening length: 8.12261 Bohr) occupying 0.487854 of unit cell:	Completed after 19 iterations at t[s]:   1928.66
	Linear fluid (dielectric constant: 78.4, screening length: 8.12261 Bohr) occupying 0.487867 of unit cell:	Completed after 15 iterations at t[s]:   1935.76
	FillingsUpdate:  mu: -0.185061033  nElectrons: 160.000000  magneticMoment: [ Abs: 0.00001  Tot: +0.00000 ]
	SubspaceRotationAdjust: set factor to 0.0633
ElecMinimize: Iter:   3  F: -889.603680103468605  |grad|_K:  2.215e-06  alpha:  3.708e-01  linmin: -3.613e-05  t[s]:   1945.28
	Linear fluid (dielectric constant: 78.4, screening length: 8.12261 Bohr) occupying 0.487958 of unit cell:	Completed after 17 iterations at t[s]:   1953.70
	Linear fluid (dielectric constant: 78.4, screening length: 8.12261 Bohr) occupying 0.487997 of unit cell:	Completed after 13 iterations at t[s]:   1960.69
	FillingsUpdate:  mu: -0.184091800  nElectrons: 160.000000  magneticMoment: [ Abs: 0.00001  Tot: +0.00000 ]
	SubspaceRotationAdjust: set factor to 0.0752
ElecMinimize: Iter:   4  F: -889.604083622882172  |grad|_K:  1.988e-06  alpha:  5.217e-01  linmin: -6.300e-06  t[s]:   1969.98
	Linear fluid (dielectric constant: 78.4, screening length: 8.12261 Bohr) occupying 0.488186 of unit cell:	Completed after 18 iterations at t[s]:   1978.43
	Linear fluid (dielectric constant: 78.4, screening length: 8.12261 Bohr) occupying 0.488274 of unit cell:	Completed after 16 iterations at t[s]:   1985.58
	FillingsUpdate:  mu: -0.179945238  nElectrons: 160.000000  magneticMoment: [ Abs: 0.00001  Tot: +0.00000 ]
	SubspaceRotationAdjust: set factor to 0.087
ElecMinimize: Iter:   5  F: -889.604558158147142  |grad|_K:  2.010e-06  alpha:  7.623e-01  linmin:  1.913e-05  t[s]:   1995.10
	Linear fluid (dielectric constant: 78.4, screening length: 8.12261 Bohr) occupying 0.488567 of unit cell:	Completed after 18 iterations at t[s]:   2003.62
	Linear fluid (dielectric constant: 78.4, screening length: 8.12261 Bohr) occupying 0.488533 of unit cell:	Completed after 10 iterations at t[s]:   2010.43
	FillingsUpdate:  mu: -0.183962544  nElectrons: 160.000000  magneticMoment: [ Abs: 0.00001  Tot: +0.00000 ]
	SubspaceRotationAdjust: set factor to 0.0949
ElecMinimize: Iter:   6  F: -889.604986163723538  |grad|_K:  2.228e-06  alpha:  6.736e-01  linmin: -2.070e-05  t[s]:   2019.96
	Linear fluid (dielectric constant: 78.4, screening length: 8.12261 Bohr) occupying 0.488796 of unit cell:	Completed after 18 iterations at t[s]:   2028.60
	Linear fluid (dielectric constant: 78.4, screening length: 8.12261 Bohr) occupying 0.488845 of unit cell:	Completed after 15 iterations at t[s]:   2035.60
	FillingsUpdate:  mu: -0.180294466  nElectrons: 160.000000  magneticMoment: [ Abs: 0.00001  Tot: +0.00000 ]
	SubspaceRotationAdjust: set factor to 0.0946
ElecMinimize: Iter:   7  F: -889.605613149285887  |grad|_K:  2.498e-06  alpha:  8.017e-01  linmin:  5.747e-05  t[s]:   2045.03
	Linear fluid (dielectric constant: 78.4, screening length: 8.12261 Bohr) occupying 0.488959 of unit cell:	Completed after 19 iterations at t[s]:   2053.57
	Linear fluid (dielectric constant: 78.4, screening length: 8.12261 Bohr) occupying 0.488927 of unit cell:	Completed after 15 iterations at t[s]:   2060.60
	FillingsUpdate:  mu: -0.182313796  nElectrons: 160.000000  magneticMoment: [ Abs: 0.00001  Tot: +0.00000 ]
	SubspaceRotationAdjust: set factor to 0.0895
ElecMinimize: Iter:   8  F: -889.606178766473931  |grad|_K:  1.959e-06  alpha:  5.819e-01  linmin: -6.867e-06  t[s]:   2070.01
	Linear fluid (dielectric constant: 78.4, screening length: 8.12261 Bohr) occupying 0.488770 of unit cell:	Completed after 18 iterations at t[s]:   2078.48
	Linear fluid (dielectric constant: 78.4, screening length: 8.12261 Bohr) occupying 0.488811 of unit cell:	Completed after 15 iterations at t[s]:   2085.60
	FillingsUpdate:  mu: -0.183627867  nElectrons: 160.000000  magneticMoment: [ Abs: 0.00001  Tot: +0.00000 ]
	SubspaceRotationAdjust: set factor to 0.0681
ElecMinimize: Iter:   9  F: -889.606434623826090  |grad|_K:  1.542e-06  alpha:  4.230e-01  linmin: -2.799e-06  t[s]:   2094.90
	Linear fluid (dielectric constant: 78.4, screening length: 8.12261 Bohr) occupying 0.488626 of unit cell:	Completed after 17 iterations at t[s]:   2103.42
	Linear fluid (dielectric constant: 78.4, screening length: 8.12261 Bohr) occupying 0.488651 of unit cell:	Completed after 10 iterations at t[s]:   2110.18
	FillingsUpdate:  mu: -0.182800110  nElectrons: 160.000000  magneticMoment: [ Abs: 0.00001  Tot: +0.00000 ]
	SubspaceRotationAdjust: set factor to 0.051
ElecMinimize: Iter:  10  F: -889.606571630424355  |grad|_K:  1.004e-06  alpha:  3.656e-01  linmin:  4.123e-06  t[s]:   2119.76
	Linear fluid (dielectric constant: 78.4, screening length: 8.12261 Bohr) occupying 0.488524 of unit cell:	Completed after 10 iterations at t[s]:   2127.79
	Linear fluid (dielectric constant: 78.4, screening length: 8.12261 Bohr) occupying 0.488494 of unit cell:	Completed after 7 iterations at t[s]:   2134.41
	FillingsUpdate:  mu: -0.182701894  nElectrons: 160.000000  magneticMoment: [ Abs: 0.00001  Tot: +0.00000 ]
	SubspaceRotationAdjust: set factor to 0.0562
ElecMinimize: Iter:  11  F: -889.606643210591869  |grad|_K:  6.080e-07  alpha:  4.507e-01  linmin: -2.160e-06  t[s]:   2144.66
	Linear fluid (dielectric constant: 78.4, screening length: 8.12261 Bohr) occupying 0.488405 of unit cell:	Completed after 11 iterations at t[s]:   2153.10
	Linear fluid (dielectric constant: 78.4, screening length: 8.12261 Bohr) occupying 0.488403 of unit cell:	Completed after 2 iterations at t[s]:   2159.49
	FillingsUpdate:  mu: -0.182973736  nElectrons: 160.000000  magneticMoment: [ Abs: 0.00001  Tot: +0.00000 ]
	SubspaceRotationAdjust: set factor to 0.0541
ElecMinimize: Iter:  12  F: -889.606669909779953  |grad|_K:  3.965e-07  alpha:  4.584e-01  linmin: -1.455e-05  t[s]:   2168.91
	Linear fluid (dielectric constant: 78.4, screening length: 8.12261 Bohr) occupying 0.488354 of unit cell:	Completed after 10 iterations at t[s]:   2176.97
	Linear fluid (dielectric constant: 78.4, screening length: 8.12261 Bohr) occupying 0.488350 of unit cell:	Completed after 6 iterations at t[s]:   2183.58
	FillingsUpdate:  mu: -0.182909124  nElectrons: 160.000000  magneticMoment: [ Abs: 0.00001  Tot: +0.00000 ]
	SubspaceRotationAdjust: set factor to 0.0502
ElecMinimize: Iter:  13  F: -889.606682156953639  |grad|_K:  2.800e-07  alpha:  4.942e-01  linmin:  6.347e-06  t[s]:   2192.91
	Linear fluid (dielectric constant: 78.4, screening length: 8.12261 Bohr) occupying 0.488321 of unit cell:	Completed after 9 iterations at t[s]:   2200.93
	Linear fluid (dielectric constant: 78.4, screening length: 8.12261 Bohr) occupying 0.488324 of unit cell:	Completed after 2 iterations at t[s]:   2207.26
	FillingsUpdate:  mu: -0.183001627  nElectrons: 160.000000  magneticMoment: [ Abs: 0.00001  Tot: +0.00000 ]
	SubspaceRotationAdjust: set factor to 0.0534
ElecMinimize: Iter:  14  F: -889.606687648254024  |grad|_K:  1.840e-07  alpha:  4.445e-01  linmin:  1.120e-04  t[s]:   2216.74
	Linear fluid (dielectric constant: 78.4, screening length: 8.12261 Bohr) occupying 0.488314 of unit cell:	Completed after 4 iterations at t[s]:   2224.47
	Linear fluid (dielectric constant: 78.4, screening length: 8.12261 Bohr) occupying 0.488313 of unit cell:	Completed after 3 iterations at t[s]:   2230.88
	FillingsUpdate:  mu: -0.183072863  nElectrons: 160.000000  magneticMoment: [ Abs: 0.00001  Tot: +0.00000 ]
	SubspaceRotationAdjust: set factor to 0.0611
ElecMinimize: Iter:  15  F: -889.606690320196435  |grad|_K:  1.332e-07  alpha:  5.018e-01  linmin:  2.330e-04  t[s]:   2240.12
	Linear fluid (dielectric constant: 78.4, screening length: 8.12261 Bohr) occupying 0.488309 of unit cell:	Completed after 7 iterations at t[s]:   2248.06
	Linear fluid (dielectric constant: 78.4, screening length: 8.12261 Bohr) occupying 0.488309 of unit cell:	Completed after 2 iterations at t[s]:   2254.45
	FillingsUpdate:  mu: -0.183050432  nElectrons: 160.000000  magneticMoment: [ Abs: 0.00001  Tot: +0.00000 ]
	SubspaceRotationAdjust: set factor to 0.0713
ElecMinimize: Iter:  16  F: -889.606691878976335  |grad|_K:  1.069e-07  alpha:  5.586e-01  linmin: -7.239e-05  t[s]:   2263.78
	Linear fluid (dielectric constant: 78.4, screening length: 8.12261 Bohr) occupying 0.488309 of unit cell:	Completed after 7 iterations at t[s]:   2271.67
	Linear fluid (dielectric constant: 78.4, screening length: 8.12261 Bohr) occupying 0.488309 of unit cell:	Completed after 0 iterations at t[s]:   2277.87
	FillingsUpdate:  mu: -0.183034690  nElectrons: 160.000000  magneticMoment: [ Abs: 0.00001  Tot: +0.00000 ]
	SubspaceRotationAdjust: set factor to 0.086
ElecMinimize: Iter:  17  F: -889.606692896650429  |grad|_K:  9.509e-08  alpha:  5.646e-01  linmin:  1.315e-05  t[s]:   2287.56
	Linear fluid (dielectric constant: 78.4, screening length: 8.12261 Bohr) occupying 0.488312 of unit cell:	Completed after 7 iterations at t[s]:   2295.40
	Linear fluid (dielectric constant: 78.4, screening length: 8.12261 Bohr) occupying 0.488312 of unit cell:	Completed after 2 iterations at t[s]:   2301.80
	FillingsUpdate:  mu: -0.183028499  nElectrons: 160.000000  magneticMoment: [ Abs: 0.00001  Tot: +0.00000 ]
	SubspaceRotationAdjust: set factor to 0.103
ElecMinimize: Iter:  18  F: -889.606693804848419  |grad|_K:  9.767e-08  alpha:  6.380e-01  linmin:  6.950e-06  t[s]:   2311.18
	Linear fluid (dielectric constant: 78.4, screening length: 8.12261 Bohr) occupying 0.488315 of unit cell:	Completed after 4 iterations at t[s]:   2318.90
	Linear fluid (dielectric constant: 78.4, screening length: 8.12261 Bohr) occupying 0.488315 of unit cell:	Completed after 0 iterations at t[s]:   2325.18
	FillingsUpdate:  mu: -0.183030081  nElectrons: 160.000000  magneticMoment: [ Abs: 0.00001  Tot: +0.00000 ]
	SubspaceRotationAdjust: set factor to 0.122
ElecMinimize: Iter:  19  F: -889.606694805423103  |grad|_K:  9.525e-08  alpha:  6.660e-01  linmin: -2.630e-05  t[s]:   2334.58
	Linear fluid (dielectric constant: 78.4, screening length: 8.12261 Bohr) occupying 0.488318 of unit cell:	Completed after 3 iterations at t[s]:   2342.24
	Linear fluid (dielectric constant: 78.4, screening length: 8.12261 Bohr) occupying 0.488318 of unit cell:	Completed after 0 iterations at t[s]:   2348.49
	FillingsUpdate:  mu: -0.183005821  nElectrons: 160.000000  magneticMoment: [ Abs: 0.00001  Tot: +0.00000 ]
	SubspaceRotationAdjust: set factor to 0.137
ElecMinimize: Iter:  20  F: -889.606695756024465  |grad|_K:  9.346e-08  alpha:  6.636e-01  linmin: -1.256e-05  t[s]:   2358.09
	Linear fluid (dielectric constant: 78.4, screening length: 8.12261 Bohr) occupying 0.488318 of unit cell:	Completed after 6 iterations at t[s]:   2365.99
	Linear fluid (dielectric constant: 78.4, screening length: 8.12261 Bohr) occupying 0.488318 of unit cell:	Completed after 2 iterations at t[s]:   2372.33
	FillingsUpdate:  mu: -0.182955865  nElectrons: 160.000000  magneticMoment: [ Abs: 0.00001  Tot: +0.00000 ]
	SubspaceRotationAdjust: set factor to 0.143
ElecMinimize: Iter:  21  F: -889.606696554230325  |grad|_K:  8.707e-08  alpha:  5.792e-01  linmin:  1.088e-05  t[s]:   2381.73
	Linear fluid (dielectric constant: 78.4, screening length: 8.12261 Bohr) occupying 0.488315 of unit cell:	Completed after 10 iterations at t[s]:   2389.68
	Linear fluid (dielectric constant: 78.4, screening length: 8.12261 Bohr) occupying 0.488316 of unit cell:	Completed after 6 iterations at t[s]:   2396.33
	FillingsUpdate:  mu: -0.183011425  nElectrons: 160.000000  magneticMoment: [ Abs: 0.00000  Tot: +0.00000 ]
	SubspaceRotationAdjust: set factor to 0.121
ElecMinimize: Iter:  22  F: -889.606697012824611  |grad|_K:  8.514e-08  alpha:  3.850e-01  linmin:  7.279e-07  t[s]:   2405.72
	Linear fluid (dielectric constant: 78.4, screening length: 8.12261 Bohr) occupying 0.488314 of unit cell:	Completed after 9 iterations at t[s]:   2413.72
	Linear fluid (dielectric constant: 78.4, screening length: 8.12261 Bohr) occupying 0.488315 of unit cell:	Completed after 7 iterations at t[s]:   2420.37
	FillingsUpdate:  mu: -0.182988139  nElectrons: 160.000000  magneticMoment: [ Abs: 0.00000  Tot: +0.00000 ]
	SubspaceRotationAdjust: set factor to 0.0866
ElecMinimize: Iter:  23  F: -889.606697290108855  |grad|_K:  5.915e-08  alpha:  2.434e-01  linmin:  8.776e-07  t[s]:   2429.82
	Linear fluid (dielectric constant: 78.4, screening length: 8.12261 Bohr) occupying 0.488314 of unit cell:	Completed after 2 iterations at t[s]:   2437.45
	Linear fluid (dielectric constant: 78.4, screening length: 8.12261 Bohr) occupying 0.488313 of unit cell:	Completed after 6 iterations at t[s]:   2444.02
	FillingsUpdate:  mu: -0.182910966  nElectrons: 160.000000  magneticMoment: [ Abs: 0.00000  Tot: +0.00000 ]
	SubspaceRotationAdjust: set factor to 0.09
ElecMinimize: Iter:  24  F: -889.606697524077504  |grad|_K:  4.454e-08  alpha:  4.281e-01  linmin:  8.009e-05  t[s]:   2453.34
	Linear fluid (dielectric constant: 78.4, screening length: 8.12261 Bohr) occupying 0.488312 of unit cell:	Completed after 5 iterations at t[s]:   2461.08
	Linear fluid (dielectric constant: 78.4, screening length: 8.12261 Bohr) occupying 0.488312 of unit cell:	Completed after 0 iterations at t[s]:   2467.35
	FillingsUpdate:  mu: -0.182968478  nElectrons: 160.000000  magneticMoment: [ Abs: 0.00000  Tot: +0.00000 ]
	SubspaceRotationAdjust: set factor to 0.0915
ElecMinimize: Iter:  25  F: -889.606697659189877  |grad|_K:  3.312e-08  alpha:  4.351e-01  linmin: -9.716e-05  t[s]:   2476.97
	Linear fluid (dielectric constant: 78.4, screening length: 8.12261 Bohr) occupying 0.488311 of unit cell:	Completed after 5 iterations at t[s]:   2484.81
	Linear fluid (dielectric constant: 78.4, screening length: 8.12261 Bohr) occupying 0.488311 of unit cell:	Completed after 0 iterations at t[s]:   2491.03
	FillingsUpdate:  mu: -0.182977083  nElectrons: 160.000000  magneticMoment: [ Abs: 0.00000  Tot: +0.00000 ]
	SubspaceRotationAdjust: set factor to 0.0853
ElecMinimize: Iter:  26  F: -889.606697728497124  |grad|_K:  2.759e-08  alpha:  3.974e-01  linmin:  8.945e-04  t[s]:   2500.69
	Linear fluid (dielectric constant: 78.4, screening length: 8.12261 Bohr) occupying 0.488311 of unit cell:	Completed after 2 iterations at t[s]:   2508.40
	Linear fluid (dielectric constant: 78.4, screening length: 8.12261 Bohr) occupying 0.488311 of unit cell:	Completed after 0 iterations at t[s]:   2514.70
	FillingsUpdate:  mu: -0.182961403  nElectrons: 160.000000  magneticMoment: [ Abs: 0.00000  Tot: +0.00000 ]
	SubspaceRotationAdjust: set factor to 0.0936
ElecMinimize: Iter:  27  F: -889.606697772301573  |grad|_K:  2.022e-08  alpha:  3.787e-01  linmin: -7.239e-04  t[s]:   2524.20
ElecMinimize: Converged (|Delta F|<1.000000e-07 for 2 iters).
Setting wave functions to eigenvectors of Hamiltonian
Converging empty states (this may take a while): |deigs|: 2.358e-08

Computing DFT-D3 correction:
# coordination-number Pt 8.728 9.524 9.518 7.156 4.870 9.517 9.525 8.729 4.871 7.155
# diagonal-C6 Pt 336.87 336.87 336.87 336.87 336.87 336.87 336.87 336.87 336.87 336.87
EvdW_6 =   -0.074870
EvdW_8 =   -0.128538
IonicMinimize: 	Wolfe criterion not satisfied: alpha: 1  (E-E0)/|gdotd0|: -0.95651  gdotd/gdotd0: 0.902399 (taking cubic step)

Computing DFT-D3 correction:
# coordination-number Pt 8.710 9.471 9.505 7.160 4.984 9.503 9.472 8.712 4.986 7.158
# diagonal-C6 Pt 336.87 336.87 336.87 336.87 336.87 336.87 336.87 336.87 336.87 336.87
EvdW_6 =   -0.074859
EvdW_8 =   -0.128458

-------- Electronic minimization -----------
	Linear fluid (dielectric constant: 78.4, screening length: 8.12261 Bohr) occupying 0.488320 of unit cell:	Completed after 22 iterations at t[s]:   2555.36
	FillingsUpdate:  mu: -0.183951097  nElectrons: 160.000000  magneticMoment: [ Abs: 0.00000  Tot: +0.00000 ]
ElecMinimize: Iter:   0  F: -889.270232809158301  |grad|_K:  7.791e-05  alpha:  1.000e+00
	Linear fluid (dielectric constant: 78.4, screening length: 8.12261 Bohr) occupying 0.488620 of unit cell:	Completed after 24 iterations at t[s]:   2574.94
	Linear fluid (dielectric constant: 78.4, screening length: 8.12261 Bohr) occupying 0.488389 of unit cell:	Completed after 23 iterations at t[s]:   2582.39
	FillingsUpdate:  mu: -0.219756589  nElectrons: 160.000000  magneticMoment: [ Abs: 0.00000  Tot: +0.00000 ]
	SubspaceRotationAdjust: set factor to 0.0825
ElecMinimize: Iter:   1  F: -889.568937242270636  |grad|_K:  2.281e-05  alpha:  3.144e-01  linmin:  4.341e-03  t[s]:   2591.94
	Linear fluid (dielectric constant: 78.4, screening length: 8.12261 Bohr) occupying 0.488789 of unit cell:	Completed after 21 iterations at t[s]:   2600.62
	Linear fluid (dielectric constant: 78.4, screening length: 8.12261 Bohr) occupying 0.488780 of unit cell:	Completed after 12 iterations at t[s]:   2607.69
	FillingsUpdate:  mu: -0.171541231  nElectrons: 160.000000  magneticMoment: [ Abs: 0.00000  Tot: +0.00000 ]
	SubspaceRotationAdjust: set factor to 0.0624
ElecMinimize: Iter:   2  F: -889.594008245740952  |grad|_K:  8.895e-06  alpha:  3.079e-01  linmin:  8.539e-05  t[s]:   2617.17
	Linear fluid (dielectric constant: 78.4, screening length: 8.12261 Bohr) occupying 0.488902 of unit cell:	Completed after 19 iterations at t[s]:   2625.72
	Linear fluid (dielectric constant: 78.4, screening length: 8.12261 Bohr) occupying 0.488928 of unit cell:	Completed after 17 iterations at t[s]:   2632.90
	FillingsUpdate:  mu: -0.189113792  nElectrons: 160.000000  magneticMoment: [ Abs: 0.00000  Tot: +0.00000 ]
	SubspaceRotationAdjust: set factor to 0.0714
ElecMinimize: Iter:   3  F: -889.598670504366623  |grad|_K:  4.402e-06  alpha:  3.741e-01  linmin: -7.691e-05  t[s]:   2642.36
	Linear fluid (dielectric constant: 78.4, screening length: 8.12261 Bohr) occupying 0.489111 of unit cell:	Completed after 19 iterations at t[s]:   2650.89
	Linear fluid (dielectric constant: 78.4, screening length: 8.12261 Bohr) occupying 0.489203 of unit cell:	Completed after 17 iterations at t[s]:   2658.22
	FillingsUpdate:  mu: -0.184407937  nElectrons: 160.000000  magneticMoment: [ Abs: 0.00000  Tot: +0.00000 ]
	SubspaceRotationAdjust: set factor to 0.0902
ElecMinimize: Iter:   4  F: -889.600380243573682  |grad|_K:  4.039e-06  alpha:  5.598e-01  linmin:  1.488e-05  t[s]:   2667.61
	Linear fluid (dielectric constant: 78.4, screening length: 8.12261 Bohr) occupying 0.489600 of unit cell:	Completed after 19 iterations at t[s]:   2676.13
	Linear fluid (dielectric constant: 78.4, screening length: 8.12261 Bohr) occupying 0.489766 of unit cell:	Completed after 18 iterations at t[s]:   2683.36
	FillingsUpdate:  mu: -0.177903796  nElectrons: 160.000000  magneticMoment: [ Abs: 0.00000  Tot: +0.00000 ]
	SubspaceRotationAdjust: set factor to 0.108
ElecMinimize: Iter:   5  F: -889.602411494382409  |grad|_K:  4.163e-06  alpha:  7.913e-01  linmin:  2.856e-05  t[s]:   2692.73
	Linear fluid (dielectric constant: 78.4, screening length: 8.12261 Bohr) occupying 0.490373 of unit cell:	Completed after 20 iterations at t[s]:   2701.28
	Linear fluid (dielectric constant: 78.4, screening length: 8.12261 Bohr) occupying 0.490251 of unit cell:	Completed after 18 iterations at t[s]:   2708.54
	FillingsUpdate:  mu: -0.186189533  nElectrons: 160.000000  magneticMoment: [ Abs: 0.00000  Tot: +0.00000 ]
	SubspaceRotationAdjust: set factor to 0.111
ElecMinimize: Iter:   6  F: -889.604148926462472  |grad|_K:  4.939e-06  alpha:  6.397e-01  linmin: -3.657e-05  t[s]:   2718.10
	Linear fluid (dielectric constant: 78.4, screening length: 8.12261 Bohr) occupying 0.490855 of unit cell:	Completed after 20 iterations at t[s]:   2726.66
	Linear fluid (dielectric constant: 78.4, screening length: 8.12261 Bohr) occupying 0.490738 of unit cell:	Completed after 18 iterations at t[s]:   2733.94
	FillingsUpdate:  mu: -0.179779696  nElectrons: 160.000000  magneticMoment: [ Abs: 0.00000  Tot: +0.00000 ]
	SubspaceRotationAdjust: set factor to 0.0945
ElecMinimize: Iter:   7  F: -889.606199867774990  |grad|_K:  5.348e-06  alpha:  5.296e-01  linmin:  3.132e-05  t[s]:   2743.24
	Linear fluid (dielectric constant: 78.4, screening length: 8.12261 Bohr) occupying 0.490966 of unit cell:	Completed after 20 iterations at t[s]:   2752.48
	Linear fluid (dielectric constant: 78.4, screening length: 8.12261 Bohr) occupying 0.490920 of unit cell:	Completed after 17 iterations at t[s]:   2759.71
	FillingsUpdate:  mu: -0.176316073  nElectrons: 160.000000  magneticMoment: [ Abs: 0.00000  Tot: +0.00000 ]
	SubspaceRotationAdjust: set factor to 0.0803
ElecMinimize: Iter:   8  F: -889.608209683726159  |grad|_K:  4.390e-06  alpha:  4.468e-01  linmin:  3.233e-05  t[s]:   2769.13
	Linear fluid (dielectric constant: 78.4, screening length: 8.12261 Bohr) occupying 0.490700 of unit cell:	Completed after 19 iterations at t[s]:   2777.75
	Linear fluid (dielectric constant: 78.4, screening length: 8.12261 Bohr) occupying 0.490725 of unit cell:	Completed after 16 iterations at t[s]:   2785.01
	FillingsUpdate:  mu: -0.185498588  nElectrons: 160.000000  magneticMoment: [ Abs: 0.00000  Tot: +0.00000 ]
	SubspaceRotationAdjust: set factor to 0.0707
ElecMinimize: Iter:   9  F: -889.609401135470534  |grad|_K:  2.885e-06  alpha:  3.953e-01  linmin: -6.452e-05  t[s]:   2794.42
	Linear fluid (dielectric constant: 78.4, screening length: 8.12261 Bohr) occupying 0.490448 of unit cell:	Completed after 13 iterations at t[s]:   2802.57
	Linear fluid (dielectric constant: 78.4, screening length: 8.12261 Bohr) occupying 0.490396 of unit cell:	Completed after 10 iterations at t[s]:   2809.35
	FillingsUpdate:  mu: -0.183543118  nElectrons: 160.000000  magneticMoment: [ Abs: 0.00000  Tot: +0.00000 ]
	SubspaceRotationAdjust: set factor to 0.0718
ElecMinimize: Iter:  10  F: -889.610019284674308  |grad|_K:  1.939e-06  alpha:  4.682e-01  linmin:  2.818e-05  t[s]:   2818.77
	Linear fluid (dielectric constant: 78.4, screening length: 8.12261 Bohr) occupying 0.490099 of unit cell:	Completed after 17 iterations at t[s]:   2827.19
	Linear fluid (dielectric constant: 78.4, screening length: 8.12261 Bohr) occupying 0.490108 of unit cell:	Completed after 6 iterations at t[s]:   2833.82
	FillingsUpdate:  mu: -0.182571422  nElectrons: 160.000000  magneticMoment: [ Abs: 0.00000  Tot: +0.00000 ]
	SubspaceRotationAdjust: set factor to 0.0679
ElecMinimize: Iter:  11  F: -889.610287497545869  |grad|_K:  1.249e-06  alpha:  4.537e-01  linmin:  3.945e-06  t[s]:   2843.24
	Linear fluid (dielectric constant: 78.4, screening length: 8.12261 Bohr) occupying 0.489918 of unit cell:	Completed after 18 iterations at t[s]:   2851.68
	Linear fluid (dielectric constant: 78.4, screening length: 8.12261 Bohr) occupying 0.489938 of unit cell:	Completed after 10 iterations at t[s]:   2858.52
	FillingsUpdate:  mu: -0.183881054  nElectrons: 160.000000  magneticMoment: [ Abs: 0.00000  Tot: +0.00000 ]
	SubspaceRotationAdjust: set factor to 0.0583
ElecMinimize: Iter:  12  F: -889.610387364720964  |grad|_K:  8.392e-07  alpha:  4.064e-01  linmin: -7.680e-06  t[s]:   2868.07
	Linear fluid (dielectric constant: 78.4, screening length: 8.12261 Bohr) occupying 0.489840 of unit cell:	Completed after 11 iterations at t[s]:   2876.30
	Linear fluid (dielectric constant: 78.4, screening length: 8.12261 Bohr) occupying 0.489832 of unit cell:	Completed after 6 iterations at t[s]:   2882.90
	FillingsUpdate:  mu: -0.183602123  nElectrons: 160.000000  magneticMoment: [ Abs: 0.00000  Tot: +0.00000 ]
	SubspaceRotationAdjust: set factor to 0.059
ElecMinimize: Iter:  13  F: -889.610435986532025  |grad|_K:  5.849e-07  alpha:  4.381e-01  linmin: -4.699e-07  t[s]:   2892.39
	Linear fluid (dielectric constant: 78.4, screening length: 8.12261 Bohr) occupying 0.489776 of unit cell:	Completed after 8 iterations at t[s]:   2900.33
	Linear fluid (dielectric constant: 78.4, screening length: 8.12261 Bohr) occupying 0.489770 of unit cell:	Completed after 2 iterations at t[s]:   2906.75
	FillingsUpdate:  mu: -0.183435168  nElectrons: 160.000000  magneticMoment: [ Abs: 0.00000  Tot: +0.00000 ]
	SubspaceRotationAdjust: set factor to 0.0683
ElecMinimize: Iter:  14  F: -889.610462144565986  |grad|_K:  3.924e-07  alpha:  4.853e-01  linmin: -1.208e-05  t[s]:   2916.05
	Linear fluid (dielectric constant: 78.4, screening length: 8.12261 Bohr) occupying 0.489745 of unit cell:	Completed after 12 iterations at t[s]:   2924.20
	Linear fluid (dielectric constant: 78.4, screening length: 8.12261 Bohr) occupying 0.489744 of unit cell:	Completed after 2 iterations at t[s]:   2930.56
	FillingsUpdate:  mu: -0.183862267  nElectrons: 160.000000  magneticMoment: [ Abs: 0.00000  Tot: +0.00000 ]
	SubspaceRotationAdjust: set factor to 0.0734
ElecMinimize: Iter:  15  F: -889.610474287277725  |grad|_K:  3.117e-07  alpha:  5.005e-01  linmin:  5.411e-05  t[s]:   2940.03
	Linear fluid (dielectric constant: 78.4, screening length: 8.12261 Bohr) occupying 0.489736 of unit cell:	Completed after 10 iterations at t[s]:   2948.10
	Linear fluid (dielectric constant: 78.4, screening length: 8.12261 Bohr) occupying 0.489736 of unit cell:	Completed after 0 iterations at t[s]:   2954.32
	FillingsUpdate:  mu: -0.183802516  nElectrons: 160.000000  magneticMoment: [ Abs: 0.00000  Tot: +0.00000 ]
	SubspaceRotationAdjust: set factor to 0.083
ElecMinimize: Iter:  16  F: -889.610481942749402  |grad|_K:  2.693e-07  alpha:  5.004e-01  linmin:  1.878e-05  t[s]:   2963.66
	Linear fluid (dielectric constant: 78.4, screening length: 8.12261 Bohr) occupying 0.489737 of unit cell:	Completed after 10 iterations at t[s]:   2971.69
	Linear fluid (dielectric constant: 78.4, screening length: 8.12261 Bohr) occupying 0.489737 of unit cell:	Completed after 2 iterations at t[s]:   2978.10
	FillingsUpdate:  mu: -0.183622124  nElectrons: 160.000000  magneticMoment: [ Abs: 0.00000  Tot: +0.00000 ]
	SubspaceRotationAdjust: set factor to 0.103
ElecMinimize: Iter:  17  F: -889.610488418053023  |grad|_K:  2.371e-07  alpha:  5.671e-01  linmin: -1.693e-05  t[s]:   2987.41
	Linear fluid (dielectric constant: 78.4, screening length: 8.12261 Bohr) occupying 0.489743 of unit cell:	Completed after 6 iterations at t[s]:   2995.28
	Linear fluid (dielectric constant: 78.4, screening length: 8.12261 Bohr) occupying 0.489744 of unit cell:	Completed after 2 iterations at t[s]:   3001.65
	FillingsUpdate:  mu: -0.183756471  nElectrons: 160.000000  magneticMoment: [ Abs: 0.00000  Tot: +0.00000 ]
	SubspaceRotationAdjust: set factor to 0.124
ElecMinimize: Iter:  18  F: -889.610494316401173  |grad|_K:  2.438e-07  alpha:  6.658e-01  linmin: -6.655e-07  t[s]:   3010.99
	Linear fluid (dielectric constant: 78.4, screening length: 8.12261 Bohr) occupying 0.489757 of unit cell:	Completed after 10 iterations at t[s]:   3019.14
	Linear fluid (dielectric constant: 78.4, screening length: 8.12261 Bohr) occupying 0.489756 of unit cell:	Completed after 2 iterations at t[s]:   3025.49
	FillingsUpdate:  mu: -0.183550160  nElectrons: 160.000000  magneticMoment: [ Abs: 0.00000  Tot: +0.00000 ]
	SubspaceRotationAdjust: set factor to 0.132
ElecMinimize: Iter:  19  F: -889.610500118121081  |grad|_K:  2.659e-07  alpha:  6.194e-01  linmin:  1.845e-05  t[s]:   3035.03
	Linear fluid (dielectric constant: 78.4, screening length: 8.12261 Bohr) occupying 0.489768 of unit cell:	Completed after 10 iterations at t[s]:   3043.09
	Linear fluid (dielectric constant: 78.4, screening length: 8.12261 Bohr) occupying 0.489763 of unit cell:	Completed after 10 iterations at t[s]:   3050.15
	FillingsUpdate:  mu: -0.183618949  nElectrons: 160.000000  magneticMoment: [ Abs: 0.00000  Tot: +0.00000 ]
	SubspaceRotationAdjust: set factor to 0.112
ElecMinimize: Iter:  20  F: -889.610504223104385  |grad|_K:  2.590e-07  alpha:  3.703e-01  linmin: -3.888e-06  t[s]:   3059.82
	Linear fluid (dielectric constant: 78.4, screening length: 8.12261 Bohr) occupying 0.489768 of unit cell:	Completed after 9 iterations at t[s]:   3067.84
	Linear fluid (dielectric constant: 78.4, screening length: 8.12261 Bohr) occupying 0.489768 of unit cell:	Completed after 2 iterations at t[s]:   3074.17
	FillingsUpdate:  mu: -0.183679040  nElectrons: 160.000000  magneticMoment: [ Abs: 0.00000  Tot: +0.00000 ]
	SubspaceRotationAdjust: set factor to 0.0921
ElecMinimize: Iter:  21  F: -889.610507866918624  |grad|_K:  2.078e-07  alpha:  3.447e-01  linmin:  2.487e-05  t[s]:   3083.59
	Linear fluid (dielectric constant: 78.4, screening length: 8.12261 Bohr) occupying 0.489770 of unit cell:	Completed after 9 iterations at t[s]:   3091.53
	Linear fluid (dielectric constant: 78.4, screening length: 8.12261 Bohr) occupying 0.489770 of unit cell:	Completed after 7 iterations at t[s]:   3098.21
	FillingsUpdate:  mu: -0.183447495  nElectrons: 160.000000  magneticMoment: [ Abs: 0.00000  Tot: +0.00000 ]
	SubspaceRotationAdjust: set factor to 0.0926
ElecMinimize: Iter:  22  F: -889.610511138478955  |grad|_K:  1.594e-07  alpha:  4.817e-01  linmin: -2.391e-05  t[s]:   3107.65
	Linear fluid (dielectric constant: 78.4, screening length: 8.12261 Bohr) occupying 0.489769 of unit cell:	Completed after 8 iterations at t[s]:   3115.60
	Linear fluid (dielectric constant: 78.4, screening length: 8.12261 Bohr) occupying 0.489769 of unit cell:	Completed after 0 iterations at t[s]:   3121.78
	FillingsUpdate:  mu: -0.183566538  nElectrons: 160.000000  magneticMoment: [ Abs: 0.00000  Tot: +0.00000 ]
	SubspaceRotationAdjust: set factor to 0.0965
ElecMinimize: Iter:  23  F: -889.610513156673278  |grad|_K:  1.196e-07  alpha:  5.029e-01  linmin: -3.753e-05  t[s]:   3131.17
	Linear fluid (dielectric constant: 78.4, screening length: 8.12261 Bohr) occupying 0.489767 of unit cell:	Completed after 9 iterations at t[s]:   3139.18
[...]
	FillingsUpdate:  mu: -0.187313899  nElectrons: 160.000000  magneticMoment: [ Abs: 0.00000  Tot: +0.00000 ]
	SubspaceRotationAdjust: set factor to 0.0914
ElecMinimize: Iter:   6  F: -889.618939297237830  |grad|_K:  1.746e-07  alpha:  7.184e-01  linmin:  2.257e-05  t[s]:   8203.28
	Linear fluid (dielectric constant: 78.4, screening length: 8.12261 Bohr) occupying 0.495365 of unit cell:	Completed after 9 iterations at t[s]:   8211.22
	Linear fluid (dielectric constant: 78.4, screening length: 8.12261 Bohr) occupying 0.495367 of unit cell:	Completed after 10 iterations at t[s]:   8218.03
	FillingsUpdate:  mu: -0.187251243  nElectrons: 160.000000  magneticMoment: [ Abs: 0.00000  Tot: +0.00000 ]
	SubspaceRotationAdjust: set factor to 0.0746
ElecMinimize: Iter:   7  F: -889.618941296352091  |grad|_K:  1.352e-07  alpha:  4.169e-01  linmin:  1.097e-07  t[s]:   8227.37
	Linear fluid (dielectric constant: 78.4, screening length: 8.12261 Bohr) occupying 0.495367 of unit cell:	Completed after 7 iterations at t[s]:   8235.31
	Linear fluid (dielectric constant: 78.4, screening length: 8.12261 Bohr) occupying 0.495367 of unit cell:	Completed after 2 iterations at t[s]:   8241.65
	FillingsUpdate:  mu: -0.187262194  nElectrons: 160.000000  magneticMoment: [ Abs: 0.00000  Tot: +0.00000 ]
	SubspaceRotationAdjust: set factor to 0.0677
ElecMinimize: Iter:   8  F: -889.618942779478971  |grad|_K:  9.644e-08  alpha:  5.151e-01  linmin: -1.022e-04  t[s]:   8251.00
	Linear fluid (dielectric constant: 78.4, screening length: 8.12261 Bohr) occupying 0.495367 of unit cell:	Completed after 2 iterations at t[s]:   8258.64
	Linear fluid (dielectric constant: 78.4, screening length: 8.12261 Bohr) occupying 0.495367 of unit cell:	Completed after 0 iterations at t[s]:   8264.85
	FillingsUpdate:  mu: -0.187273293  nElectrons: 160.000000  magneticMoment: [ Abs: 0.00000  Tot: +0.00000 ]
	SubspaceRotationAdjust: set factor to 0.0716
ElecMinimize: Iter:   9  F: -889.618943525802592  |grad|_K:  6.289e-08  alpha:  5.076e-01  linmin: -6.397e-06  t[s]:   8274.26
	Linear fluid (dielectric constant: 78.4, screening length: 8.12261 Bohr) occupying 0.495366 of unit cell:	Completed after 6 iterations at t[s]:   8282.06
	Linear fluid (dielectric constant: 78.4, screening length: 8.12261 Bohr) occupying 0.495366 of unit cell:	Completed after 0 iterations at t[s]:   8288.31
	FillingsUpdate:  mu: -0.187274835  nElectrons: 160.000000  magneticMoment: [ Abs: 0.00000  Tot: +0.00000 ]
	SubspaceRotationAdjust: set factor to 0.0689
ElecMinimize: Iter:  10  F: -889.618943835194500  |grad|_K:  4.675e-08  alpha:  4.965e-01  linmin: -8.128e-05  t[s]:   8297.88
	Linear fluid (dielectric constant: 78.4, screening length: 8.12261 Bohr) occupying 0.495366 of unit cell:	Completed after 7 iterations at t[s]:   8305.80
	Linear fluid (dielectric constant: 78.4, screening length: 8.12261 Bohr) occupying 0.495366 of unit cell:	Completed after 2 iterations at t[s]:   8312.16
	FillingsUpdate:  mu: -0.187260939  nElectrons: 160.000000  magneticMoment: [ Abs: 0.00000  Tot: +0.00000 ]
	SubspaceRotationAdjust: set factor to 0.0589
ElecMinimize: Iter:  11  F: -889.618943984977250  |grad|_K:  3.296e-08  alpha:  4.348e-01  linmin:  6.680e-05  t[s]:   8321.56
	Linear fluid (dielectric constant: 78.4, screening length: 8.12261 Bohr) occupying 0.495365 of unit cell:	Completed after 6 iterations at t[s]:   8329.36
	Linear fluid (dielectric constant: 78.4, screening length: 8.12261 Bohr) occupying 0.495365 of unit cell:	Completed after 0 iterations at t[s]:   8335.78
	FillingsUpdate:  mu: -0.187259825  nElectrons: 160.000000  magneticMoment: [ Abs: 0.00000  Tot: +0.00000 ]
	SubspaceRotationAdjust: set factor to 0.0577
ElecMinimize: Iter:  12  F: -889.618944059205205  |grad|_K:  2.113e-08  alpha:  4.340e-01  linmin: -6.639e-04  t[s]:   8345.28
	Linear fluid (dielectric constant: 78.4, screening length: 8.12261 Bohr) occupying 0.495365 of unit cell:	Completed after 0 iterations at t[s]:   8352.70
	Linear fluid (dielectric constant: 78.4, screening length: 8.12261 Bohr) occupying 0.495365 of unit cell:	Completed after 0 iterations at t[s]:   8358.91
	FillingsUpdate:  mu: -0.187259828  nElectrons: 160.000000  magneticMoment: [ Abs: 0.00000  Tot: +0.00000 ]
	SubspaceRotationAdjust: set factor to 0.0661
ElecMinimize: Iter:  13  F: -889.618944097221743  |grad|_K:  1.479e-08  alpha:  5.377e-01  linmin:  4.702e-05  t[s]:   8368.26
ElecMinimize: Converged (|Delta F|<1.000000e-07 for 2 iters).
Setting wave functions to eigenvectors of Hamiltonian
Converging empty states (this may take a while): |deigs|: 2.361e-08

Computing DFT-D3 correction:
# coordination-number Pt 8.556 9.301 9.351 6.992 5.347 9.365 9.295 8.544 5.344 7.011
# diagonal-C6 Pt 336.87 336.87 336.87 336.87 336.87 336.87 336.87 336.87 336.87 336.87
EvdW_6 =   -0.074828
EvdW_8 =   -0.128377

# Ionic positions in cartesian coordinates:
ion Pt   3.704705125144482   1.824346386446373  12.573886316900511 1
ion Pt  -0.000995820169751   3.274333525329900   9.139144249095031 1
ion Pt   3.696960911905931   4.962699076653604   5.878067318605558 1
ion Pt  -0.005582896172412   6.533800633072713   2.273570112824074 1
ion Pt  -3.696606879511427   8.276955645858209  15.435385581721610 1
ion Pt   3.702234354626822   6.619230078545329  10.668930094037826 1
ion Pt   3.700763383203559   0.034891932118724   7.410969565488365 1
ion Pt  -0.005246071454559   1.483933292334961   3.973076252960188 1
ion Pt   3.696571637927273   3.304643630219629   1.106946616940357 1
ion Pt   0.005512254500081   5.047715799420557  14.265144891426468 1

# Forces in Cartesian coordinates:
force Pt   0.000003359779973   0.000029038371102   0.000031154990475 1
force Pt  -0.000003902738550   0.000016214614852  -0.000386844843367 1
force Pt  -0.000004197926094  -0.000144271773431  -0.000053337692860 1
force Pt  -0.000008995326813   0.000152831842903   0.000288202721683 1
force Pt  -0.000002062295654  -0.000059584227223   0.000338435553777 1
force Pt   0.000001081743032   0.000047425496570  -0.000246988973765 1
force Pt  -0.000002277556792  -0.000018205627840  -0.000327935850397 1
force Pt   0.000005527024774   0.000062612198782   0.000044089806446 1
force Pt   0.000007637088204   0.000008011433745   0.000343783261043 1
force Pt  -0.000006518484406  -0.000105007374789   0.000261313894798 1

# Energy components:
   A_diel =       -0.0035696685106899
   Eewald =     4089.8478407267557486
       EH =     4897.4318639780849480
     Eloc =   -10031.2525593851096346
      Enl =      -10.5017824491821017
     EvdW =       -0.2032054896774072
      Exc =     -284.3824706424038595
 Exc_core =      163.9138244993918363
       KE =      285.5324600430752753
-------------------------------------
     Etot =     -889.6175983875770044
       TS =        0.0013457096446824
-------------------------------------
        F =     -889.6189440972217426


Dumping 'jdft.fillings' ... done
Dumping 'jdft.wfns' ... done
Dumping 'jdft.fluidState' ... done
Dumping 'jdft.ionpos' ... done
Dumping 'jdft.lattice' ... done
Dumping 'jdft.eigenvals' ... done
Dumping 'jdft.eigStats' ... 
	eMin: -2.136727 at state 40 ( [ -0.444444 -0.285714 +0.000000 ] spin 1 )
	HOMO: -0.187496 at state 108 ( [ -0.333333 +0.428571 +0.000000 ] spin -1 )
	mu  : -0.187260
	LUMO: -0.187030 at state 22 ( [ +0.333333 +0.142857 +0.000000 ] spin 1 )
	eMax: +0.105546 at state 40 ( [ -0.444444 -0.285714 +0.000000 ] spin 1 )
	HOMO-LUMO gap: +0.000466
	Optical gap  : +0.001567 at state 56 ( [ -0.111111 +0.000000 +0.000000 ] spin 1 )
Dumping 'jdft.Ecomponents' ... done
IonicMinimize: Iter:  11  F: -889.618944097221743  |grad|_K:  1.598e-04  alpha:  1.000e+00  linmin:  1.315e-01  t[s]:   8390.40

#--- Lowdin population analysis ---
# oxidation-state Pt -0.039 +0.009 -0.004 -0.022 +0.112 -0.004 +0.009 -0.038 +0.112 -0.023
# magnetic-moments Pt +0.000 +0.000 +0.000 +0.000 +0.000 +0.000 +0.000 +0.000 +0.000 +0.000


Computing DFT-D3 correction:
# coordination-number Pt 8.552 9.300 9.357 7.000 5.344 9.360 9.299 8.550 5.347 7.005
# diagonal-C6 Pt 336.87 336.87 336.87 336.87 336.87 336.87 336.87 336.87 336.87 336.87
EvdW_6 =   -0.074831
EvdW_8 =   -0.128387

-------- Electronic minimization -----------
	Linear fluid (dielectric constant: 78.4, screening length: 8.12261 Bohr) occupying 0.495388 of unit cell:	Completed after 11 iterations at t[s]:   8399.50
	FillingsUpdate:  mu: -0.187273026  nElectrons: 160.000000  magneticMoment: [ Abs: 0.00000  Tot: +0.00000 ]
ElecMinimize: Iter:   0  F: -889.618936661340285  |grad|_K:  2.960e-07  alpha:  1.000e+00
	Linear fluid (dielectric constant: 78.4, screening length: 8.12261 Bohr) occupying 0.495390 of unit cell:	Completed after 11 iterations at t[s]:   8418.29
	Linear fluid (dielectric constant: 78.4, screening length: 8.12261 Bohr) occupying 0.495388 of unit cell:	Completed after 11 iterations at t[s]:   8425.28
	FillingsUpdate:  mu: -0.187212587  nElectrons: 160.000000  magneticMoment: [ Abs: 0.00000  Tot: +0.00000 ]
	SubspaceRotationAdjust: set factor to 0.0457
ElecMinimize: Iter:   1  F: -889.618940487203872  |grad|_K:  1.287e-07  alpha:  2.773e-01  linmin:  1.250e-04  t[s]:   8434.78
	Linear fluid (dielectric constant: 78.4, screening length: 8.12261 Bohr) occupying 0.495388 of unit cell:	Completed after 8 iterations at t[s]:   8442.76
	Linear fluid (dielectric constant: 78.4, screening length: 8.12261 Bohr) occupying 0.495388 of unit cell:	Completed after 6 iterations at t[s]:   8449.45
	FillingsUpdate:  mu: -0.187236883  nElectrons: 160.000000  magneticMoment: [ Abs: 0.00000  Tot: +0.00000 ]
	SubspaceRotationAdjust: set factor to 0.0573
ElecMinimize: Iter:   2  F: -889.618941637462854  |grad|_K:  7.145e-08  alpha:  4.412e-01  linmin:  5.494e-05  t[s]:   8459.33
	Linear fluid (dielectric constant: 78.4, screening length: 8.12261 Bohr) occupying 0.495387 of unit cell:	Completed after 2 iterations at t[s]:   8467.00
	Linear fluid (dielectric constant: 78.4, screening length: 8.12261 Bohr) occupying 0.495387 of unit cell:	Completed after 2 iterations at t[s]:   8473.38
	FillingsUpdate:  mu: -0.187248524  nElectrons: 160.000000  magneticMoment: [ Abs: 0.00000  Tot: +0.00000 ]
	SubspaceRotationAdjust: set factor to 0.0732
ElecMinimize: Iter:   3  F: -889.618942200060133  |grad|_K:  6.956e-08  alpha:  6.988e-01  linmin: -2.276e-04  t[s]:   8482.86
	Linear fluid (dielectric constant: 78.4, screening length: 8.12261 Bohr) occupying 0.495386 of unit cell:	Completed after 6 iterations at t[s]:   8490.65
	Linear fluid (dielectric constant: 78.4, screening length: 8.12261 Bohr) occupying 0.495386 of unit cell:	Completed after 2 iterations at t[s]:   8497.06
	FillingsUpdate:  mu: -0.187242647  nElectrons: 160.000000  magneticMoment: [ Abs: 0.00000  Tot: +0.00000 ]
	SubspaceRotationAdjust: set factor to 0.0877
ElecMinimize: Iter:   4  F: -889.618942819879294  |grad|_K:  8.022e-08  alpha:  8.112e-01  linmin: -7.033e-05  t[s]:   8506.57
	Linear fluid (dielectric constant: 78.4, screening length: 8.12261 Bohr) occupying 0.495385 of unit cell:	Completed after 6 iterations at t[s]:   8514.63
	Linear fluid (dielectric constant: 78.4, screening length: 8.12261 Bohr) occupying 0.495385 of unit cell:	Completed after 2 iterations at t[s]:   8521.04
	FillingsUpdate:  mu: -0.187241702  nElectrons: 160.000000  magneticMoment: [ Abs: 0.00000  Tot: +0.00000 ]
	SubspaceRotationAdjust: set factor to 0.0973
ElecMinimize: Iter:   5  F: -889.618943743083491  |grad|_K:  9.080e-08  alpha:  9.093e-01  linmin:  7.035e-06  t[s]:   8530.46
	Linear fluid (dielectric constant: 78.4, screening length: 8.12261 Bohr) occupying 0.495384 of unit cell:	Completed after 8 iterations at t[s]:   8538.62
	Linear fluid (dielectric constant: 78.4, screening length: 8.12261 Bohr) occupying 0.495384 of unit cell:	Completed after 2 iterations at t[s]:   8545.20
	FillingsUpdate:  mu: -0.187262141  nElectrons: 160.000000  magneticMoment: [ Abs: 0.00000  Tot: +0.00000 ]
	SubspaceRotationAdjust: set factor to 0.0984
ElecMinimize: Iter:   6  F: -889.618944755476832  |grad|_K:  9.028e-08  alpha:  7.793e-01  linmin:  6.139e-05  t[s]:   8554.52
	Linear fluid (dielectric constant: 78.4, screening length: 8.12261 Bohr) occupying 0.495385 of unit cell:	Completed after 9 iterations at t[s]:   8562.46
	Linear fluid (dielectric constant: 78.4, screening length: 8.12261 Bohr) occupying 0.495385 of unit cell:	Completed after 7 iterations at t[s]:   8569.10
	FillingsUpdate:  mu: -0.187240455  nElectrons: 160.000000  magneticMoment: [ Abs: 0.00000  Tot: +0.00000 ]
	SubspaceRotationAdjust: set factor to 0.0834
ElecMinimize: Iter:   7  F: -889.618945329173926  |grad|_K:  7.787e-08  alpha:  4.497e-01  linmin: -6.598e-06  t[s]:   8578.73
	Linear fluid (dielectric constant: 78.4, screening length: 8.12261 Bohr) occupying 0.495385 of unit cell:	Completed after 8 iterations at t[s]:   8586.65
	Linear fluid (dielectric constant: 78.4, screening length: 8.12261 Bohr) occupying 0.495385 of unit cell:	Completed after 0 iterations at t[s]:   8592.94
	FillingsUpdate:  mu: -0.187234708  nElectrons: 160.000000  magneticMoment: [ Abs: 0.00000  Tot: +0.00000 ]
	SubspaceRotationAdjust: set factor to 0.0634
ElecMinimize: Iter:   8  F: -889.618945735513762  |grad|_K:  5.741e-08  alpha:  4.250e-01  linmin:  3.437e-04  t[s]:   8602.31
	Linear fluid (dielectric constant: 78.4, screening length: 8.12261 Bohr) occupying 0.495385 of unit cell:	Completed after 6 iterations at t[s]:   8610.17
	Linear fluid (dielectric constant: 78.4, screening length: 8.12261 Bohr) occupying 0.495385 of unit cell:	Completed after 0 iterations at t[s]:   8616.42
	FillingsUpdate:  mu: -0.187247395  nElectrons: 160.000000  magneticMoment: [ Abs: 0.00000  Tot: +0.00000 ]
	SubspaceRotationAdjust: set factor to 0.0588
ElecMinimize: Iter:   9  F: -889.618945969076208  |grad|_K:  3.549e-08  alpha:  4.546e-01  linmin: -9.436e-04  t[s]:   8625.88
	Linear fluid (dielectric constant: 78.4, screening length: 8.12261 Bohr) occupying 0.495385 of unit cell:	Completed after 1 iterations at t[s]:   8633.55
	Linear fluid (dielectric constant: 78.4, screening length: 8.12261 Bohr) occupying 0.495385 of unit cell:	Completed after 0 iterations at t[s]:   8639.75
	FillingsUpdate:  mu: -0.187242117  nElectrons: 160.000000  magneticMoment: [ Abs: 0.00000  Tot: +0.00000 ]
	SubspaceRotationAdjust: set factor to 0.0624
ElecMinimize: Iter:  10  F: -889.618946076320185  |grad|_K:  2.624e-08  alpha:  5.280e-01  linmin: -2.701e-04  t[s]:   8649.30
	Linear fluid (dielectric constant: 78.4, screening length: 8.12261 Bohr) occupying 0.495385 of unit cell:	Completed after 2 iterations at t[s]:   8656.92
	Linear fluid (dielectric constant: 78.4, screening length: 8.12261 Bohr) occupying 0.495385 of unit cell:	Completed after 0 iterations at t[s]:   8663.08
	FillingsUpdate:  mu: -0.187234779  nElectrons: 160.000000  magneticMoment: [ Abs: 0.00000  Tot: +0.00000 ]
	SubspaceRotationAdjust: set factor to 0.0594
ElecMinimize: Iter:  11  F: -889.618946128519497  |grad|_K:  1.829e-08  alpha:  4.780e-01  linmin:  8.623e-04  t[s]:   8672.63
	Linear fluid (dielectric constant: 78.4, screening length: 8.12261 Bohr) occupying 0.495385 of unit cell:	Completed after 2 iterations at t[s]:   8680.24
	Linear fluid (dielectric constant: 78.4, screening length: 8.12261 Bohr) occupying 0.495385 of unit cell:	Completed after 0 iterations at t[s]:   8686.44
	FillingsUpdate:  mu: -0.187238170  nElectrons: 160.000000  magneticMoment: [ Abs: 0.00000  Tot: +0.00000 ]
	SubspaceRotationAdjust: set factor to 0.0608
ElecMinimize: Iter:  12  F: -889.618946151722412  |grad|_K:  1.213e-08  alpha:  4.461e-01  linmin: -2.684e-03  t[s]:   8695.88
ElecMinimize: Converged (|Delta F|<1.000000e-07 for 2 iters).
Setting wave functions to eigenvectors of Hamiltonian
Converging empty states (this may take a while): |deigs|: 1.498e-08

Computing DFT-D3 correction:
# coordination-number Pt 8.552 9.300 9.357 7.000 5.344 9.360 9.299 8.550 5.347 7.005
# diagonal-C6 Pt 336.87 336.87 336.87 336.87 336.87 336.87 336.87 336.87 336.87 336.87
EvdW_6 =   -0.074831
EvdW_8 =   -0.128387

# Ionic positions in cartesian coordinates:
ion Pt   3.704694900824830   1.822565158868002  12.573139079583463 1
ion Pt  -0.001056504503591   3.273667183854427   9.137349649932348 1
ion Pt   3.697035383370202   4.963296725167123   5.876879888203322 1
ion Pt  -0.005535652498485   6.538529795734735   2.275831091396418 1
ion Pt  -3.696792495924595   8.273417487839595  15.437118431617531 1
ion Pt   3.702192697405313   6.618993115163835  10.667420576050317 1
ion Pt   3.700709517507075   0.034769043462979   7.409083445789239 1
ion Pt  -0.004986975667472   1.486165162261063   3.972811878548271 1
ion Pt   3.696716104480154   3.307712161615800   1.109488576110545 1
ion Pt   0.005339025006568   5.043434166032442  14.265998382768538 1

# Forces in Cartesian coordinates:
force Pt  -0.000005588451647  -0.000041532723935   0.000031017177204 1
force Pt  -0.000001049625053   0.000080697696460  -0.000088416493122 1
force Pt  -0.000007664816786  -0.000082164087276   0.000224602632045 1
force Pt  -0.000000189722969  -0.000101985998155  -0.000001089581235 1
force Pt   0.000003124865105  -0.000048969129734   0.000012034751237 1
force Pt  -0.000002274535379  -0.000029097256780   0.000015870425870 1
force Pt   0.000011546096075   0.000006075686413   0.000028766304256 1
force Pt  -0.000015881065600   0.000057208104602   0.000022166475892 1
force Pt   0.000008247025634   0.000050759691953  -0.000039845879428 1
force Pt  -0.000000258300226   0.000106130799080   0.000087752667365 1

# Energy components:
   A_diel =       -0.0035715085705618
   Eewald =     4090.1893701245221564
       EH =     4897.7751489204683821
     Eloc =   -10031.9376955235493369
      Enl =      -10.5017647724595307
     EvdW =       -0.2032181679555163
      Exc =     -284.3827127843769631
 Exc_core =      163.9138250175314511
       KE =      285.5330195358651508
-------------------------------------
     Etot =     -889.6175991585253087
       TS =        0.0013469931971159
-------------------------------------
        F =     -889.6189461517224117


Dumping 'jdft.fillings' ... done
Dumping 'jdft.wfns' ... done
Dumping 'jdft.fluidState' ... done
Dumping 'jdft.ionpos' ... done
Dumping 'jdft.lattice' ... done
Dumping 'jdft.eigenvals' ... done
Dumping 'jdft.eigStats' ... 
	eMin: -2.136740 at state 30 ( [ +0.444444 +0.285714 +0.000000 ] spin 1 )
	HOMO: -0.187488 at state 108 ( [ -0.333333 +0.428571 +0.000000 ] spin -1 )
	mu  : -0.187238
	LUMO: -0.186995 at state 48 ( [ -0.333333 -0.142857 +0.000000 ] spin 1 )
	eMax: +0.105585 at state 40 ( [ -0.444444 -0.285714 +0.000000 ] spin 1 )
	HOMO-LUMO gap: +0.000493
	Optical gap  : +0.001568 at state 7 ( [ +0.111111 +0.000000 +0.000000 ] spin 1 )
Dumping 'jdft.Ecomponents' ... done
IonicMinimize: Iter:  12  F: -889.618946151722412  |grad|_K:  6.000e-05  alpha:  1.000e+00  linmin:  2.159e-01  t[s]:   8718.52
IonicMinimize: Converged (|grad|_K<1.000000e-04).

#--- Lowdin population analysis ---
# oxidation-state Pt -0.038 +0.009 -0.004 -0.022 +0.113 -0.004 +0.009 -0.039 +0.112 -0.022
# magnetic-moments Pt -0.000 +0.000 +0.000 +0.000 -0.000 +0.000 +0.000 +0.000 +0.000 +0.000


Dumping 'jdft.n_up' ... done
Dumping 'jdft.n_dn' ... done
Dumping 'jdft.tau_up' ... done
Dumping 'jdft.tau_dn' ... done
Dumping 'jdft.eigenvals' ... done
Dumping 'jdft.eigStats' ... 
	eMin: -2.136740 at state 30 ( [ +0.444444 +0.285714 +0.000000 ] spin 1 )
	HOMO: -0.187488 at state 108 ( [ -0.333333 +0.428571 +0.000000 ] spin -1 )
	mu  : -0.187238
	LUMO: -0.186995 at state 48 ( [ -0.333333 -0.142857 +0.000000 ] spin 1 )
	eMax: +0.105585 at state 40 ( [ -0.444444 -0.285714 +0.000000 ] spin 1 )
	HOMO-LUMO gap: +0.000493
	Optical gap  : +0.001568 at state 7 ( [ +0.111111 +0.000000 +0.000000 ] spin 1 )
Dumping 'jdft.kPts' ... done
Dumping 'jdft.dosUp' ... done.
Dumping 'jdft.dosDn' ... done.
End date and time: Mon Dec  6 18:56:47 2021  (Duration: 0-2:25:35.29)
Done!
