
*************** JDFTx 1.6.0  ***************

Start date and time: Mon Dec  6 16:59:01 2021
Executable /projects/musgravc/apps/jdftx-1.6.1/build/jdftx with command-line: -i in
Running on hosts (process indices):  shas0609.rc.int.colorado.edu (0-23)
Divided in process groups (process indices):  0 (0)  1 (1)  2 (2)  3 (3)  4 (4)  5 (5)  6 (6)  7 (7)  8 (8)  9 (9)  10 (10)  11 (11)  12 (12)  13 (13)  14 (14)  15 (15)  16 (16)  17 (17)  18 (18)  19 (19)  20 (20)  21 (21)  22 (22)  23 (23)
Resource initialization completed at t[s]:      0.01
Run totals: 24 processes, 24 threads, 0 GPUs


Input parsed successfully to the following command list (including defaults):

basis kpoint-dependent
converge-empty-states yes
coords-type Cartesian
core-overlap-check none
coulomb-interaction Periodic
davidson-band-ratio 1.1
density-of-states Etol 1.000000e-06 Esigma 1.000000e-03 \
		Complete \
	Total \
	OrthoOrbital Ag 1   s \
	OrthoOrbital Ag 1   p \
	OrthoOrbital Ag 1   px \
	OrthoOrbital Ag 1   py \
	OrthoOrbital Ag 1   pz \
	OrthoOrbital Ag 1   d \
	OrthoOrbital Ag 1   dxy \
	OrthoOrbital Ag 1   dyz \
	OrthoOrbital Ag 1   dz2 \
	OrthoOrbital Ag 1   dxz \
	OrthoOrbital Ag 1   dx2-y2 \
	OrthoOrbital Ag 2   s \
	OrthoOrbital Ag 2   p \
	OrthoOrbital Ag 2   px \
	OrthoOrbital Ag 2   py \
	OrthoOrbital Ag 2   pz \
	OrthoOrbital Ag 2   d \
	OrthoOrbital Ag 2   dxy \
	OrthoOrbital Ag 2   dyz \
	OrthoOrbital Ag 2   dz2 \
	OrthoOrbital Ag 2   dxz \
	OrthoOrbital Ag 2   dx2-y2 \
	OrthoOrbital Ag 3   s \
	OrthoOrbital Ag 3   p \
	OrthoOrbital Ag 3   px \
	OrthoOrbital Ag 3   py \
	OrthoOrbital Ag 3   pz \
	OrthoOrbital Ag 3   d \
	OrthoOrbital Ag 3   dxy \
	OrthoOrbital Ag 3   dyz \
	OrthoOrbital Ag 3   dz2 \
	OrthoOrbital Ag 3   dxz \
	OrthoOrbital Ag 3   dx2-y2 \
	OrthoOrbital Ag 4   s \
	OrthoOrbital Ag 4   p \
	OrthoOrbital Ag 4   px \
	OrthoOrbital Ag 4   py \
	OrthoOrbital Ag 4   pz \
	OrthoOrbital Ag 4   d \
	OrthoOrbital Ag 4   dxy \
	OrthoOrbital Ag 4   dyz \
	OrthoOrbital Ag 4   dz2 \
	OrthoOrbital Ag 4   dxz \
	OrthoOrbital Ag 4   dx2-y2 \
	OrthoOrbital Ag 5   s \
	OrthoOrbital Ag 5   p \
	OrthoOrbital Ag 5   px \
	OrthoOrbital Ag 5   py \
	OrthoOrbital Ag 5   pz \
	OrthoOrbital Ag 5   d \
	OrthoOrbital Ag 5   dxy \
	OrthoOrbital Ag 5   dyz \
	OrthoOrbital Ag 5   dz2 \
	OrthoOrbital Ag 5   dxz \
	OrthoOrbital Ag 5   dx2-y2 \
	OrthoOrbital Ag 6   s \
	OrthoOrbital Ag 6   p \
	OrthoOrbital Ag 6   px \
	OrthoOrbital Ag 6   py \
	OrthoOrbital Ag 6   pz \
	OrthoOrbital Ag 6   d \
	OrthoOrbital Ag 6   dxy \
	OrthoOrbital Ag 6   dyz \
	OrthoOrbital Ag 6   dz2 \
	OrthoOrbital Ag 6   dxz \
	OrthoOrbital Ag 6   dx2-y2 \
	OrthoOrbital Ag 7   s \
	OrthoOrbital Ag 7   p \
	OrthoOrbital Ag 7   px \
	OrthoOrbital Ag 7   py \
	OrthoOrbital Ag 7   pz \
	OrthoOrbital Ag 7   d \
	OrthoOrbital Ag 7   dxy \
	OrthoOrbital Ag 7   dyz \
	OrthoOrbital Ag 7   dz2 \
	OrthoOrbital Ag 7   dxz \
	OrthoOrbital Ag 7   dx2-y2 \
	OrthoOrbital Ag 8   s \
	OrthoOrbital Ag 8   p \
	OrthoOrbital Ag 8   px \
	OrthoOrbital Ag 8   py \
	OrthoOrbital Ag 8   pz \
	OrthoOrbital Ag 8   d \
	OrthoOrbital Ag 8   dxy \
	OrthoOrbital Ag 8   dyz \
	OrthoOrbital Ag 8   dz2 \
	OrthoOrbital Ag 8   dxz \
	OrthoOrbital Ag 8   dx2-y2 \
	OrthoOrbital Ag 9   s \
	OrthoOrbital Ag 9   p \
	OrthoOrbital Ag 9   px \
	OrthoOrbital Ag 9   py \
	OrthoOrbital Ag 9   pz \
	OrthoOrbital Ag 9   d \
	OrthoOrbital Ag 9   dxy \
	OrthoOrbital Ag 9   dyz \
	OrthoOrbital Ag 9   dz2 \
	OrthoOrbital Ag 9   dxz \
	OrthoOrbital Ag 9   dx2-y2 \
	OrthoOrbital Ag 10   s \
	OrthoOrbital Ag 10   p \
	OrthoOrbital Ag 10   px \
	OrthoOrbital Ag 10   py \
	OrthoOrbital Ag 10   pz \
	OrthoOrbital Ag 10   d \
	OrthoOrbital Ag 10   dxy \
	OrthoOrbital Ag 10   dyz \
	OrthoOrbital Ag 10   dz2 \
	OrthoOrbital Ag 10   dxz \
	OrthoOrbital Ag 10   dx2-y2 \
	OrthoOrbital Ag 11   s \
	OrthoOrbital Ag 11   p \
	OrthoOrbital Ag 11   px \
	OrthoOrbital Ag 11   py \
	OrthoOrbital Ag 11   pz \
	OrthoOrbital Ag 11   d \
	OrthoOrbital Ag 11   dxy \
	OrthoOrbital Ag 11   dyz \
	OrthoOrbital Ag 11   dz2 \
	OrthoOrbital Ag 11   dxz \
	OrthoOrbital Ag 11   dx2-y2 \
	OrthoOrbital Ag 12   s \
	OrthoOrbital Ag 12   p \
	OrthoOrbital Ag 12   px \
	OrthoOrbital Ag 12   py \
	OrthoOrbital Ag 12   pz \
	OrthoOrbital Ag 12   d \
	OrthoOrbital Ag 12   dxy \
	OrthoOrbital Ag 12   dyz \
	OrthoOrbital Ag 12   dz2 \
	OrthoOrbital Ag 12   dxz \
	OrthoOrbital Ag 12   dx2-y2 \
	OrthoOrbital Ag 13   s \
	OrthoOrbital Ag 13   p \
	OrthoOrbital Ag 13   px \
	OrthoOrbital Ag 13   py \
	OrthoOrbital Ag 13   pz \
	OrthoOrbital Ag 13   d \
	OrthoOrbital Ag 13   dxy \
	OrthoOrbital Ag 13   dyz \
	OrthoOrbital Ag 13   dz2 \
	OrthoOrbital Ag 13   dxz \
	OrthoOrbital Ag 13   dx2-y2 \
	OrthoOrbital Ag 14   s \
	OrthoOrbital Ag 14   p \
	OrthoOrbital Ag 14   px \
	OrthoOrbital Ag 14   py \
	OrthoOrbital Ag 14   pz \
	OrthoOrbital Ag 14   d \
	OrthoOrbital Ag 14   dxy \
	OrthoOrbital Ag 14   dyz \
	OrthoOrbital Ag 14   dz2 \
	OrthoOrbital Ag 14   dxz \
	OrthoOrbital Ag 14   dx2-y2 \
	OrthoOrbital Ag 15   s \
	OrthoOrbital Ag 15   p \
	OrthoOrbital Ag 15   px \
	OrthoOrbital Ag 15   py \
	OrthoOrbital Ag 15   pz \
	OrthoOrbital Ag 15   d \
	OrthoOrbital Ag 15   dxy \
	OrthoOrbital Ag 15   dyz \
	OrthoOrbital Ag 15   dz2 \
	OrthoOrbital Ag 15   dxz \
	OrthoOrbital Ag 15   dx2-y2 \
	OrthoOrbital Ag 16   s \
	OrthoOrbital Ag 16   p \
	OrthoOrbital Ag 16   px \
	OrthoOrbital Ag 16   py \
	OrthoOrbital Ag 16   pz \
	OrthoOrbital Ag 16   d \
	OrthoOrbital Ag 16   dxy \
	OrthoOrbital Ag 16   dyz \
	OrthoOrbital Ag 16   dz2 \
	OrthoOrbital Ag 16   dxz \
	OrthoOrbital Ag 16   dx2-y2 \
	OrthoOrbital Ag 17   s \
	OrthoOrbital Ag 17   p \
	OrthoOrbital Ag 17   px \
	OrthoOrbital Ag 17   py \
	OrthoOrbital Ag 17   pz \
	OrthoOrbital Ag 17   d \
	OrthoOrbital Ag 17   dxy \
	OrthoOrbital Ag 17   dyz \
	OrthoOrbital Ag 17   dz2 \
	OrthoOrbital Ag 17   dxz \
	OrthoOrbital Ag 17   dx2-y2 \
	OrthoOrbital Ag 18   s \
	OrthoOrbital Ag 18   p \
	OrthoOrbital Ag 18   px \
	OrthoOrbital Ag 18   py \
	OrthoOrbital Ag 18   pz \
	OrthoOrbital Ag 18   d \
	OrthoOrbital Ag 18   dxy \
	OrthoOrbital Ag 18   dyz \
	OrthoOrbital Ag 18   dz2 \
	OrthoOrbital Ag 18   dxz \
	OrthoOrbital Ag 18   dx2-y2 \
	OrthoOrbital Ag 19   s \
	OrthoOrbital Ag 19   p \
	OrthoOrbital Ag 19   px \
	OrthoOrbital Ag 19   py \
	OrthoOrbital Ag 19   pz \
	OrthoOrbital Ag 19   d \
	OrthoOrbital Ag 19   dxy \
	OrthoOrbital Ag 19   dyz \
	OrthoOrbital Ag 19   dz2 \
	OrthoOrbital Ag 19   dxz \
	OrthoOrbital Ag 19   dx2-y2 \
	OrthoOrbital Ag 20   s \
	OrthoOrbital Ag 20   p \
	OrthoOrbital Ag 20   px \
	OrthoOrbital Ag 20   py \
	OrthoOrbital Ag 20   pz \
	OrthoOrbital Ag 20   d \
	OrthoOrbital Ag 20   dxy \
	OrthoOrbital Ag 20   dyz \
	OrthoOrbital Ag 20   dz2 \
	OrthoOrbital Ag 20   dxz \
	OrthoOrbital Ag 20   dx2-y2 \
	OrthoOrbital Ag 21   s \
	OrthoOrbital Ag 21   p \
	OrthoOrbital Ag 21   px \
	OrthoOrbital Ag 21   py \
	OrthoOrbital Ag 21   pz \
	OrthoOrbital Ag 21   d \
	OrthoOrbital Ag 21   dxy \
	OrthoOrbital Ag 21   dyz \
	OrthoOrbital Ag 21   dz2 \
	OrthoOrbital Ag 21   dxz \
	OrthoOrbital Ag 21   dx2-y2 \
	OrthoOrbital Ag 22   s \
	OrthoOrbital Ag 22   p \
	OrthoOrbital Ag 22   px \
	OrthoOrbital Ag 22   py \
	OrthoOrbital Ag 22   pz \
	OrthoOrbital Ag 22   d \
	OrthoOrbital Ag 22   dxy \
	OrthoOrbital Ag 22   dyz \
	OrthoOrbital Ag 22   dz2 \
	OrthoOrbital Ag 22   dxz \
	OrthoOrbital Ag 22   dx2-y2 \
	OrthoOrbital Ag 23   s \
	OrthoOrbital Ag 23   p \
	OrthoOrbital Ag 23   px \
	OrthoOrbital Ag 23   py \
	OrthoOrbital Ag 23   pz \
	OrthoOrbital Ag 23   d \
	OrthoOrbital Ag 23   dxy \
	OrthoOrbital Ag 23   dyz \
	OrthoOrbital Ag 23   dz2 \
	OrthoOrbital Ag 23   dxz \
	OrthoOrbital Ag 23   dx2-y2 \
	OrthoOrbital Ag 24   s \
	OrthoOrbital Ag 24   p \
	OrthoOrbital Ag 24   px \
	OrthoOrbital Ag 24   py \
	OrthoOrbital Ag 24   pz \
	OrthoOrbital Ag 24   d \
	OrthoOrbital Ag 24   dxy \
	OrthoOrbital Ag 24   dyz \
	OrthoOrbital Ag 24   dz2 \
	OrthoOrbital Ag 24   dxz \
	OrthoOrbital Ag 24   dx2-y2 \
	OrthoOrbital Ag 25   s \
	OrthoOrbital Ag 25   p \
	OrthoOrbital Ag 25   px \
	OrthoOrbital Ag 25   py \
	OrthoOrbital Ag 25   pz \
	OrthoOrbital Ag 25   d \
	OrthoOrbital Ag 25   dxy \
	OrthoOrbital Ag 25   dyz \
	OrthoOrbital Ag 25   dz2 \
	OrthoOrbital Ag 25   dxz \
	OrthoOrbital Ag 25   dx2-y2 \
	OrthoOrbital Ag 26   s \
	OrthoOrbital Ag 26   p \
	OrthoOrbital Ag 26   px \
	OrthoOrbital Ag 26   py \
	OrthoOrbital Ag 26   pz \
	OrthoOrbital Ag 26   d \
	OrthoOrbital Ag 26   dxy \
	OrthoOrbital Ag 26   dyz \
	OrthoOrbital Ag 26   dz2 \
	OrthoOrbital Ag 26   dxz \
	OrthoOrbital Ag 26   dx2-y2 \
	OrthoOrbital Ag 27   s \
	OrthoOrbital Ag 27   p \
	OrthoOrbital Ag 27   px \
	OrthoOrbital Ag 27   py \
	OrthoOrbital Ag 27   pz \
	OrthoOrbital Ag 27   d \
	OrthoOrbital Ag 27   dxy \
	OrthoOrbital Ag 27   dyz \
	OrthoOrbital Ag 27   dz2 \
	OrthoOrbital Ag 27   dxz \
	OrthoOrbital Ag 27   dx2-y2 \
	OrthoOrbital Ag 28   s \
	OrthoOrbital Ag 28   p \
	OrthoOrbital Ag 28   px \
	OrthoOrbital Ag 28   py \
	OrthoOrbital Ag 28   pz \
	OrthoOrbital Ag 28   d \
	OrthoOrbital Ag 28   dxy \
	OrthoOrbital Ag 28   dyz \
	OrthoOrbital Ag 28   dz2 \
	OrthoOrbital Ag 28   dxz \
	OrthoOrbital Ag 28   dx2-y2 \
	OrthoOrbital Ag 29   s \
	OrthoOrbital Ag 29   p \
	OrthoOrbital Ag 29   px \
	OrthoOrbital Ag 29   py \
	OrthoOrbital Ag 29   pz \
	OrthoOrbital Ag 29   d \
	OrthoOrbital Ag 29   dxy \
	OrthoOrbital Ag 29   dyz \
	OrthoOrbital Ag 29   dz2 \
	OrthoOrbital Ag 29   dxz \
	OrthoOrbital Ag 29   dx2-y2 \
	OrthoOrbital Ag 30   s \
	OrthoOrbital Ag 30   p \
	OrthoOrbital Ag 30   px \
	OrthoOrbital Ag 30   py \
	OrthoOrbital Ag 30   pz \
	OrthoOrbital Ag 30   d \
	OrthoOrbital Ag 30   dxy \
	OrthoOrbital Ag 30   dyz \
	OrthoOrbital Ag 30   dz2 \
	OrthoOrbital Ag 30   dxz \
	OrthoOrbital Ag 30   dx2-y2 \
	OrthoOrbital Ag 31   s \
	OrthoOrbital Ag 31   p \
	OrthoOrbital Ag 31   px \
	OrthoOrbital Ag 31   py \
	OrthoOrbital Ag 31   pz \
	OrthoOrbital Ag 31   d \
	OrthoOrbital Ag 31   dxy \
	OrthoOrbital Ag 31   dyz \
	OrthoOrbital Ag 31   dz2 \
	OrthoOrbital Ag 31   dxz \
	OrthoOrbital Ag 31   dx2-y2 \
	OrthoOrbital Ag 32   s \
	OrthoOrbital Ag 32   p \
	OrthoOrbital Ag 32   px \
	OrthoOrbital Ag 32   py \
	OrthoOrbital Ag 32   pz \
	OrthoOrbital Ag 32   d \
	OrthoOrbital Ag 32   dxy \
	OrthoOrbital Ag 32   dyz \
	OrthoOrbital Ag 32   dz2 \
	OrthoOrbital Ag 32   dxz \
	OrthoOrbital Ag 32   dx2-y2 \
	OrthoOrbital Ag 33   s \
	OrthoOrbital Ag 33   p \
	OrthoOrbital Ag 33   px \
	OrthoOrbital Ag 33   py \
	OrthoOrbital Ag 33   pz \
	OrthoOrbital Ag 33   d \
	OrthoOrbital Ag 33   dxy \
	OrthoOrbital Ag 33   dyz \
	OrthoOrbital Ag 33   dz2 \
	OrthoOrbital Ag 33   dxz \
	OrthoOrbital Ag 33   dx2-y2 \
	OrthoOrbital Ag 34   s \
	OrthoOrbital Ag 34   p \
	OrthoOrbital Ag 34   px \
	OrthoOrbital Ag 34   py \
	OrthoOrbital Ag 34   pz \
	OrthoOrbital Ag 34   d \
	OrthoOrbital Ag 34   dxy \
	OrthoOrbital Ag 34   dyz \
	OrthoOrbital Ag 34   dz2 \
	OrthoOrbital Ag 34   dxz \
	OrthoOrbital Ag 34   dx2-y2
dump End ElecDensity KEdensity BandEigs EigStats RhoAtom DOS Kpoints
dump Ionic State IonicPositions Lattice EigStats Ecomponents
dump 
dump 
dump 
dump 
dump 
dump 
dump 
dump 
dump-name jdft.$VAR
elec-cutoff 20
elec-eigen-algo Davidson
elec-ex-corr gga-PBE
elec-initial-magnetization 0.000000 no
elec-n-bands 388
elec-smearing Fermi 0.001
electronic-minimize  \
	dirUpdateScheme      FletcherReeves \
	linminMethod         DirUpdateRecommended \
	nIterations          100 \
	history              15 \
	knormThreshold       0 \
	energyDiffThreshold  1e-07 \
	nEnergyDiff          2 \
	alphaTstart          1 \
	alphaTmin            1e-10 \
	updateTestStepSize   yes \
	alphaTreduceFactor   0.1 \
	alphaTincreaseFactor 3 \
	nAlphaAdjustMax      3 \
	wolfeEnergy          0.0001 \
	wolfeGradient        0.9 \
	fdTest               no
exchange-regularization WignerSeitzTruncated
fluid None
fluid-ex-corr lda-TF lda-PZ
fluid-gummel-loop 10 1.000000e-05
fluid-minimize  \
	dirUpdateScheme      PolakRibiere \
	linminMethod         DirUpdateRecommended \
	nIterations          100 \
	history              15 \
	knormThreshold       0 \
	energyDiffThreshold  0 \
	nEnergyDiff          2 \
	alphaTstart          1 \
	alphaTmin            1e-10 \
	updateTestStepSize   yes \
	alphaTreduceFactor   0.1 \
	alphaTincreaseFactor 3 \
	nAlphaAdjustMax      3 \
	wolfeEnergy          0.0001 \
	wolfeGradient        0.9 \
	fdTest               no
fluid-solvent H2O 55.338 ScalarEOS \
	epsBulk 78.4 \
	pMol 0.92466 \
	epsInf 1.77 \
	Pvap 1.06736e-10 \
	sigmaBulk 4.62e-05 \
	Rvdw 2.61727 \
	Res 1.42 \
	tauNuc 343133 \
	poleEl 15 7 1
forces-output-coords Positions
ion Ag   0.000000000000000  13.146506000000000   1.394409000000000 1
ion Ag   0.000000000000000  17.090468999999999   5.112771000000000 1
ion Ag   0.000000000000000   0.000000000000000  31.141556999999999 1
ion Ag   0.000000000000000   3.943963000000000   3.253622000000000 1
ion Ag   0.000000000000000   7.887903000000000   6.971984000000000 1
ion Ag   0.000000000000000  11.831866000000002  10.690409000000001 1
ion Ag   0.000000000000000  19.719770000000000  18.127196000000001 1
ion Ag   0.000000000000000  21.034409000000000   8.831196000000000 1
ion Ag   0.000000000000000   2.629301000000000  12.549557999999999 1
ion Ag   0.000000000000000   6.573264000000000  16.267983000000001 1
ion Ag   0.000000000000000  10.517205000000001  19.986345000000000 1
ion Ag   0.000000000000000  14.461167000000001  23.704770000000000 1
ion Ag   0.000000000000000  15.775807000000000  14.408771000000000 1
ion Ag   0.000000000000000   1.314662000000000  21.845558000000000 1
ion Ag   0.000000000000000   5.258602000000000  25.563983000000000 1
ion Ag   0.000000000000000   9.202565000000000  29.282343999999998 1
ion Ag   0.000000000000000  18.405107999999998  27.423194999999996 1
ion Ag   2.710223000000000  12.489197000000003   6.042378000000000 1
ion Ag   2.710223000000000  16.433138000000000   9.760802999999999 1
ion Ag   2.710223000000000  21.691739999999999   4.183165000000000 1
ion Ag   2.710223000000000   3.286632000000000   7.901590000000000 1
ion Ag   2.710223000000000   7.230573000000001  11.620015000000000 1
ion Ag   2.710223000000000  11.174535000000001  15.338376999999999 1
ion Ag   2.710223000000000  19.062439000000001  22.775163999999997 1
ion Ag   2.710223000000000  20.377101000000000  13.479164000000001 1
ion Ag   2.710223000000000   1.971970000000000  17.197589000000001 1
ion Ag   2.710223000000000   5.915933000000001  20.915951000000000 1
ion Ag   2.710223000000000   9.859874000000000  24.634376000000000 1
ion Ag   2.710223000000000  13.803837000000000  28.352737999999995 1
ion Ag   2.710223000000000  15.118498000000002  19.056802000000001 1
ion Ag   2.710223000000000   0.657331000000000  26.493589000000000 1
ion Ag   2.710223000000000   4.601271000000000  30.211950999999999 1
ion Ag   2.710223000000000   8.545234000000001   2.324016000000000 1
ion Ag   2.710223000000000  17.747799000000001   0.464803000000000 1
ion-species /projects/musgravc/apps/jdftx-1.6.0/build/pseudopotentials/GBRV_v1.5/$ID_pbe_v1.uspp
ion-species /projects/musgravc/apps/jdftx-1.6.0/build/pseudopotentials/GBRV_v1.5/$ID_pbe_v1.2.uspp
ion-species /projects/musgravc/apps/jdftx-1.6.0/build/pseudopotentials/GBRV_v1.5/$ID_pbe_v1.4.uspp
ion-species /projects/musgravc/apps/jdftx-1.6.0/build/pseudopotentials/GBRV_v1.5/$ID_pbe_v1.5.uspp
ion-width 0
ionic-minimize  \
	dirUpdateScheme      L-BFGS \
	linminMethod         DirUpdateRecommended \
	nIterations          100 \
	history              15 \
	knormThreshold       0.0001 \
	energyDiffThreshold  1e-06 \
	nEnergyDiff          2 \
	alphaTstart          1 \
	alphaTmin            1e-10 \
	updateTestStepSize   yes \
	alphaTreduceFactor   0.1 \
	alphaTincreaseFactor 3 \
	nAlphaAdjustMax      3 \
	wolfeEnergy          0.0001 \
	wolfeGradient        0.9 \
	fdTest               no
kpoint   0.000000000000   0.000000000000   0.000000000000  1.00000000000000
kpoint-folding 11 2 1 
latt-move-scale 0 0 0
latt-scale 1 1 1 
lattice  \
	   5.420447000000000   -0.000000000000000    0.000000000000000  \
	   0.000000000000000   22.349070999999999    0.000000000000000  \
	   0.000000000000000    0.000000000000000   63.212719999999997 
lattice-minimize  \
	dirUpdateScheme      L-BFGS \
	linminMethod         DirUpdateRecommended \
	nIterations          0 \
	history              15 \
	knormThreshold       0 \
	energyDiffThreshold  1e-06 \
	nEnergyDiff          2 \
	alphaTstart          1 \
	alphaTmin            1e-10 \
	updateTestStepSize   yes \
	alphaTreduceFactor   0.1 \
	alphaTincreaseFactor 3 \
	nAlphaAdjustMax      3 \
	wolfeEnergy          0.0001 \
	wolfeGradient        0.9 \
	fdTest               no
lcao-params 30 1e-06 0.001
pcm-variant GLSSA13
spintype z-spin
subspace-rotation-factor 1 yes
symmetries none
symmetry-threshold 0.0001
van-der-waals D3


Applied RMS atom displacement 0 bohrs to make symmetries exact.

---------- Initializing the Grid ----------
R = 
[      5.42045            0            0  ]
[            0      22.3491            0  ]
[            0            0      63.2127  ]
unit cell volume = 7657.71
G =
[    1.15916          0         -0  ]
[          0   0.281139          0  ]
[          0         -0  0.0993975  ]
Minimum fftbox size, Smin = [  24  92  256  ]
Chosen fftbox size, S = [  24  96  256  ]

---------- Exchange Correlation functional ----------
Initalized PBE GGA exchange.
Initalized PBE GGA correlation.

---------- Setting up pseudopotentials ----------
Width of ionic core gaussian charges (only for fluid interactions / plotting) set to 0

Reading pseudopotential file '/projects/musgravc/apps/jdftx-1.6.0/build/pseudopotentials/GBRV_v1.5/ag_pbe_v1.4.uspp':
  Title: Ag.  Created by USPP 7.3.6 on 1-4-15
  Reference state energy: -147.606242.  19 valence electrons in orbitals:
    |400>  occupation: 2  eigenvalue: -3.637437
    |410>  occupation: 6  eigenvalue: -2.297267
    |420>  occupation: 10  eigenvalue: -0.417763
    |500>  occupation: 0.5  eigenvalue: -0.283525
    |510>  occupation: 0  eigenvalue: -0.122889
  lMax: 2  lLocal: 0  QijEcut: 5.5
  6 projectors sampled on a log grid with 717 points:
    l: 0  eig: -0.283528  rCut: 1.5
    l: 0  eig: -3.637440  rCut: 1.5
    l: 1  eig: -0.122892  rCut: 1.5
    l: 1  eig: -2.297267  rCut: 1.5
    l: 2  eig: -0.417762  rCut: 1.7
    l: 2  eig: -1.000000  rCut: 1.7
  Partial core density with radius 1.2
  Transforming core density to a uniform radial grid of dG=0.02 with 1165 points.
  Transforming local potential to a uniform radial grid of dG=0.02 with 1165 points.
  Transforming nonlocal projectors to a uniform radial grid of dG=0.02 with 432 points.
  Transforming density augmentations to a uniform radial grid of dG=0.02 with 1165 points.
  Transforming atomic orbitals to a uniform radial grid of dG=0.02 with 432 points.
  Core radius for overlap checks: 1.70 bohrs.

Initialized 1 species with 34 total atoms.

Folded 1 k-points by 11x2x1 to 22 k-points.

---------- Setting up k-points, bands, fillings ----------
No reducable k-points. 
Computing the number of bands and number of electrons
Calculating initial fillings.
nElectrons: 646.000000   nBands: 388   nStates: 44

----- Setting up reduced wavefunction bases (one per k-point) -----
average nbasis = 32705.227 , ideal nbasis = 32714.331

----- Initializing Supercell corresponding to k-point mesh -----
Lattice vector linear combinations in supercell:
[  11   0   0  ]
[   0   2   0  ]
[   0   0   1  ]
Supercell lattice vectors:
[  59.6249  0  0  ]
[  0  44.6981  0  ]
[  0  0  63.2127  ]

Initializing DFT-D3 calculator:
	Parameters set for gga-PBE functional
	s6:  1.000  s_r6:  1.217
	s8:  0.722  s_r8:  1.000
	Per-atom parameters loaded for:
	Ag:  sqrtQ[a0]:  5.443  Rcov[a0]:  2.173  CN: [ 0.00 0.97 ]

---------- Setting up ewald sum ----------
Optimum gaussian width for ewald sums = 4.368811 bohr.
Real space sum over 665 unit cells with max indices [  9  3  2  ]
Reciprocal space sum over 6251 terms with max indices [  3  9  23  ]

Computing DFT-D3 correction:
# coordination-number Ag 6.868 9.175 5.360 6.877 9.201 9.211 9.212 9.207 9.212 9.212 9.211 9.202 9.212 9.210 9.200 6.871 7.668 9.200 9.211 7.668 9.202 9.211 9.212 9.207 9.212 9.212 9.211 9.201 6.877 9.212 9.175 6.868 6.871 5.360
# diagonal-C6 Ag 268.61 268.61 268.61 268.61 268.61 268.61 268.61 268.61 268.61 268.61 268.61 268.61 268.61 268.61 268.61 268.61 268.61 268.61 268.61 268.61 268.61 268.61 268.61 268.61 268.61 268.61 268.61 268.61 268.61 268.61 268.61 268.61 268.61 268.61
EvdW_6 =   -0.230517
EvdW_8 =   -0.305750

---------- Allocating electronic variables ----------
Initializing wave functions:  linear combination of atomic orbitals
Ag pseudo-atom occupations:   s ( 2 1 )  p ( 6 0 )  d ( 10 )
	FillingsUpdate:  mu: +0.128307364  nElectrons: 646.000000  magneticMoment: [ Abs: 0.00231  Tot: +0.00002 ]
LCAOMinimize: Iter:   0  F: -5018.1655984999924840  |grad|_K:  8.971e-04  alpha:  1.000e+00
	FillingsUpdate:  mu: +0.214857337  nElectrons: 646.000000  magneticMoment: [ Abs: 0.00220  Tot: +0.00004 ]
LCAOMinimize: Iter:   1  F: -5018.3292377752486573  |grad|_K:  4.214e-04  alpha:  4.074e-02  linmin: -5.922e-02  cgtest:  3.579e-01  t[s]:    199.11
LCAOMinimize: 	Predicted alpha/alphaT>3.000000, increasing alphaT to 1.222261e-01.
	FillingsUpdate:  mu: +0.228093859  nElectrons: 646.000000  magneticMoment: [ Abs: 0.00172  Tot: +0.00013 ]
LCAOMinimize: Iter:   2  F: -5018.5677350318692334  |grad|_K:  3.448e-04  alpha:  2.820e-01  linmin: -1.933e-02  cgtest:  8.478e-02  t[s]:    293.68
	FillingsUpdate:  mu: +0.288241086  nElectrons: 646.000000  magneticMoment: [ Abs: 0.00157  Tot: +0.00012 ]
LCAOMinimize: Iter:   3  F: -5018.6153443508119381  |grad|_K:  3.203e-04  alpha:  1.049e-01  linmin:  1.434e-02  cgtest: -3.659e-01  t[s]:    368.87
	FillingsUpdate:  mu: +0.266916464  nElectrons: 646.000000  magneticMoment: [ Abs: 0.00146  Tot: +0.00012 ]
LCAOMinimize: Iter:   4  F: -5018.6473207971275770  |grad|_K:  1.838e-04  alpha:  9.066e-02  linmin: -6.945e-04  cgtest:  8.061e-01  t[s]:    443.67
LCAOMinimize: Encountered beta<0, resetting CG.
	FillingsUpdate:  mu: +0.246489217  nElectrons: 646.000000  magneticMoment: [ Abs: 0.00147  Tot: +0.00012 ]
LCAOMinimize: Iter:   5  F: -5018.6542451442765014  |grad|_K:  5.544e-05  alpha:  4.613e-02  linmin: -5.225e-03  cgtest:  4.048e-02  t[s]:    519.14
	FillingsUpdate:  mu: +0.246257634  nElectrons: 646.000000  magneticMoment: [ Abs: 0.00147  Tot: +0.00012 ]
LCAOMinimize: Iter:   6  F: -5018.6550083153942978  |grad|_K:  6.054e-05  alpha:  5.680e-02  linmin: -2.086e-04  cgtest: -6.777e-03  t[s]:    593.99
	FillingsUpdate:  mu: +0.248161856  nElectrons: 646.000000  magneticMoment: [ Abs: 0.00147  Tot: +0.00012 ]
LCAOMinimize: Iter:   7  F: -5018.6560882170060722  |grad|_K:  1.812e-05  alpha:  6.806e-02  linmin: -3.048e-04  cgtest:  5.135e-02  t[s]:    668.91
LCAOMinimize: 	Predicted alpha/alphaT>3.000000, increasing alphaT to 2.041819e-01.
	FillingsUpdate:  mu: +0.246157349  nElectrons: 646.000000  magneticMoment: [ Abs: 0.00147  Tot: +0.00012 ]
LCAOMinimize: Iter:   8  F: -5018.6563941088434149  |grad|_K:  9.694e-06  alpha:  2.157e-01  linmin:  9.388e-04  cgtest: -1.069e-02  t[s]:    762.70
	FillingsUpdate:  mu: +0.245399317  nElectrons: 646.000000  magneticMoment: [ Abs: 0.00147  Tot: +0.00012 ]
LCAOMinimize: Iter:   9  F: -5018.6564117843308850  |grad|_K:  7.165e-06  alpha:  4.344e-02  linmin: -9.043e-04  cgtest:  1.786e-02  t[s]:    837.76
	FillingsUpdate:  mu: +0.244884112  nElectrons: 646.000000  magneticMoment: [ Abs: 0.00147  Tot: +0.00012 ]
LCAOMinimize: Iter:  10  F: -5018.6564240756415529  |grad|_K:  5.515e-06  alpha:  5.515e-02  linmin:  9.770e-05  cgtest: -1.641e-02  t[s]:    913.04
	FillingsUpdate:  mu: +0.245333596  nElectrons: 646.000000  magneticMoment: [ Abs: 0.00147  Tot: +0.00012 ]
LCAOMinimize: Iter:  11  F: -5018.6564361111659309  |grad|_K:  2.504e-06  alpha:  9.172e-02  linmin:  5.484e-06  cgtest:  1.723e-02  t[s]:    988.14
	FillingsUpdate:  mu: +0.245457412  nElectrons: 646.000000  magneticMoment: [ Abs: 0.00148  Tot: +0.00012 ]
LCAOMinimize: Iter:  12  F: -5018.6564404748796733  |grad|_K:  1.753e-06  alpha:  1.612e-01  linmin: -7.919e-05  cgtest:  4.843e-05  t[s]:   1062.87
	FillingsUpdate:  mu: +0.245402164  nElectrons: 646.000000  magneticMoment: [ Abs: 0.00148  Tot: +0.00012 ]
LCAOMinimize: Iter:  13  F: -5018.6564409607153721  |grad|_K:  1.308e-06  alpha:  3.659e-02  linmin: -2.652e-05  cgtest: -7.312e-04  t[s]:   1137.89
LCAOMinimize: 	Predicted alpha/alphaT>3.000000, increasing alphaT to 1.097629e-01.
	FillingsUpdate:  mu: +0.245220881  nElectrons: 646.000000  magneticMoment: [ Abs: 0.00148  Tot: +0.00012 ]
LCAOMinimize: Iter:  14  F: -5018.6564418857769851  |grad|_K:  1.465e-06  alpha:  1.252e-01  linmin: -1.830e-05  cgtest:  8.771e-04  t[s]:   1232.14
LCAOMinimize: Converged (|Delta F|<1.000000e-06 for 2 iters).


---- Citations for features of the code used in this run ----

   Software package:
      R. Sundararaman, K. Letchworth-Weaver, K.A. Schwarz, D. Gunceler, Y. Ozhabes and T.A. Arias, 'JDFTx: software for joint density-functional theory', SoftwareX 6, 278 (2017)

   gga-PBE exchange-correlation functional:
      J.P. Perdew, K. Burke and M. Ernzerhof, Phys. Rev. Lett. 77, 3865 (1996)

   Pseudopotentials:
      KF Garrity, JW Bennett, KM Rabe and D Vanderbilt, Comput. Mater. Sci. 81, 446 (2014)

   DFT-D3 dispersion correction:
      S. Grimme, J. Antony, S. Ehrlich and H. Krieg, J. Chem. Phys. 132, 154104 (2010)

   Total energy minimization with Auxiliary Hamiltonian:
      C. Freysoldt, S. Boeck, and J. Neugebauer, Phys. Rev. B 79, 241103(R) (2009)

   Linear-tetrahedron sampling for density of states:
      G. Lehmann and M. Taut, Phys. status solidi (b) 54, 469 (1972)

This list may not be complete. Please suggest additional citations or
report any other bugs at https://github.com/shankar1729/jdftx/issues

Initialization completed successfully at t[s]:   1252.43


Computing DFT-D3 correction:
# coordination-number Ag 6.868 9.175 5.360 6.877 9.201 9.211 9.212 9.207 9.212 9.212 9.211 9.202 9.212 9.210 9.200 6.871 7.668 9.200 9.211 7.668 9.202 9.211 9.212 9.207 9.212 9.212 9.211 9.201 6.877 9.212 9.175 6.868 6.871 5.360
# diagonal-C6 Ag 268.61 268.61 268.61 268.61 268.61 268.61 268.61 268.61 268.61 268.61 268.61 268.61 268.61 268.61 268.61 268.61 268.61 268.61 268.61 268.61 268.61 268.61 268.61 268.61 268.61 268.61 268.61 268.61 268.61 268.61 268.61 268.61 268.61 268.61
EvdW_6 =   -0.230517
EvdW_8 =   -0.305750

-------- Electronic minimization -----------
	FillingsUpdate:  mu: +0.245220883  nElectrons: 646.000000  magneticMoment: [ Abs: 0.00148  Tot: +0.00012 ]
ElecMinimize: Iter:   0  F: -5018.656441885791537  |grad|_K:  2.450e-05  alpha:  1.000e+00
	FillingsUpdate:  mu: +0.253815600  nElectrons: 646.000000  magneticMoment: [ Abs: 0.00115  Tot: +0.00013 ]
	SubspaceRotationAdjust: set factor to 0.999
ElecMinimize: Iter:   1  F: -5018.800713696723506  |grad|_K:  1.685e-05  alpha:  4.291e-01  linmin:  1.865e-05  t[s]:   1464.88
	FillingsUpdate:  mu: +0.230178302  nElectrons: 646.000000  magneticMoment: [ Abs: 0.00091  Tot: +0.00014 ]
	SubspaceRotationAdjust: set factor to 0.668
ElecMinimize: Iter:   2  F: -5018.841146862720052  |grad|_K:  1.473e-05  alpha:  2.529e-01  linmin: -1.878e-05  t[s]:   1600.41
	FillingsUpdate:  mu: +0.245928674  nElectrons: 646.000000  magneticMoment: [ Abs: 0.00086  Tot: +0.00013 ]
	SubspaceRotationAdjust: set factor to 0.416
ElecMinimize: Iter:   3  F: -5018.846485391944043  |grad|_K:  9.743e-06  alpha:  4.506e-02  linmin:  1.549e-04  t[s]:   1736.82
	FillingsUpdate:  mu: +0.257307539  nElectrons: 646.000000  magneticMoment: [ Abs: 0.00077  Tot: +0.00012 ]
	SubspaceRotationAdjust: set factor to 0.31
ElecMinimize: Iter:   4  F: -5018.850890427703234  |grad|_K:  7.984e-06  alpha:  8.466e-02  linmin: -2.565e-05  t[s]:   1873.07
	FillingsUpdate:  mu: +0.255591851  nElectrons: 646.000000  magneticMoment: [ Abs: 0.00059  Tot: +0.00012 ]
	SubspaceRotationAdjust: set factor to 0.227
ElecMinimize: Iter:   5  F: -5018.857962744182259  |grad|_K:  6.267e-06  alpha:  1.969e-01  linmin:  1.511e-05  t[s]:   2009.67
	FillingsUpdate:  mu: +0.249789319  nElectrons: 646.000000  magneticMoment: [ Abs: 0.00052  Tot: +0.00012 ]
	SubspaceRotationAdjust: set factor to 0.175
ElecMinimize: Iter:   6  F: -5018.859950088703044  |grad|_K:  3.760e-06  alpha:  8.981e-02  linmin: -2.150e-05  t[s]:   2146.04
	FillingsUpdate:  mu: +0.244594833  nElectrons: 646.000000  magneticMoment: [ Abs: 0.00044  Tot: +0.00011 ]
	SubspaceRotationAdjust: set factor to 0.147
ElecMinimize: Iter:   7  F: -5018.861682911929165  |grad|_K:  3.431e-06  alpha:  2.178e-01  linmin:  1.499e-05  t[s]:   2282.75
	FillingsUpdate:  mu: +0.245277463  nElectrons: 646.000000  magneticMoment: [ Abs: 0.00038  Tot: +0.00011 ]
	SubspaceRotationAdjust: set factor to 0.182
ElecMinimize: Iter:   8  F: -5018.862740746391864  |grad|_K:  2.471e-06  alpha:  1.601e-01  linmin:  1.243e-06  t[s]:   2418.77
	FillingsUpdate:  mu: +0.249580977  nElectrons: 646.000000  magneticMoment: [ Abs: 0.00035  Tot: +0.00010 ]
	SubspaceRotationAdjust: set factor to 0.19
ElecMinimize: Iter:   9  F: -5018.863462449072358  |grad|_K:  2.118e-06  alpha:  2.104e-01  linmin: -7.140e-06  t[s]:   2555.17
	FillingsUpdate:  mu: +0.251156531  nElectrons: 646.000000  magneticMoment: [ Abs: 0.00035  Tot: +0.00010 ]
	SubspaceRotationAdjust: set factor to 0.193
ElecMinimize: Iter:  10  F: -5018.863829715693100  |grad|_K:  1.516e-06  alpha:  1.457e-01  linmin: -6.865e-07  t[s]:   2691.40
	FillingsUpdate:  mu: +0.250075078  nElectrons: 646.000000  magneticMoment: [ Abs: 0.00036  Tot: +0.00009 ]
	SubspaceRotationAdjust: set factor to 0.17
ElecMinimize: Iter:  11  F: -5018.864121074633658  |grad|_K:  1.495e-06  alpha:  2.259e-01  linmin:  1.543e-05  t[s]:   2827.54
	FillingsUpdate:  mu: +0.248903969  nElectrons: 646.000000  magneticMoment: [ Abs: 0.00036  Tot: +0.00009 ]
	SubspaceRotationAdjust: set factor to 0.187
ElecMinimize: Iter:  12  F: -5018.864301723654535  |grad|_K:  1.029e-06  alpha:  1.439e-01  linmin: -1.113e-06  t[s]:   2965.08
	FillingsUpdate:  mu: +0.249282578  nElectrons: 646.000000  magneticMoment: [ Abs: 0.00037  Tot: +0.00008 ]
	SubspaceRotationAdjust: set factor to 0.147
ElecMinimize: Iter:  13  F: -5018.864446853749541  |grad|_K:  1.184e-06  alpha:  2.442e-01  linmin:  1.088e-05  t[s]:   3101.89
	FillingsUpdate:  mu: +0.250258863  nElectrons: 646.000000  magneticMoment: [ Abs: 0.00038  Tot: +0.00007 ]
	SubspaceRotationAdjust: set factor to 0.2
ElecMinimize: Iter:  14  F: -5018.864576382707128  |grad|_K:  8.120e-07  alpha:  1.648e-01  linmin:  4.096e-07  t[s]:   3238.73
	FillingsUpdate:  mu: +0.250782450  nElectrons: 646.000000  magneticMoment: [ Abs: 0.00037  Tot: +0.00007 ]
	SubspaceRotationAdjust: set factor to 0.193
ElecMinimize: Iter:  15  F: -5018.864651928169224  |grad|_K:  8.394e-07  alpha:  2.040e-01  linmin:  2.261e-06  t[s]:   3375.60
	FillingsUpdate:  mu: +0.250651573  nElectrons: 646.000000  magneticMoment: [ Abs: 0.00036  Tot: +0.00006 ]
	SubspaceRotationAdjust: set factor to 0.247
ElecMinimize: Iter:  16  F: -5018.864730139552194  |grad|_K:  6.784e-07  alpha:  1.977e-01  linmin:  3.652e-06  t[s]:   3512.35
	FillingsUpdate:  mu: +0.250218804  nElectrons: 646.000000  magneticMoment: [ Abs: 0.00034  Tot: +0.00005 ]
	SubspaceRotationAdjust: set factor to 0.233
ElecMinimize: Iter:  17  F: -5018.864782286174886  |grad|_K:  6.893e-07  alpha:  2.020e-01  linmin:  4.871e-06  t[s]:   3648.83
	FillingsUpdate:  mu: +0.250084897  nElectrons: 646.000000  magneticMoment: [ Abs: 0.00032  Tot: +0.00005 ]
	SubspaceRotationAdjust: set factor to 0.257
ElecMinimize: Iter:  18  F: -5018.864822908678434  |grad|_K:  5.027e-07  alpha:  1.524e-01  linmin:  1.050e-06  t[s]:   3784.75
	FillingsUpdate:  mu: +0.250650367  nElectrons: 646.000000  magneticMoment: [ Abs: 0.00028  Tot: +0.00004 ]
	SubspaceRotationAdjust: set factor to 0.251
ElecMinimize: Iter:  19  F: -5018.864857930754624  |grad|_K:  5.491e-07  alpha:  2.469e-01  linmin:  8.735e-07  t[s]:   3921.24
	FillingsUpdate:  mu: +0.250918234  nElectrons: 646.000000  magneticMoment: [ Abs: 0.00024  Tot: +0.00003 ]
	SubspaceRotationAdjust: set factor to 0.229
ElecMinimize: Iter:  20  F: -5018.864879020059561  |grad|_K:  3.520e-07  alpha:  1.245e-01  linmin: -8.346e-07  t[s]:   4057.36
	FillingsUpdate:  mu: +0.250706113  nElectrons: 646.000000  magneticMoment: [ Abs: 0.00021  Tot: +0.00003 ]
	SubspaceRotationAdjust: set factor to 0.257
ElecMinimize: Iter:  21  F: -5018.864894283447939  |grad|_K:  3.325e-07  alpha:  2.194e-01  linmin:  2.996e-06  t[s]:   4193.37
	FillingsUpdate:  mu: +0.250570294  nElectrons: 646.000000  magneticMoment: [ Abs: 0.00017  Tot: +0.00003 ]
	SubspaceRotationAdjust: set factor to 0.214
ElecMinimize: Iter:  22  F: -5018.864903512261662  |grad|_K:  2.598e-07  alpha:  1.488e-01  linmin: -1.266e-08  t[s]:   4329.98
	FillingsUpdate:  mu: +0.250671560  nElectrons: 646.000000  magneticMoment: [ Abs: 0.00014  Tot: +0.00002 ]
	SubspaceRotationAdjust: set factor to 0.287
ElecMinimize: Iter:  23  F: -5018.864910795468859  |grad|_K:  1.802e-07  alpha:  1.921e-01  linmin:  6.412e-07  t[s]:   4467.46
	FillingsUpdate:  mu: +0.250767576  nElectrons: 646.000000  magneticMoment: [ Abs: 0.00012  Tot: +0.00002 ]
	SubspaceRotationAdjust: set factor to 0.234
ElecMinimize: Iter:  24  F: -5018.864913849176446  |grad|_K:  1.669e-07  alpha:  1.675e-01  linmin: -3.307e-08  t[s]:   4604.46
	FillingsUpdate:  mu: +0.250788499  nElectrons: 646.000000  magneticMoment: [ Abs: 0.00009  Tot: +0.00002 ]
	SubspaceRotationAdjust: set factor to 0.274
ElecMinimize: Iter:  25  F: -5018.864917118099584  |grad|_K:  1.116e-07  alpha:  2.088e-01  linmin:  7.331e-08  t[s]:   4741.36
	FillingsUpdate:  mu: +0.250696117  nElectrons: 646.000000  magneticMoment: [ Abs: 0.00007  Tot: +0.00002 ]
	SubspaceRotationAdjust: set factor to 0.286
ElecMinimize: Iter:  26  F: -5018.864918793083234  |grad|_K:  9.988e-08  alpha:  2.393e-01  linmin: -9.208e-08  t[s]:   4877.81
	FillingsUpdate:  mu: +0.250682065  nElectrons: 646.000000  magneticMoment: [ Abs: 0.00005  Tot: +0.00001 ]
	SubspaceRotationAdjust: set factor to 0.261
ElecMinimize: Iter:  27  F: -5018.864919839184040  |grad|_K:  9.490e-08  alpha:  1.866e-01  linmin: -2.186e-07  t[s]:   5014.30
	FillingsUpdate:  mu: +0.250727182  nElectrons: 646.000000  magneticMoment: [ Abs: 0.00004  Tot: +0.00001 ]
	SubspaceRotationAdjust: set factor to 0.278
ElecMinimize: Iter:  28  F: -5018.864920765476199  |grad|_K:  6.585e-08  alpha:  1.830e-01  linmin: -1.705e-07  t[s]:   5150.38
	FillingsUpdate:  mu: +0.250725517  nElectrons: 646.000000  magneticMoment: [ Abs: 0.00003  Tot: +0.00001 ]
	SubspaceRotationAdjust: set factor to 0.335
ElecMinimize: Iter:  29  F: -5018.864921488395339  |grad|_K:  6.168e-08  alpha:  2.966e-01  linmin: -3.247e-07  t[s]:   5286.97
	FillingsUpdate:  mu: +0.250684362  nElectrons: 646.000000  magneticMoment: [ Abs: 0.00003  Tot: +0.00001 ]
	SubspaceRotationAdjust: set factor to 0.29
ElecMinimize: Iter:  30  F: -5018.864921866075747  |grad|_K:  5.754e-08  alpha:  1.766e-01  linmin: -1.125e-07  t[s]:   5423.44
	FillingsUpdate:  mu: +0.250659979  nElectrons: 646.000000  magneticMoment: [ Abs: 0.00003  Tot: +0.00001 ]
	SubspaceRotationAdjust: set factor to 0.261
ElecMinimize: Iter:  31  F: -5018.864922170228056  |grad|_K:  4.519e-08  alpha:  1.634e-01  linmin:  7.653e-07  t[s]:   5560.12
	FillingsUpdate:  mu: +0.250692208  nElectrons: 646.000000  magneticMoment: [ Abs: 0.00003  Tot: +0.00001 ]
	SubspaceRotationAdjust: set factor to 0.294
ElecMinimize: Iter:  32  F: -5018.864922459407353  |grad|_K:  3.482e-08  alpha:  2.529e-01  linmin:  1.786e-07  t[s]:   5697.85
	FillingsUpdate:  mu: +0.250693836  nElectrons: 646.000000  magneticMoment: [ Abs: 0.00003  Tot: +0.00000 ]
	SubspaceRotationAdjust: set factor to 0.317
ElecMinimize: Iter:  33  F: -5018.864922641840167  |grad|_K:  3.132e-08  alpha:  2.682e-01  linmin: -2.851e-07  t[s]:   5834.19
	FillingsUpdate:  mu: +0.250665667  nElectrons: 646.000000  magneticMoment: [ Abs: 0.00002  Tot: +0.00000 ]
	SubspaceRotationAdjust: set factor to 0.267
ElecMinimize: Iter:  34  F: -5018.864922745007789  |grad|_K:  2.894e-08  alpha:  1.865e-01  linmin: -2.273e-07  t[s]:   5970.24
	FillingsUpdate:  mu: +0.250648678  nElectrons: 646.000000  magneticMoment: [ Abs: 0.00002  Tot: +0.00000 ]
	SubspaceRotationAdjust: set factor to 0.227
ElecMinimize: Iter:  35  F: -5018.864922822232074  |grad|_K:  2.156e-08  alpha:  1.641e-01  linmin:  3.934e-07  t[s]:   6106.30
	FillingsUpdate:  mu: +0.250665375  nElectrons: 646.000000  magneticMoment: [ Abs: 0.00002  Tot: +0.00000 ]
	SubspaceRotationAdjust: set factor to 0.255
ElecMinimize: Iter:  36  F: -5018.864922885539272  |grad|_K:  1.685e-08  alpha:  2.460e-01  linmin:  1.109e-06  t[s]:   6242.86
ElecMinimize: Converged (|Delta F|<1.000000e-07 for 2 iters).
Setting wave functions to eigenvectors of Hamiltonian
Converging empty states (this may take a while): |deigs|: 9.950e-03

Computing DFT-D3 correction:
# coordination-number Ag 6.868 9.175 5.360 6.877 9.201 9.211 9.212 9.207 9.212 9.212 9.211 9.202 9.212 9.210 9.200 6.871 7.668 9.200 9.211 7.668 9.202 9.211 9.212 9.207 9.212 9.212 9.211 9.201 6.877 9.212 9.175 6.868 6.871 5.360
# diagonal-C6 Ag 268.61 268.61 268.61 268.61 268.61 268.61 268.61 268.61 268.61 268.61 268.61 268.61 268.61 268.61 268.61 268.61 268.61 268.61 268.61 268.61 268.61 268.61 268.61 268.61 268.61 268.61 268.61 268.61 268.61 268.61 268.61 268.61 268.61 268.61
EvdW_6 =   -0.230517
EvdW_8 =   -0.305750

# Ionic positions in cartesian coordinates:
ion Ag   0.000000000000000  13.146506000000000   1.394409000000000 1
ion Ag   0.000000000000000  17.090468999999999   5.112771000000000 1
ion Ag   0.000000000000000   0.000000000000000  31.141556999999999 1
ion Ag   0.000000000000000   3.943963000000000   3.253622000000000 1
ion Ag   0.000000000000000   7.887903000000000   6.971984000000000 1
ion Ag   0.000000000000000  11.831866000000002  10.690409000000001 1
ion Ag   0.000000000000000  19.719770000000000  18.127196000000001 1
ion Ag   0.000000000000000  21.034409000000000   8.831196000000000 1
ion Ag   0.000000000000000   2.629301000000000  12.549557999999999 1
ion Ag   0.000000000000000   6.573264000000000  16.267983000000001 1
ion Ag   0.000000000000000  10.517205000000001  19.986345000000000 1
ion Ag   0.000000000000000  14.461167000000001  23.704770000000000 1
ion Ag   0.000000000000000  15.775807000000000  14.408771000000000 1
ion Ag   0.000000000000000   1.314662000000000  21.845558000000000 1
ion Ag   0.000000000000000   5.258602000000000  25.563983000000000 1
ion Ag   0.000000000000000   9.202565000000000  29.282343999999998 1
ion Ag   0.000000000000000  18.405107999999998  27.423194999999996 1
ion Ag   2.710223000000000  12.489197000000003   6.042378000000000 1
ion Ag   2.710223000000000  16.433138000000000   9.760802999999999 1
ion Ag   2.710223000000000  21.691739999999999   4.183165000000000 1
ion Ag   2.710223000000000   3.286632000000000   7.901590000000000 1
ion Ag   2.710223000000000   7.230573000000001  11.620015000000000 1
ion Ag   2.710223000000000  11.174535000000001  15.338376999999999 1
ion Ag   2.710223000000000  19.062439000000001  22.775163999999997 1
ion Ag   2.710223000000000  20.377101000000000  13.479164000000001 1
ion Ag   2.710223000000000   1.971970000000000  17.197589000000001 1
ion Ag   2.710223000000000   5.915933000000001  20.915951000000000 1
ion Ag   2.710223000000000   9.859874000000000  24.634376000000000 1
ion Ag   2.710223000000000  13.803837000000000  28.352737999999995 1
ion Ag   2.710223000000000  15.118498000000002  19.056802000000001 1
ion Ag   2.710223000000000   0.657331000000000  26.493589000000000 1
ion Ag   2.710223000000000   4.601271000000000  30.211950999999999 1
ion Ag   2.710223000000000   8.545234000000001   2.324016000000000 1
ion Ag   2.710223000000000  17.747799000000001   0.464803000000000 1

# Forces in Cartesian coordinates:
force Ag  -0.000013319799162  -0.001432917784029  -0.003439478063755 1
force Ag   0.000001954615480   0.001539341887815   0.000294760635145 1
force Ag   0.000022653866395  -0.001095973924369  -0.001558184031743 1
force Ag  -0.000016145571099  -0.000721635347299  -0.003096070272628 1
force Ag   0.000000813495902  -0.000023153272612   0.002029195076804 1
force Ag  -0.000000029251773  -0.000359506346689  -0.000498069497002 1
force Ag   0.000000307478322   0.000335954352157  -0.000417680858661 1
force Ag  -0.000000491911225  -0.000551241507528   0.001266566532352 1
force Ag  -0.000003756508768  -0.000496952194452   0.000078787617457 1
force Ag  -0.000001422961919   0.000225387676500  -0.000370572584309 1
force Ag   0.000000672994527  -0.000186056634256   0.000564307499340 1
force Ag   0.000000220494262   0.000577388125983  -0.001092323310424 1
force Ag   0.000000715840511   0.000372804477158   0.000008001830671 1
force Ag  -0.000000825787184   0.000039293493645   0.000694641923173 1
force Ag  -0.000003100506493  -0.000015227657349  -0.002317000699961 1
force Ag   0.000007041403210   0.000631963582852   0.003589032477991 1
force Ag   0.000020373700646  -0.001336417411990   0.005257222666641 1
force Ag   0.000004117431784   0.000095115277008   0.002314832949991 1
force Ag   0.000000823898739   0.000050908774420  -0.000695660611333 1
force Ag  -0.000021615647238   0.001221226186184  -0.005247065825020 1
force Ag   0.000000074937129  -0.000688531970907   0.001091790938625 1
force Ag  -0.000000316614201   0.000078424978587  -0.000570210699474 1
force Ag   0.000000255986855  -0.000305737147897   0.000365712911980 1
force Ag   0.000000352787694   0.000543429922366  -0.001280302313757 1
force Ag  -0.000000464924433  -0.000266615294158   0.000421835060565 1
force Ag  -0.000001161069753  -0.000312859395299  -0.000011463328459 1
force Ag  -0.000000435915438   0.000378830012381   0.000486638121657 1
force Ag  -0.000003133835016   0.000019102278417  -0.002049591742077 1
force Ag   0.000014257555707   0.000671407591512   0.003075768813445 1
force Ag   0.000002334909981   0.000446311984954  -0.000093114303948 1
force Ag  -0.000003520239558  -0.001513775652024  -0.000313398516356 1
force Ag   0.000011399548580   0.001512793796454   0.003439175770473 1
force Ag  -0.000008030318608  -0.000540072424413  -0.003578642438510 1
force Ag  -0.000022960556533   0.000852988492428   0.001559031424055 1

# Energy components:
   Eewald =    24965.2677996166312369
       EH =    29578.2723700012975314
     Eloc =   -60350.7332824220648035
      Enl =      134.0540137753613976
     EvdW =       -0.5362672209783923
      Exc =     -492.8348398153058270
 Exc_core =        7.0778066794394601
       KE =     1140.5686299662568217
-------------------------------------
     Etot =    -5018.8637694193594143
       TS =        0.0011534661798545
-------------------------------------
        F =    -5018.8649228855392721


Dumping 'jdft.fillings' ... done
Dumping 'jdft.wfns' ... done
Dumping 'jdft.ionpos' ... done
Dumping 'jdft.lattice' ... done
Dumping 'jdft.eigenvals' ... done
Dumping 'jdft.eigStats' ... 
	eMin: -3.135106 at state 22 ( [ +0.000000 +0.000000 +0.000000 ] spin -1 )
	HOMO: +0.250508 at state 13 ( [ -0.454545 +0.500000 +0.000000 ] spin 1 )
	mu  : +0.250665
	LUMO: +0.250671 at state 43 ( [ -0.090909 +0.500000 +0.000000 ] spin -1 )
	eMax: +0.596530 at state 5 ( [ +0.181818 +0.500000 +0.000000 ] spin 1 )
	HOMO-LUMO gap: +0.000162
	Optical gap  : +0.001233 at state 25 ( [ +0.090909 +0.500000 +0.000000 ] spin -1 )
Dumping 'jdft.Ecomponents' ... done
IonicMinimize: Iter:   0  F: -5018.864922885539272  |grad|_K:  1.308e-03  t[s]:   6825.07

#--- Lowdin population analysis ---
# oxidation-state Ag +0.002 -0.041 +0.090 +0.033 -0.007 +0.005 +0.002 +0.000 +0.005 +0.002 +0.004 -0.007 +0.001 +0.002 -0.005 +0.018 -0.019 -0.005 +0.002 -0.019 -0.007 +0.004 +0.002 +0.000 +0.002 +0.001 +0.005 -0.007 +0.033 +0.005 -0.041 +0.002 +0.018 +0.090
# magnetic-moments Ag +0.000 +0.000 -0.000 -0.000 +0.000 +0.000 +0.000 +0.000 +0.000 +0.000 +0.000 +0.000 +0.000 +0.000 +0.000 +0.000 +0.000 +0.000 +0.000 -0.000 +0.000 -0.000 +0.000 +0.000 +0.000 +0.000 +0.000 +0.000 +0.000 +0.000 +0.000 +0.000 +0.000 -0.000


Computing DFT-D3 correction:
# coordination-number Ag 6.858 9.172 5.363 6.872 9.196 9.214 9.214 9.203 9.213 9.211 9.214 9.197 9.211 9.212 9.194 6.864 7.663 9.194 9.212 7.663 9.197 9.214 9.211 9.203 9.215 9.211 9.214 9.196 6.872 9.212 9.172 6.858 6.863 5.363
# diagonal-C6 Ag 268.61 268.61 268.61 268.61 268.61 268.61 268.61 268.61 268.61 268.61 268.61 268.61 268.61 268.61 268.61 268.61 268.61 268.61 268.61 268.61 268.61 268.61 268.61 268.61 268.61 268.61 268.61 268.61 268.61 268.61 268.61 268.61 268.61 268.61
EvdW_6 =   -0.230502
EvdW_8 =   -0.305718

-------- Electronic minimization -----------
	FillingsUpdate:  mu: +0.250665640  nElectrons: 646.000000  magneticMoment: [ Abs: 0.00000  Tot: -0.00000 ]
ElecMinimize: Iter:   0  F: -5018.865037971619131  |grad|_K:  1.990e-07  alpha:  1.000e+00
	FillingsUpdate:  mu: +0.250357169  nElectrons: 646.000000  magneticMoment: [ Abs: 0.00000  Tot: -0.00000 ]
	SubspaceRotationAdjust: set factor to 0.141
ElecMinimize: Iter:   1  F: -5018.865046941268702  |grad|_K:  3.208e-07  alpha:  4.030e-01  linmin: -6.076e-06  t[s]:   7077.33
	FillingsUpdate:  mu: +0.250218958  nElectrons: 646.000000  magneticMoment: [ Abs: 0.00000  Tot: -0.00000 ]
	SubspaceRotationAdjust: set factor to 0.128
ElecMinimize: Iter:   2  F: -5018.865061246948244  |grad|_K:  2.451e-07  alpha:  2.474e-01  linmin: -5.622e-07  t[s]:   7212.68
	FillingsUpdate:  mu: +0.250843362  nElectrons: 646.000000  magneticMoment: [ Abs: 0.00000  Tot: -0.00000 ]
	SubspaceRotationAdjust: set factor to 0.133
ElecMinimize: Iter:   3  F: -5018.865077691664737  |grad|_K:  2.047e-07  alpha:  4.873e-01  linmin: -2.805e-06  t[s]:   7349.87
	FillingsUpdate:  mu: +0.250754506  nElectrons: 646.000000  magneticMoment: [ Abs: 0.00000  Tot: -0.00000 ]
	SubspaceRotationAdjust: set factor to 0.115
ElecMinimize: Iter:   4  F: -5018.865086128082112  |grad|_K:  1.582e-07  alpha:  3.583e-01  linmin: -3.914e-07  t[s]:   7486.43
	FillingsUpdate:  mu: +0.250592251  nElectrons: 646.000000  magneticMoment: [ Abs: 0.00000  Tot: -0.00000 ]
	SubspaceRotationAdjust: set factor to 0.0782
ElecMinimize: Iter:   5  F: -5018.865089519422327  |grad|_K:  8.441e-08  alpha:  2.412e-01  linmin: -6.206e-07  t[s]:   7622.80
	FillingsUpdate:  mu: +0.250616993  nElectrons: 646.000000  magneticMoment: [ Abs: 0.00000  Tot: -0.00000 ]
	SubspaceRotationAdjust: set factor to 0.102
ElecMinimize: Iter:   6  F: -5018.865090966182834  |grad|_K:  5.452e-08  alpha:  3.615e-01  linmin:  7.036e-06  t[s]:   7758.92
	FillingsUpdate:  mu: +0.250651297  nElectrons: 646.000000  magneticMoment: [ Abs: 0.00000  Tot: -0.00000 ]
	SubspaceRotationAdjust: set factor to 0.095
ElecMinimize: Iter:   7  F: -5018.865091490024497  |grad|_K:  3.202e-08  alpha:  3.142e-01  linmin: -3.154e-06  t[s]:   7895.70
	FillingsUpdate:  mu: +0.250646915  nElectrons: 646.000000  magneticMoment: [ Abs: 0.00000  Tot: -0.00000 ]
	SubspaceRotationAdjust: set factor to 0.1
ElecMinimize: Iter:   8  F: -5018.865091737657167  |grad|_K:  2.131e-08  alpha:  4.309e-01  linmin:  4.798e-05  t[s]:   8033.09
	FillingsUpdate:  mu: +0.250638334  nElectrons: 646.000000  magneticMoment: [ Abs: 0.00000  Tot: -0.00000 ]
	SubspaceRotationAdjust: set factor to 0.117
ElecMinimize: Iter:   9  F: -5018.865091839861634  |grad|_K:  1.718e-08  alpha:  4.030e-01  linmin:  5.019e-05  t[s]:   8170.04
	FillingsUpdate:  mu: +0.250636308  nElectrons: 646.000000  magneticMoment: [ Abs: 0.00000  Tot: -0.00000 ]
	SubspaceRotationAdjust: set factor to 0.142
ElecMinimize: Iter:  10  F: -5018.865091911222407  |grad|_K:  1.353e-08  alpha:  4.313e-01  linmin:  1.169e-04  t[s]:   8306.32
	FillingsUpdate:  mu: +0.250639693  nElectrons: 646.000000  magneticMoment: [ Abs: 0.00000  Tot: -0.00000 ]
	SubspaceRotationAdjust: set factor to 0.151
ElecMinimize: Iter:  11  F: -5018.865091962362385  |grad|_K:  1.335e-08  alpha:  5.029e-01  linmin: -2.512e-05  t[s]:   8443.15
ElecMinimize: Converged (|Delta F|<1.000000e-07 for 2 iters).
Setting wave functions to eigenvectors of Hamiltonian
Converging empty states (this may take a while): |deigs|: 4.570e-09

Computing DFT-D3 correction:
# coordination-number Ag 6.858 9.172 5.363 6.872 9.196 9.214 9.214 9.203 9.213 9.211 9.214 9.197 9.211 9.212 9.194 6.864 7.663 9.194 9.212 7.663 9.197 9.214 9.211 9.203 9.215 9.211 9.214 9.196 6.872 9.212 9.172 6.858 6.863 5.363
# diagonal-C6 Ag 268.61 268.61 268.61 268.61 268.61 268.61 268.61 268.61 268.61 268.61 268.61 268.61 268.61 268.61 268.61 268.61 268.61 268.61 268.61 268.61 268.61 268.61 268.61 268.61 268.61 268.61 268.61 268.61 268.61 268.61 268.61 268.61 268.61 268.61
EvdW_6 =   -0.230502
EvdW_8 =   -0.305718
IonicMinimize: 	Wolfe criterion not satisfied: alpha: 1  (E-E0)/|gdotd0|: -0.968195  gdotd/gdotd0: 0.948291 (taking cubic step)

Computing DFT-D3 correction:
# coordination-number Ag 6.840 9.166 5.368 6.862 9.186 9.219 9.219 9.195 9.215 9.208 9.219 9.187 9.209 9.215 9.181 6.848 7.654 9.181 9.215 7.654 9.187 9.218 9.208 9.194 9.220 9.210 9.220 9.187 6.863 9.214 9.165 6.839 6.847 5.369
# diagonal-C6 Ag 268.61 268.61 268.61 268.61 268.61 268.61 268.61 268.61 268.61 268.61 268.61 268.61 268.61 268.61 268.61 268.61 268.61 268.61 268.61 268.61 268.61 268.61 268.61 268.61 268.61 268.61 268.61 268.61 268.61 268.61 268.61 268.61 268.61 268.61
EvdW_6 =   -0.230472
EvdW_8 =   -0.305656

-------- Electronic minimization -----------
	FillingsUpdate:  mu: +0.250485518  nElectrons: 646.000000  magneticMoment: [ Abs: 0.00000  Tot: -0.00000 ]
ElecMinimize: Iter:   0  F: -5018.865176565997899  |grad|_K:  4.374e-07  alpha:  1.000e+00
	FillingsUpdate:  mu: +0.250403283  nElectrons: 646.000000  magneticMoment: [ Abs: 0.00000  Tot: -0.00000 ]
	SubspaceRotationAdjust: set factor to 0.0914
ElecMinimize: Iter:   1  F: -5018.865198922857417  |grad|_K:  3.485e-07  alpha:  2.079e-01  linmin: -2.592e-05  t[s]:   8838.14
ElecMinimize: 	Predicted alpha/alphaT>3.000000, increasing alphaT to 6.237158e-01.
	FillingsUpdate:  mu: +0.250225639  nElectrons: 646.000000  magneticMoment: [ Abs: 0.00000  Tot: -0.00000 ]
	SubspaceRotationAdjust: set factor to 0.111
ElecMinimize: Iter:   2  F: -5018.865254200984964  |grad|_K:  3.780e-07  alpha:  8.101e-01  linmin:  3.165e-06  t[s]:   9007.76
	FillingsUpdate:  mu: +0.250651286  nElectrons: 646.000000  magneticMoment: [ Abs: 0.00000  Tot: -0.00000 ]
	SubspaceRotationAdjust: set factor to 0.121
ElecMinimize: Iter:   3  F: -5018.865321272659457  |grad|_K:  4.076e-07  alpha:  8.362e-01  linmin: -1.922e-07  t[s]:   9144.29
	FillingsUpdate:  mu: +0.250594066  nElectrons: 646.000000  magneticMoment: [ Abs: 0.00000  Tot: -0.00000 ]
	SubspaceRotationAdjust: set factor to 0.118
ElecMinimize: Iter:   4  F: -5018.865362010401441  |grad|_K:  3.091e-07  alpha:  4.364e-01  linmin: -5.190e-07  t[s]:   9281.72
	FillingsUpdate:  mu: +0.250499339  nElectrons: 646.000000  magneticMoment: [ Abs: 0.00000  Tot: -0.00000 ]
	SubspaceRotationAdjust: set factor to 0.097
ElecMinimize: Iter:   5  F: -5018.865383027136886  |grad|_K:  2.000e-07  alpha:  3.915e-01  linmin:  7.064e-07  t[s]:   9418.74
	FillingsUpdate:  mu: +0.250595945  nElectrons: 646.000000  magneticMoment: [ Abs: 0.00000  Tot: -0.00000 ]
	SubspaceRotationAdjust: set factor to 0.0729
ElecMinimize: Iter:   6  F: -5018.865390905010827  |grad|_K:  1.306e-07  alpha:  3.506e-01  linmin: -1.653e-06  t[s]:   9555.74
	FillingsUpdate:  mu: +0.250629334  nElectrons: 646.000000  magneticMoment: [ Abs: 0.00000  Tot: -0.00000 ]
	SubspaceRotationAdjust: set factor to 0.0763
ElecMinimize: Iter:   7  F: -5018.865394478128110  |grad|_K:  7.977e-08  alpha:  3.728e-01  linmin:  2.391e-06  t[s]:   9692.14
	FillingsUpdate:  mu: +0.250592235  nElectrons: 646.000000  magneticMoment: [ Abs: 0.00000  Tot: -0.00000 ]
	SubspaceRotationAdjust: set factor to 0.0828
ElecMinimize: Iter:   8  F: -5018.865395807655659  |grad|_K:  5.398e-08  alpha:  3.719e-01  linmin:  4.719e-06  t[s]:   9829.53
	FillingsUpdate:  mu: +0.250573805  nElectrons: 646.000000  magneticMoment: [ Abs: 0.00000  Tot: -0.00000 ]
	SubspaceRotationAdjust: set factor to 0.0875
ElecMinimize: Iter:   9  F: -5018.865396458618306  |grad|_K:  3.336e-08  alpha:  3.976e-01  linmin: -6.785e-06  t[s]:   9965.82
	FillingsUpdate:  mu: +0.250588446  nElectrons: 646.000000  magneticMoment: [ Abs: 0.00000  Tot: -0.00000 ]
	SubspaceRotationAdjust: set factor to 0.101
ElecMinimize: Iter:  10  F: -5018.865396769074323  |grad|_K:  2.637e-08  alpha:  4.957e-01  linmin: -3.641e-05  t[s]:  10101.58
	FillingsUpdate:  mu: +0.250583084  nElectrons: 646.000000  magneticMoment: [ Abs: 0.00000  Tot: -0.00000 ]
	SubspaceRotationAdjust: set factor to 0.122
ElecMinimize: Iter:  11  F: -5018.865396943134328  |grad|_K:  2.310e-08  alpha:  4.442e-01  linmin: -3.058e-05  t[s]:  10238.05
	FillingsUpdate:  mu: +0.250566237  nElectrons: 646.000000  magneticMoment: [ Abs: 0.00000  Tot: -0.00000 ]
	SubspaceRotationAdjust: set factor to 0.144
ElecMinimize: Iter:  12  F: -5018.865397095963090  |grad|_K:  2.088e-08  alpha:  5.080e-01  linmin: -1.966e-05  t[s]:  10375.04
	FillingsUpdate:  mu: +0.250569453  nElectrons: 646.000000  magneticMoment: [ Abs: 0.00000  Tot: -0.00000 ]
	SubspaceRotationAdjust: set factor to 0.152
ElecMinimize: Iter:  13  F: -5018.865397238885635  |grad|_K:  2.087e-08  alpha:  5.828e-01  linmin:  1.709e-05  t[s]:  10511.73
	FillingsUpdate:  mu: +0.250567259  nElectrons: 646.000000  magneticMoment: [ Abs: 0.00000  Tot: -0.00000 ]
	SubspaceRotationAdjust: set factor to 0.137
ElecMinimize: Iter:  14  F: -5018.865397333485816  |grad|_K:  1.902e-08  alpha:  3.882e-01  linmin: -1.725e-05  t[s]:  10649.16
	FillingsUpdate:  mu: +0.250557389  nElectrons: 646.000000  magneticMoment: [ Abs: 0.00000  Tot: -0.00000 ]
	SubspaceRotationAdjust: set factor to 0.112
ElecMinimize: Iter:  15  F: -5018.865397403788847  |grad|_K:  1.440e-08  alpha:  3.438e-01  linmin:  4.649e-05  t[s]:  10785.84
ElecMinimize: Converged (|Delta F|<1.000000e-07 for 2 iters).
Setting wave functions to eigenvectors of Hamiltonian
Converging empty states (this may take a while): |deigs|: 1.516e-08

Computing DFT-D3 correction:
# coordination-number Ag 6.840 9.166 5.368 6.862 9.186 9.219 9.219 9.195 9.215 9.208 9.219 9.187 9.209 9.215 9.181 6.848 7.654 9.181 9.215 7.654 9.187 9.218 9.208 9.194 9.220 9.210 9.220 9.187 6.863 9.214 9.165 6.839 6.847 5.369
# diagonal-C6 Ag 268.61 268.61 268.61 268.61 268.61 268.61 268.61 268.61 268.61 268.61 268.61 268.61 268.61 268.61 268.61 268.61 268.61 268.61 268.61 268.61 268.61 268.61 268.61 268.61 268.61 268.61 268.61 268.61 268.61 268.61 268.61 268.61 268.61 268.61
EvdW_6 =   -0.230472
EvdW_8 =   -0.305656

# Ionic positions in cartesian coordinates:
ion Ag  -0.000038868767543  13.142229658507423   1.384098641707005 1
ion Ag   0.000006954476382  17.095109437522954   5.113663357803706 1
ion Ag   0.000069052229127  -0.003265509913597  31.136890523803036 1
ion Ag  -0.000047346083356   3.941820505817613   3.244341865080385 1
ion Ag   0.000003531117647   7.887855952041674   6.978079661128680 1
ion Ag   0.000001002874624  11.830809892819444  10.688922867407264 1
ion Ag   0.000002013064907  19.720800274915984  18.125951033322288 1
ion Ag  -0.000000385103732  21.032777687336928   8.835003775495325 1
ion Ag  -0.000010178896361   2.627832555276153  12.549802438750641 1
ion Ag  -0.000003178255814   6.573962574889011  16.266879358145342 1
ion Ag   0.000003109613524  10.516669241956745  19.988045998396288 1
ion Ag   0.000001752112727  14.462921576237459  23.701501105966997 1
ion Ag   0.000003238151475  15.776947825290984  14.408803081390282 1
ion Ag  -0.000001386731611   1.314802292340444  21.847650001667791 1
ion Ag  -0.000008210889537   5.258578728887462  25.557040073798387 1
ion Ag   0.000022214839573   9.204483302608066  29.293119173332244 1
ion Ag   0.000062211731879  18.401121159623539  27.438974743898193 1
ion Ag   2.710236442925296  12.489504757690538   6.049330574748242 1
ion Ag   2.710226562326159  16.433313138182768   9.758724094064268 1
ion Ag   2.710159243688228  21.695426090418064   4.167431878423210 1
ion Ag   2.710224315441328   3.284588815946788   7.904873448714143 1
ion Ag   2.710223140787338   7.230830686795270  11.618312443799848 1
ion Ag   2.710224858590507  11.173640200415822  15.339482214634208 1
ion Ag   2.710225148993024  19.064091701626612  22.771331168956994 1
ion Ag   2.710222695856642  20.376323565977035  13.480437581079965 1
ion Ag   2.710220607420684   1.971053833673613  17.197562685912892 1
ion Ag   2.710222782883629   5.917091901896654  20.917418990263240 1
ion Ag   2.710214689124895   9.859953718694763  24.628235300672038 1
ion Ag   2.710266863297062  13.805873634634045  28.361973382338601 1
ion Ag   2.710231095359886  15.119859347814376  19.056530732986424 1
ion Ag   2.710213529911267   0.652812084903440  26.492656880349202 1
ion Ag   2.710258289275683   4.605831793248872  30.222276603209689 1
ion Ag   2.710199999674119   8.543636194586274   2.313288148582738 1
ion Ag   2.710155208960344  17.750380377336796   0.469488170170435 1

# Forces in Cartesian coordinates:
force Ag  -0.000007815866051  -0.001222915833916  -0.002812278731351 1
force Ag   0.000001129627258   0.001244060754537   0.000158071073928 1
force Ag   0.000022051078309  -0.000828177955289  -0.001356109609273 1
force Ag  -0.000015159106669  -0.000407872928597  -0.002644011978323 1
force Ag   0.000000784047832  -0.000197738605695   0.001195045669416 1
force Ag   0.000000044578983  -0.000210628211378  -0.000116978635525 1
force Ag   0.000000220388007   0.000320726064051  -0.000300303085779 1
force Ag  -0.000001212835489  -0.000393927587941   0.000718584667041 1
force Ag  -0.000003474577445  -0.000405514331459   0.000195487136912 1
force Ag  -0.000001261874225   0.000122968240420  -0.000226926460387 1
force Ag   0.000000677202540  -0.000081059954640   0.000375644358164 1
force Ag   0.000000415740908   0.000629878863826  -0.000474828533291 1
force Ag   0.000000713818655   0.000217292400800  -0.000018366442807 1
force Ag  -0.000000833639726   0.000052302781155   0.000583026537562 1
force Ag  -0.000003153819063   0.000005099326271  -0.001356914330379 1
force Ag   0.000008123494712   0.000579277027930   0.002969539870034 1
force Ag   0.000020278863739  -0.001311736252241   0.004503359692636 1
force Ag   0.000003845347867   0.000064719511644   0.001440971354221 1
force Ag   0.000000774058447   0.000028015827062  -0.000482351791560 1
force Ag  -0.000020641329961   0.001213226357215  -0.004486731403926 1
force Ag  -0.000000019989428  -0.000716203463508   0.000567436572994 1
force Ag  -0.000000473120864  -0.000009740750317  -0.000277163028423 1
force Ag   0.000000508810603  -0.000188522265805   0.000354063631739 1
force Ag   0.000000598912093   0.000373576977053  -0.000627417192493 1
force Ag  -0.000000302221247  -0.000262695006066   0.000428949034972 1
force Ag  -0.000001164871172  -0.000163434902846   0.000136743022813 1
force Ag  -0.000000464392221   0.000224677751885   0.000227688621839 1
force Ag  -0.000002778612709   0.000192879574029  -0.001126533204793 1
force Ag   0.000013434738172   0.000371208107912   0.002664002721730 1
force Ag   0.000002176760623   0.000351586949484  -0.000101603827570 1
force Ag  -0.000002414335019  -0.001213321612270  -0.000119349251840 1
force Ag   0.000009892668676   0.001277814434626   0.002836145189345 1
force Ag  -0.000009637196434  -0.000490017036118  -0.002935686138139 1
force Ag  -0.000021735739029   0.000629809333871   0.001342379571830 1

# Energy components:
   Eewald =    24950.1270811282920477
       EH =    29563.1171762476151343
     Eloc =   -60320.4329659370559966
      Enl =      134.0542165119381366
     EvdW =       -0.5361281078744826
      Exc =     -492.8304435555721739
 Exc_core =        7.0778066226658698
       KE =     1140.5590046585321033
-------------------------------------
     Etot =    -5018.8642524314636830
       TS =        0.0011449723249008
-------------------------------------
        F =    -5018.8653974037888474


Dumping 'jdft.fillings' ... done
Dumping 'jdft.wfns' ... done
Dumping 'jdft.ionpos' ... done
Dumping 'jdft.lattice' ... done
Dumping 'jdft.eigenvals' ... done
Dumping 'jdft.eigStats' ... 
	eMin: -3.135205 at state 22 ( [ +0.000000 +0.000000 +0.000000 ] spin -1 )
	HOMO: +0.250461 at state 3 ( [ +0.090909 +0.500000 +0.000000 ] spin 1 )
	mu  : +0.250557
	LUMO: +0.250574 at state 29 ( [ +0.272727 +0.500000 +0.000000 ] spin -1 )
	eMax: +0.596360 at state 5 ( [ +0.181818 +0.500000 +0.000000 ] spin 1 )
	HOMO-LUMO gap: +0.000113
	Optical gap  : +0.001519 at state 7 ( [ +0.272727 +0.500000 +0.000000 ] spin 1 )
Dumping 'jdft.Ecomponents' ... done
IonicMinimize: Iter:   1  F: -5018.865397403788847  |grad|_K:  1.058e-03  alpha:  3.000e+00  linmin: -9.901e-01  t[s]:  10930.42

#--- Lowdin population analysis ---
# oxidation-state Ag +0.002 -0.041 +0.090 +0.032 -0.006 +0.005 +0.002 +0.001 +0.005 +0.002 +0.004 -0.006 +0.001 +0.002 -0.004 +0.018 -0.019 -0.005 +0.002 -0.019 -0.007 +0.004 +0.002 +0.001 +0.002 +0.001 +0.005 -0.006 +0.033 +0.005 -0.041 +0.003 +0.017 +0.089
# magnetic-moments Ag -0.000 -0.000 -0.000 -0.000 -0.000 +0.000 -0.000 -0.000 -0.000 +0.000 -0.000 -0.000 -0.000 -0.000 -0.000 -0.000 -0.000 -0.000 -0.000 -0.000 +0.000 -0.000 -0.000 -0.000 -0.000 -0.000 +0.000 -0.000 -0.000 +0.000 +0.000 -0.000 -0.000 -0.000


Computing DFT-D3 correction:
# coordination-number Ag 6.718 9.108 5.418 6.825 9.078 9.215 9.232 9.107 9.203 9.211 9.215 9.104 9.214 9.221 9.063 6.771 7.580 9.054 9.217 7.573 9.096 9.209 9.208 9.109 9.234 9.218 9.224 9.089 6.835 9.201 9.111 6.716 6.765 5.419
# diagonal-C6 Ag 268.61 268.61 268.61 268.61 268.61 268.61 268.61 268.61 268.61 268.61 268.61 268.61 268.61 268.61 268.61 268.61 268.61 268.61 268.61 268.61 268.61 268.61 268.61 268.61 268.61 268.61 268.61 268.61 268.61 268.61 268.61 268.61 268.61 268.61
EvdW_6 =   -0.230053
EvdW_8 =   -0.304961

-------- Electronic minimization -----------
	FillingsUpdate:  mu: +0.345000858  nElectrons: 646.000000  magneticMoment: [ Abs: 0.00000  Tot: -0.00000 ]
ElecMinimize: Iter:   0  F: -5017.060200877739589  |grad|_K:  1.063e-04  alpha:  1.000e+00
	FillingsUpdate:  mu: +0.218962401  nElectrons: 646.000000  magneticMoment: [ Abs: 0.00000  Tot: -0.00000 ]
	SubspaceRotationAdjust: set factor to 0.101
ElecMinimize: Iter:   1  F: -5018.682217399286856  |grad|_K:  2.988e-05  alpha:  2.708e-01  linmin:  8.735e-03  t[s]:  11174.89
	FillingsUpdate:  mu: +0.237035058  nElectrons: 646.000000  magneticMoment: [ Abs: 0.00000  Tot: -0.00000 ]
	SubspaceRotationAdjust: set factor to 0.14
ElecMinimize: Iter:   2  F: -5018.803712922343948  |grad|_K:  8.962e-06  alpha:  2.554e-01  linmin: -1.119e-04  t[s]:  11310.47
	FillingsUpdate:  mu: +0.249692422  nElectrons: 646.000000  magneticMoment: [ Abs: 0.00000  Tot: -0.00000 ]
	SubspaceRotationAdjust: set factor to 0.167
ElecMinimize: Iter:   3  F: -5018.819142613699114  |grad|_K:  5.398e-06  alpha:  3.416e-01  linmin: -2.736e-05  t[s]:  11446.98
	FillingsUpdate:  mu: +0.250888830  nElectrons: 646.000000  magneticMoment: [ Abs: 0.00000  Tot: -0.00000 ]
	SubspaceRotationAdjust: set factor to 0.21
ElecMinimize: Iter:   4  F: -5018.828182119422308  |grad|_K:  6.066e-06  alpha:  5.517e-01  linmin: -2.655e-06  t[s]:  11583.54
	FillingsUpdate:  mu: +0.249204762  nElectrons: 646.000000  magneticMoment: [ Abs: 0.00000  Tot: -0.00000 ]
	SubspaceRotationAdjust: set factor to 0.178
ElecMinimize: Iter:   5  F: -5018.839445360583341  |grad|_K:  7.659e-06  alpha:  5.447e-01  linmin: -2.067e-05  t[s]:  11720.07
	FillingsUpdate:  mu: +0.252359701  nElectrons: 646.000000  magneticMoment: [ Abs: 0.00000  Tot: -0.00000 ]
	SubspaceRotationAdjust: set factor to 0.13
ElecMinimize: Iter:   6  F: -5018.846907818162435  |grad|_K:  6.420e-06  alpha:  2.272e-01  linmin:  1.593e-05  t[s]:  11856.68
	FillingsUpdate:  mu: +0.255702472  nElectrons: 646.000000  magneticMoment: [ Abs: 0.00000  Tot: -0.00000 ]
	SubspaceRotationAdjust: set factor to 0.136
ElecMinimize: Iter:   7  F: -5018.856930849778109  |grad|_K:  4.928e-06  alpha:  4.365e-01  linmin:  1.854e-05  t[s]:  11993.73
	FillingsUpdate:  mu: +0.250252710  nElectrons: 646.000000  magneticMoment: [ Abs: 0.00000  Tot: +0.00000 ]
	SubspaceRotationAdjust: set factor to 0.146
ElecMinimize: Iter:   8  F: -5018.862845924450994  |grad|_K:  3.445e-06  alpha:  4.366e-01  linmin: -5.284e-07  t[s]:  12129.85
	FillingsUpdate:  mu: +0.249333741  nElectrons: 646.000000  magneticMoment: [ Abs: 0.00000  Tot: +0.00000 ]
	SubspaceRotationAdjust: set factor to 0.122
ElecMinimize: Iter:   9  F: -5018.865019265253068  |grad|_K:  2.401e-06  alpha:  3.262e-01  linmin: -1.209e-06  t[s]:  12266.74
	FillingsUpdate:  mu: +0.250416552  nElectrons: 646.000000  magneticMoment: [ Abs: 0.00000  Tot: +0.00000 ]
	SubspaceRotationAdjust: set factor to 0.0844
ElecMinimize: Iter:  10  F: -5018.865918697429152  |grad|_K:  1.611e-06  alpha:  2.778e-01  linmin:  1.007e-06  t[s]:  12402.23
	FillingsUpdate:  mu: +0.250698468  nElectrons: 646.000000  magneticMoment: [ Abs: 0.00000  Tot: +0.00000 ]
	SubspaceRotationAdjust: set factor to 0.0944
ElecMinimize: Iter:  11  F: -5018.866404080706161  |grad|_K:  9.843e-07  alpha:  3.331e-01  linmin:  4.723e-06  t[s]:  12538.30
	FillingsUpdate:  mu: +0.250171649  nElectrons: 646.000000  magneticMoment: [ Abs: 0.00000  Tot: +0.00000 ]
	SubspaceRotationAdjust: set factor to 0.104
ElecMinimize: Iter:  12  F: -5018.866594522745800  |grad|_K:  6.392e-07  alpha:  3.501e-01  linmin: -3.706e-06  t[s]:  12674.62
	FillingsUpdate:  mu: +0.249821746  nElectrons: 646.000000  magneticMoment: [ Abs: 0.00000  Tot: +0.00000 ]
	SubspaceRotationAdjust: set factor to 0.0989
ElecMinimize: Iter:  13  F: -5018.866674941657038  |grad|_K:  4.474e-07  alpha:  3.504e-01  linmin:  2.137e-06  t[s]:  12811.49
	FillingsUpdate:  mu: +0.249911248  nElectrons: 646.000000  magneticMoment: [ Abs: 0.00000  Tot: +0.00000 ]
	SubspaceRotationAdjust: set factor to 0.123
ElecMinimize: Iter:  14  F: -5018.866721129204052  |grad|_K:  3.309e-07  alpha:  4.109e-01  linmin:  1.282e-06  t[s]:  12947.83
	FillingsUpdate:  mu: +0.250002739  nElectrons: 646.000000  magneticMoment: [ Abs: 0.00000  Tot: +0.00000 ]
	SubspaceRotationAdjust: set factor to 0.153
ElecMinimize: Iter:  15  F: -5018.866746743517069  |grad|_K:  3.025e-07  alpha:  4.164e-01  linmin: -7.274e-07  t[s]:  13084.25
	FillingsUpdate:  mu: +0.249940591  nElectrons: 646.000000  magneticMoment: [ Abs: 0.00000  Tot: +0.00000 ]
	SubspaceRotationAdjust: set factor to 0.168
ElecMinimize: Iter:  16  F: -5018.866770987354357  |grad|_K:  3.016e-07  alpha:  4.717e-01  linmin:  6.860e-08  t[s]:  13220.46
	FillingsUpdate:  mu: +0.249959441  nElectrons: 646.000000  magneticMoment: [ Abs: 0.00000  Tot: +0.00000 ]
	SubspaceRotationAdjust: set factor to 0.165
ElecMinimize: Iter:  17  F: -5018.866789885229082  |grad|_K:  3.113e-07  alpha:  3.698e-01  linmin:  7.935e-08  t[s]:  13356.96
	FillingsUpdate:  mu: +0.250111978  nElectrons: 646.000000  magneticMoment: [ Abs: 0.00000  Tot: +0.00000 ]
	SubspaceRotationAdjust: set factor to 0.162
ElecMinimize: Iter:  18  F: -5018.866812148438839  |grad|_K:  2.628e-07  alpha:  4.089e-01  linmin: -5.610e-07  t[s]:  13492.92
	FillingsUpdate:  mu: +0.250116608  nElectrons: 646.000000  magneticMoment: [ Abs: 0.00000  Tot: +0.00000 ]
	SubspaceRotationAdjust: set factor to 0.162
ElecMinimize: Iter:  19  F: -5018.866828861149770  |grad|_K:  2.238e-07  alpha:  4.309e-01  linmin: -7.079e-07  t[s]:  13628.67
	FillingsUpdate:  mu: +0.250040729  nElectrons: 646.000000  magneticMoment: [ Abs: 0.00000  Tot: +0.00000 ]
	SubspaceRotationAdjust: set factor to 0.157
ElecMinimize: Iter:  20  F: -5018.866839426089427  |grad|_K:  1.729e-07  alpha:  3.754e-01  linmin: -6.834e-08  t[s]:  13765.31
	FillingsUpdate:  mu: +0.250065923  nElectrons: 646.000000  magneticMoment: [ Abs: 0.00000  Tot: +0.00000 ]
	SubspaceRotationAdjust: set factor to 0.145
ElecMinimize: Iter:  21  F: -5018.866845593049220  |grad|_K:  1.325e-07  alpha:  3.672e-01  linmin:  3.754e-07  t[s]:  13901.50
	FillingsUpdate:  mu: +0.250104872  nElectrons: 646.000000  magneticMoment: [ Abs: 0.00000  Tot: +0.00000 ]
	SubspaceRotationAdjust: set factor to 0.126
ElecMinimize: Iter:  22  F: -5018.866848556177501  |grad|_K:  1.006e-07  alpha:  3.008e-01  linmin:  5.249e-07  t[s]:  14039.26
	FillingsUpdate:  mu: +0.250099917  nElectrons: 646.000000  magneticMoment: [ Abs: 0.00000  Tot: +0.00000 ]
	SubspaceRotationAdjust: set factor to 0.134
ElecMinimize: Iter:  23  F: -5018.866850443585463  |grad|_K:  6.940e-08  alpha:  3.324e-01  linmin:  5.093e-06  t[s]:  14176.02
	FillingsUpdate:  mu: +0.250066347  nElectrons: 646.000000  magneticMoment: [ Abs: 0.00000  Tot: +0.00000 ]
	SubspaceRotationAdjust: set factor to 0.17
ElecMinimize: Iter:  24  F: -5018.866851559617317  |grad|_K:  5.510e-08  alpha:  4.130e-01  linmin:  1.884e-06  t[s]:  14312.09
	FillingsUpdate:  mu: +0.250058365  nElectrons: 646.000000  magneticMoment: [ Abs: 0.00000  Tot: +0.00000 ]
	SubspaceRotationAdjust: set factor to 0.207
ElecMinimize: Iter:  25  F: -5018.866852278852093  |grad|_K:  5.016e-08  alpha:  4.221e-01  linmin: -3.950e-06  t[s]:  14448.17
	FillingsUpdate:  mu: +0.250056931  nElectrons: 646.000000  magneticMoment: [ Abs: 0.00000  Tot: +0.00000 ]
	SubspaceRotationAdjust: set factor to 0.195
ElecMinimize: Iter:  26  F: -5018.866852772674065  |grad|_K:  5.119e-08  alpha:  3.492e-01  linmin:  1.773e-05  t[s]:  14583.99
	FillingsUpdate:  mu: +0.250042549  nElectrons: 646.000000  magneticMoment: [ Abs: 0.00000  Tot: +0.00000 ]
	SubspaceRotationAdjust: set factor to 0.172
ElecMinimize: Iter:  27  F: -5018.866853151200303  |grad|_K:  4.418e-08  alpha:  2.575e-01  linmin:  3.630e-06  t[s]:  14720.25
	FillingsUpdate:  mu: +0.250021022  nElectrons: 646.000000  magneticMoment: [ Abs: 0.00000  Tot: +0.00000 ]
	SubspaceRotationAdjust: set factor to 0.176
ElecMinimize: Iter:  28  F: -5018.866853536425879  |grad|_K:  3.363e-08  alpha:  3.522e-01  linmin:  2.100e-05  t[s]:  14856.31
	FillingsUpdate:  mu: +0.250028718  nElectrons: 646.000000  magneticMoment: [ Abs: 0.00000  Tot: +0.00000 ]
	SubspaceRotationAdjust: set factor to 0.192
ElecMinimize: Iter:  29  F: -5018.866853789530069  |grad|_K:  2.704e-08  alpha:  3.982e-01  linmin: -1.988e-05  t[s]:  14992.45
	FillingsUpdate:  mu: +0.250028199  nElectrons: 646.000000  magneticMoment: [ Abs: 0.00000  Tot: +0.00000 ]
	SubspaceRotationAdjust: set factor to 0.217
ElecMinimize: Iter:  30  F: -5018.866853951460143  |grad|_K:  2.116e-08  alpha:  3.943e-01  linmin:  3.245e-06  t[s]:  15129.11
	FillingsUpdate:  mu: +0.250014689  nElectrons: 646.000000  magneticMoment: [ Abs: 0.00000  Tot: +0.00000 ]
	SubspaceRotationAdjust: set factor to 0.247
ElecMinimize: Iter:  31  F: -5018.866854051949304  |grad|_K:  1.690e-08  alpha:  4.015e-01  linmin:  6.071e-05  t[s]:  15266.21
	FillingsUpdate:  mu: +0.250023510  nElectrons: 646.000000  magneticMoment: [ Abs: 0.00000  Tot: +0.00000 ]
	SubspaceRotationAdjust: set factor to 0.237
ElecMinimize: Iter:  32  F: -5018.866854106833671  |grad|_K:  1.651e-08  alpha:  3.420e-01  linmin: -5.209e-05  t[s]:  15402.64
	FillingsUpdate:  mu: +0.250029605  nElectrons: 646.000000  magneticMoment: [ Abs: 0.00000  Tot: +0.00000 ]
	SubspaceRotationAdjust: set factor to 0.195
ElecMinimize: Iter:  33  F: -5018.866854136507754  |grad|_K:  1.434e-08  alpha:  1.922e-01  linmin: -2.767e-05  t[s]:  15539.31
ElecMinimize: Converged (|Delta F|<1.000000e-07 for 2 iters).
Setting wave functions to eigenvectors of Hamiltonian
Converging empty states (this may take a while): |deigs|: 1.863e-06

Computing DFT-D3 correction:
# coordination-number Ag 6.718 9.108 5.418 6.825 9.078 9.215 9.232 9.107 9.203 9.211 9.215 9.104 9.214 9.221 9.063 6.771 7.580 9.054 9.217 7.573 9.096 9.209 9.208 9.109 9.234 9.218 9.224 9.089 6.835 9.201 9.111 6.716 6.765 5.419
# diagonal-C6 Ag 268.61 268.61 268.61 268.61 268.61 268.61 268.61 268.61 268.61 268.61 268.61 268.61 268.61 268.61 268.61 268.61 268.61 268.61 268.61 268.61 268.61 268.61 268.61 268.61 268.61 268.61 268.61 268.61 268.61 268.61 268.61 268.61 268.61 268.61
EvdW_6 =   -0.230053
EvdW_8 =   -0.304961

# Ionic positions in cartesian coordinates:
ion Ag  -0.000080924555772  13.117057477543234   1.328035704461193 1
ion Ag   0.000012828293523  17.118608701116891   5.111757224687876 1
ion Ag   0.000616549736532  -0.016686113745946  31.105929384828343 1
ion Ag  -0.000406428221702   3.940467468273359   3.187576849798358 1
ion Ag   0.000023307243342   7.877917667600309   6.982764468647357 1
ion Ag   0.000004812500406  11.829789405514227  10.694782591685492 1
ion Ag   0.000005720118250  19.728682702758736  18.119581080956944 1
ion Ag  -0.000051467619722  21.027308694672556   8.835679736087865 1
ion Ag  -0.000090456749361   2.620183771613547  12.556097789706268 1
ion Ag  -0.000030299365453   6.574292679450027  16.263137724346699 1
ion Ag   0.000021114325566  10.517709195163638  19.990220549195342 1
ion Ag   0.000018529030571  14.480649652439528  23.704963920479173 1
ion Ag   0.000022001572291  15.778173316402398  14.405536831469105 1
ion Ag  -0.000022381420019   1.316624454829254  21.857333121080874 1
ion Ag  -0.000089866571766   5.259402407766713  25.547729332611606 1
ion Ag   0.000261547324405   9.217909801924531  29.349340936465424 1
ion Ag   0.000578889421399  18.368378345169994  27.530597434801297 1
ion Ag   2.710327605027699  12.490403682227550   6.059172000583397 1
ion Ag   2.710245499877249  16.433487506136128   9.750439057672654 1
ion Ag   2.709659552681305  21.726349616611607   4.072334634316692 1
ion Ag   2.710221648453657   3.265585866638183   7.902357807721735 1
ion Ag   2.710207119993671   7.228172960940726  11.617556794288722 1
ion Ag   2.710245662763608  11.172280060939256  15.346165318819883 1
ion Ag   2.710248066865534  19.068905707922884  22.771901816109409 1
ion Ag   2.710220173462985  20.369826725239484  13.489573040601561 1
ion Ag   2.710191254060246   1.971256397701012  17.203255836828280 1
ion Ag   2.710210645687629   5.918545221847872  20.913798689362540 1
ion Ag   2.710154312724633   9.869968745789174  24.623760217054706 1
ion Ag   2.710587622983726  13.806900525257749  28.416316781888604 1
ion Ag   2.710282824292678  15.126258593574523  19.051646011052043 1
ion Ag   2.710183934918543   0.630471326799795  26.493108575544326 1
ion Ag   2.710468868995855   4.631918619914259  30.275556126869830 1
ion Ag   2.709908052821660   8.532642332508177   2.254518337178976 1
ion Ag   2.709634679326836  17.760225481458637   0.495596272797428 1

# Forces in Cartesian coordinates:
force Ag  -0.000011645365892  -0.000282878470076  -0.000785082794294 1
force Ag  -0.000005449463012   0.000286152489310  -0.000012602586417 1
force Ag   0.000007995805522   0.000434748700215  -0.000187160299149 1
force Ag  -0.000018481670306   0.000602993623954  -0.001520399490130 1
force Ag   0.000000019152042  -0.000255333832407  -0.000647223800148 1
force Ag   0.000000572940203  -0.000273703183121  -0.000233939805535 1
force Ag  -0.000000048736513   0.000011602321086   0.000254690083837 1
force Ag  -0.000001740262594   0.000055367213198  -0.000898933073265 1
force Ag  -0.000001780058114  -0.000254346945478  -0.000207711184704 1
force Ag  -0.000000359297233   0.000014842803459  -0.000225250185247 1
force Ag   0.000000626823698   0.000296160370332   0.000228045228220 1
force Ag   0.000001640610911   0.000260431114372   0.000562817592396 1
force Ag   0.000000865933805  -0.000065616788536  -0.000157274355257 1
force Ag  -0.000000756476139  -0.000016623913716   0.000086583085092 1
force Ag  -0.000002096697204   0.000185941480020   0.000693735961906 1
force Ag   0.000012791745584   0.000190478113018   0.001169620565901 1
force Ag   0.000004476370932  -0.000614788621367   0.001518168182587 1
force Ag   0.000001704706362  -0.000156256949636  -0.000759037712891 1
force Ag  -0.000000282067716  -0.000018411994636  -0.000203597264214 1
force Ag  -0.000004524705865   0.000695857900081  -0.001493814799726 1
force Ag  -0.000002576656205  -0.000314442044889  -0.000786052097684 1
force Ag  -0.000001205668086  -0.000315553068506  -0.000357396930473 1
force Ag   0.000000073764289  -0.000043367640492  -0.000046154484826 1
force Ag   0.000002172535860  -0.000025973577816   0.000710664490827 1
force Ag  -0.000000641792230  -0.000018358578380  -0.000402726624059 1
force Ag  -0.000001754036599   0.000036284967787  -0.000020429774741 1
force Ag  -0.000000169786351   0.000280621188308   0.000078833860022 1
force Ag  -0.000001224145486   0.000275398095071   0.000524765373305 1
force Ag   0.000021557184580  -0.000600187102940   0.001591745013690 1
force Ag   0.000001735353434   0.000258999861453   0.000082672703593 1
force Ag   0.000005076429545  -0.000248273547753  -0.000008556664460 1
force Ag   0.000008183611623   0.000178592824471   0.000833161945125 1
force Ag  -0.000011224607128  -0.000165959559776  -0.001098041314443 1
force Ag  -0.000008913061581  -0.000462879979602   0.000224694615558 1

# Energy components:
   Eewald =    24833.1429791686168755
       EH =    29446.0902994902717182
     Eloc =   -60086.4014315932581667
      Enl =      134.0619638956842152
     EvdW =       -0.5350133171883874
      Exc =     -492.8065740222016871
 Exc_core =        7.0778059225372747
       KE =     1140.5042099901907022
-------------------------------------
     Etot =    -5018.8657604653471935
       TS =        0.0010936711604848
-------------------------------------
        F =    -5018.8668541365077544


Dumping 'jdft.fillings' ... done
Dumping 'jdft.wfns' ... done
Dumping 'jdft.ionpos' ... done
Dumping 'jdft.lattice' ... done
Dumping 'jdft.eigenvals' ... done
Dumping 'jdft.eigStats' ... 
	eMin: -3.135554 at state 22 ( [ +0.000000 +0.000000 +0.000000 ] spin -1 )
	HOMO: +0.249813 at state 39 ( [ -0.272727 +0.500000 +0.000000 ] spin -1 )
	mu  : +0.250030
	LUMO: +0.250093 at state 33 ( [ +0.454545 +0.500000 +0.000000 ] spin -1 )
	eMax: +0.595518 at state 41 ( [ -0.181818 +0.500000 +0.000000 ] spin -1 )
	HOMO-LUMO gap: +0.000281
	Optical gap  : +0.003019 at state 29 ( [ +0.272727 +0.500000 +0.000000 ] spin -1 )
Dumping 'jdft.Ecomponents' ... done
IonicMinimize: Iter:   2  F: -5018.866854136507754  |grad|_K:  4.547e-04  alpha:  9.422e-01  linmin: -7.644e-01  t[s]:  15895.70

#--- Lowdin population analysis ---
# oxidation-state Ag +0.005 -0.040 +0.085 +0.030 -0.004 +0.005 +0.001 +0.003 +0.005 +0.002 +0.004 -0.005 +0.001 +0.001 -0.002 +0.015 -0.019 -0.002 +0.001 -0.018 -0.005 +0.004 +0.002 +0.003 +0.001 +0.001 +0.005 -0.005 +0.029 +0.005 -0.041 +0.004 +0.016 +0.086
# magnetic-moments Ag +0.000 +0.000 -0.000 +0.000 +0.000 +0.000 -0.000 +0.000 +0.000 +0.000 +0.000 +0.000 +0.000 +0.000 +0.000 +0.000 +0.000 +0.000 +0.000 +0.000 +0.000 +0.000 +0.000 +0.000 +0.000 +0.000 +0.000 +0.000 +0.000 +0.000 +0.000 +0.000 +0.000 +0.000


Computing DFT-D3 correction:
# coordination-number Ag 6.675 9.066 5.458 6.807 9.013 9.178 9.206 9.054 9.179 9.188 9.187 9.030 9.192 9.199 8.974 6.741 7.503 8.974 9.200 7.507 9.031 9.184 9.183 9.050 9.206 9.196 9.181 9.018 6.805 9.176 9.065 6.667 6.745 5.458
# diagonal-C6 Ag 268.61 268.61 268.61 268.61 268.61 268.61 268.61 268.61 268.61 268.61 268.61 268.61 268.61 268.61 268.61 268.61 268.61 268.61 268.61 268.61 268.61 268.61 268.61 268.61 268.61 268.61 268.61 268.61 268.61 268.61 268.61 268.61 268.61 268.61
EvdW_6 =   -0.229533
EvdW_8 =   -0.304188

-------- Electronic minimization -----------
	FillingsUpdate:  mu: +0.403843537  nElectrons: 646.000000  magneticMoment: [ Abs: 0.00000  Tot: -0.00000 ]
ElecMinimize: Iter:   0  F: -5017.458814199239896  |grad|_K:  9.835e-05  alpha:  1.000e+00
[...]
ElecMinimize: Iter:  24  F: -5018.868021482070617  |grad|_K:  1.073e-08  alpha:  4.183e-01  linmin:  2.022e-05  t[s]:  37762.87
ElecMinimize: Converged (|Delta F|<1.000000e-07 for 2 iters).
Setting wave functions to eigenvectors of Hamiltonian
Converging empty states (this may take a while): |deigs|: 1.207e-07

Computing DFT-D3 correction:
# coordination-number Ag 6.715 9.011 5.447 6.787 8.954 9.069 9.089 8.957 9.063 9.057 9.069 8.971 9.088 9.102 8.945 6.732 7.475 8.939 9.098 7.466 8.969 9.062 9.058 8.961 9.089 9.087 9.075 8.957 6.785 9.068 9.013 6.710 6.738 5.453
# diagonal-C6 Ag 268.61 268.61 268.61 268.61 268.61 268.61 268.61 268.61 268.61 268.61 268.61 268.61 268.61 268.61 268.61 268.61 268.61 268.61 268.61 268.61 268.61 268.61 268.61 268.61 268.61 268.61 268.61 268.61 268.61 268.61 268.61 268.61 268.61 268.61
EvdW_6 =   -0.228177
EvdW_8 =   -0.302249

# Ionic positions in cartesian coordinates:
ion Ag  -0.002463483954989  13.101108608141500   1.226634230913122 1
ion Ag  -0.000943323456470  17.129537317504646   5.070531741241532 1
ion Ag   0.002300163392664   0.009261283253976  31.160067421968858 1
ion Ag  -0.002312583559087   3.967948121808696   3.030840900600237 1
ion Ag  -0.000702570882711   7.871876203365171   6.874011016723157 1
ion Ag  -0.000150399740704  11.803020435287491  10.651195660768360 1
ion Ag   0.000032104345835  19.738382604213243  18.144723920679962 1
ion Ag  -0.000474327846004  21.029783563208976   8.753091240407613 1
ion Ag  -0.000177169241995   2.604660809708844  12.503485430639781 1
ion Ag  -0.000063211954948   6.579801460306183  16.256410765391450 1
ion Ag   0.000197257691136  10.544854461717014  20.048715885728225 1
ion Ag   0.000415425793466  14.488317645228385  23.814548136874446 1
ion Ag   0.000029822201434  15.766347326361730  14.414190712008640 1
ion Ag   0.000192326161567   1.336511125445527  21.882218372788309 1
ion Ag   0.000646536215635   5.266141232627962  25.632333672802417 1
ion Ag   0.002087480679792   9.209985660150419  29.504424157243438 1
ion Ag   0.002283207932758  18.338615140981894  27.663834448520550 1
ion Ag   2.709610580543094  12.487885863814899   5.975595192451498 1
ion Ag   2.709974348839214  16.416315839099706   9.727049581752983 1
ion Ag   2.707992108428625  21.757451899471416   3.934986386484504 1
ion Ag   2.709782404800119   3.261058161256650   7.789294462044611 1
ion Ag   2.710016135101838   7.202575664785793  11.555875008290462 1
ion Ag   2.710243715490794  11.166184108157820  15.351858364645288 1
ion Ag   2.710676547842240  19.070612194511892  22.853088746717923 1
ion Ag   2.710142439339879  20.359350121930738  13.463449378299172 1
ion Ag   2.710141892847154   1.981884193551328  17.195721515564202 1
ion Ag   2.710384359790243   5.947678236802932  20.956171076731131 1
ion Ag   2.710949054937397   9.878436774188328  24.733277054975588 1
ion Ag   2.712649314241517  13.779518902030294  28.573956737948869 1
ion Ag   2.710392597673609  15.141515075667746  19.101706722379109 1
ion Ag   2.711155472786877   0.623813030581997  26.535256585982182 1
ion Ag   2.712615190191948   4.638494462911470  30.380060000882771 1
ion Ag   2.708158160190472   8.535793625217654   2.103321136672596 1
ion Ag   2.708009423177600  17.724947846707689   0.446196332877001 1

# Forces in Cartesian coordinates:
force Ag  -0.000003079186329   0.000098464027808  -0.000249883413779 1
force Ag  -0.000003606015170   0.000174147624047  -0.000153763737796 1
force Ag   0.000007625353254  -0.000088980289686   0.000102303537271 1
force Ag  -0.000000611887066   0.000044734243062  -0.000093503638588 1
force Ag  -0.000001273050523   0.000027301283319   0.000132642723275 1
force Ag  -0.000003673577985   0.000051059135231   0.000048246060365 1
force Ag   0.000001429220298  -0.000015430700954   0.000213402182382 1
force Ag  -0.000000548158490  -0.000159055561579   0.000063274360293 1
force Ag   0.000000397687816  -0.000013577508300  -0.000014702039542 1
force Ag   0.000000793521438   0.000005893344500  -0.000078340576459 1
force Ag   0.000002017468136  -0.000135879804171   0.000119097589116 1
force Ag   0.000005673433668  -0.000034631989514  -0.000077851489287 1
force Ag  -0.000000740158611   0.000030264819360  -0.000118350890857 1
force Ag   0.000002938972989  -0.000152330479064   0.000141129781944 1
force Ag   0.000005328290113   0.000108423725538  -0.000123504106661 1
force Ag   0.000003788547561   0.000135218760572   0.000131388802505 1
force Ag   0.000002242329664   0.000253460625245   0.000115578064219 1
force Ag  -0.000006276207789  -0.000110217355213   0.000172146752970 1
force Ag  -0.000002658504021   0.000133949586715  -0.000169447050768 1
force Ag  -0.000003557444748  -0.000163219964166  -0.000019399995234 1
force Ag  -0.000004810074018  -0.000065143277449   0.000099196781943 1
force Ag  -0.000001871760684   0.000135555400406   0.000097438856188 1
force Ag  -0.000000334571197  -0.000066187539809  -0.000063121899900 1
force Ag   0.000000580533819   0.000096324630763  -0.000104328747862 1
force Ag  -0.000001180670562   0.000051769604590  -0.000146262498995 1
force Ag   0.000000955125586   0.000020228939736   0.000030282384934 1
force Ag   0.000002825886066   0.000021125862163   0.000033038984299 1
force Ag   0.000001104946174   0.000084398033068  -0.000147284972939 1
force Ag  -0.000000999734355  -0.000143899249597   0.000155602581948 1
force Ag  -0.000000556808444   0.000072428038461   0.000173854338957 1
force Ag   0.000003139162843  -0.000226455585007   0.000290877541335 1
force Ag   0.000002767045421  -0.000076721464555   0.000276403731337 1
force Ag  -0.000003448742031  -0.000075332228918  -0.000067793167856 1
force Ag  -0.000010495523018   0.000045646492117  -0.000148291962602 1

# Energy components:
   Eewald =    24339.7874742971107480
       EH =    28952.9802939931105357
     Eloc =   -59099.8866522003518185
      Enl =      134.0884234344024435
     EvdW =       -0.5304262748145141
      Exc =     -492.7452170425617624
 Exc_core =        7.0778065573938465
       KE =     1140.3612031064267285
-------------------------------------
     Etot =    -5018.8670941292830321
       TS =        0.0009273527877232
-------------------------------------
        F =    -5018.8680214820706169


Dumping 'jdft.fillings' ... done
Dumping 'jdft.wfns' ... done
Dumping 'jdft.ionpos' ... done
Dumping 'jdft.lattice' ... done
Dumping 'jdft.eigenvals' ... done
Dumping 'jdft.eigStats' ... 
	eMin: -3.134809 at state 0 ( [ +0.000000 +0.000000 +0.000000 ] spin 1 )
	HOMO: +0.248634 at state 39 ( [ -0.272727 +0.500000 +0.000000 ] spin -1 )
	mu  : +0.249203
	LUMO: +0.249787 at state 13 ( [ -0.454545 +0.500000 +0.000000 ] spin 1 )
	eMax: +0.593763 at state 5 ( [ +0.181818 +0.500000 +0.000000 ] spin 1 )
	HOMO-LUMO gap: +0.001154
	Optical gap  : +0.003979 at state 39 ( [ -0.272727 +0.500000 +0.000000 ] spin -1 )
Dumping 'jdft.Ecomponents' ... done
IonicMinimize: Iter:   7  F: -5018.868021482070617  |grad|_K:  1.020e-04  alpha:  1.000e+00  linmin: -1.023e-02  t[s]:  38034.97

#--- Lowdin population analysis ---
# oxidation-state Ag +0.003 -0.039 +0.084 +0.028 -0.003 +0.005 +0.001 +0.003 +0.005 +0.002 +0.004 -0.004 -0.000 +0.000 -0.001 +0.014 -0.017 -0.001 +0.000 -0.017 -0.005 +0.004 +0.002 +0.003 +0.001 -0.000 +0.005 -0.003 +0.029 +0.005 -0.038 +0.003 +0.014 +0.084
# magnetic-moments Ag -0.000 +0.000 +0.000 +0.000 -0.000 -0.000 -0.000 -0.000 -0.000 -0.000 -0.000 +0.000 -0.000 +0.000 +0.000 +0.000 +0.000 -0.000 -0.000 +0.000 -0.000 -0.000 -0.000 +0.000 -0.000 -0.000 -0.000 +0.000 +0.000 -0.000 +0.000 -0.000 +0.000 -0.000


Computing DFT-D3 correction:
# coordination-number Ag 6.700 9.009 5.448 6.778 8.949 9.066 9.080 8.959 9.056 9.054 9.063 8.969 9.075 9.095 8.931 6.726 7.481 8.927 9.097 7.472 8.961 9.059 9.050 8.963 9.080 9.076 9.071 8.956 6.779 9.057 9.011 6.696 6.730 5.450
# diagonal-C6 Ag 268.61 268.61 268.61 268.61 268.61 268.61 268.61 268.61 268.61 268.61 268.61 268.61 268.61 268.61 268.61 268.61 268.61 268.61 268.61 268.61 268.61 268.61 268.61 268.61 268.61 268.61 268.61 268.61 268.61 268.61 268.61 268.61 268.61 268.61
EvdW_6 =   -0.228082
EvdW_8 =   -0.302108

-------- Electronic minimization -----------
	FillingsUpdate:  mu: +0.249172741  nElectrons: 646.000000  magneticMoment: [ Abs: 0.00000  Tot: -0.00000 ]
ElecMinimize: Iter:   0  F: -5018.867943327264584  |grad|_K:  2.805e-07  alpha:  1.000e+00
	FillingsUpdate:  mu: +0.249146831  nElectrons: 646.000000  magneticMoment: [ Abs: 0.00000  Tot: -0.00000 ]
	SubspaceRotationAdjust: set factor to 0.0875
ElecMinimize: Iter:   1  F: -5018.867956751024394  |grad|_K:  2.645e-07  alpha:  3.036e-01  linmin: -5.041e-06  t[s]:  38287.31
	FillingsUpdate:  mu: +0.249131899  nElectrons: 646.000000  magneticMoment: [ Abs: 0.00000  Tot: -0.00000 ]
	SubspaceRotationAdjust: set factor to 0.0975
ElecMinimize: Iter:   2  F: -5018.867971361160016  |grad|_K:  1.920e-07  alpha:  3.716e-01  linmin: -5.195e-07  t[s]:  38423.53
	FillingsUpdate:  mu: +0.249202371  nElectrons: 646.000000  magneticMoment: [ Abs: 0.00000  Tot: -0.00000 ]
	SubspaceRotationAdjust: set factor to 0.114
ElecMinimize: Iter:   3  F: -5018.867989521539130  |grad|_K:  2.475e-07  alpha:  8.773e-01  linmin: -7.437e-07  t[s]:  38560.40
	FillingsUpdate:  mu: +0.249113807  nElectrons: 646.000000  magneticMoment: [ Abs: 0.00000  Tot: -0.00000 ]
	SubspaceRotationAdjust: set factor to 0.109
ElecMinimize: Iter:   4  F: -5018.868006866921860  |grad|_K:  2.360e-07  alpha:  5.039e-01  linmin: -1.019e-08  t[s]:  38696.79
	FillingsUpdate:  mu: +0.249074568  nElectrons: 646.000000  magneticMoment: [ Abs: 0.00000  Tot: -0.00000 ]
	SubspaceRotationAdjust: set factor to 0.087
ElecMinimize: Iter:   5  F: -5018.868020525116663  |grad|_K:  1.858e-07  alpha:  4.367e-01  linmin:  3.831e-07  t[s]:  38833.10
	FillingsUpdate:  mu: +0.249187852  nElectrons: 646.000000  magneticMoment: [ Abs: 0.00000  Tot: -0.00000 ]
	SubspaceRotationAdjust: set factor to 0.078
ElecMinimize: Iter:   6  F: -5018.868027600095957  |grad|_K:  1.234e-07  alpha:  3.647e-01  linmin: -4.372e-07  t[s]:  38971.34
	FillingsUpdate:  mu: +0.249232987  nElectrons: 646.000000  magneticMoment: [ Abs: 0.00000  Tot: -0.00000 ]
	SubspaceRotationAdjust: set factor to 0.0881
ElecMinimize: Iter:   7  F: -5018.868030955378345  |grad|_K:  7.777e-08  alpha:  3.922e-01  linmin:  2.900e-06  t[s]:  39108.10
	FillingsUpdate:  mu: +0.249200241  nElectrons: 646.000000  magneticMoment: [ Abs: 0.00000  Tot: -0.00000 ]
	SubspaceRotationAdjust: set factor to 0.0827
ElecMinimize: Iter:   8  F: -5018.868032168948048  |grad|_K:  4.970e-08  alpha:  3.575e-01  linmin:  1.648e-06  t[s]:  39244.93
	FillingsUpdate:  mu: +0.249188959  nElectrons: 646.000000  magneticMoment: [ Abs: 0.00000  Tot: -0.00000 ]
	SubspaceRotationAdjust: set factor to 0.0846
ElecMinimize: Iter:   9  F: -5018.868032735265842  |grad|_K:  2.994e-08  alpha:  4.080e-01  linmin:  1.429e-06  t[s]:  39381.41
	FillingsUpdate:  mu: +0.249198767  nElectrons: 646.000000  magneticMoment: [ Abs: 0.00000  Tot: -0.00000 ]
	SubspaceRotationAdjust: set factor to 0.0965
ElecMinimize: Iter:  10  F: -5018.868032943336402  |grad|_K:  2.149e-08  alpha:  4.137e-01  linmin: -4.314e-06  t[s]:  39517.93
	FillingsUpdate:  mu: +0.249197472  nElectrons: 646.000000  magneticMoment: [ Abs: 0.00000  Tot: -0.00000 ]
	SubspaceRotationAdjust: set factor to 0.113
ElecMinimize: Iter:  11  F: -5018.868033043225296  |grad|_K:  1.587e-08  alpha:  3.868e-01  linmin:  6.935e-05  t[s]:  39654.62
	FillingsUpdate:  mu: +0.249191305  nElectrons: 646.000000  magneticMoment: [ Abs: 0.00000  Tot: -0.00000 ]
	SubspaceRotationAdjust: set factor to 0.136
ElecMinimize: Iter:  12  F: -5018.868033111931254  |grad|_K:  1.351e-08  alpha:  4.968e-01  linmin:  2.015e-04  t[s]:  39791.20
ElecMinimize: Converged (|Delta F|<1.000000e-07 for 2 iters).
Setting wave functions to eigenvectors of Hamiltonian
Converging empty states (this may take a while): |deigs|: 7.474e-09

Computing DFT-D3 correction:
# coordination-number Ag 6.700 9.009 5.448 6.778 8.949 9.066 9.080 8.959 9.056 9.054 9.063 8.969 9.075 9.095 8.931 6.726 7.481 8.927 9.097 7.472 8.961 9.059 9.050 8.963 9.080 9.076 9.071 8.956 6.779 9.057 9.011 6.696 6.730 5.450
# diagonal-C6 Ag 268.61 268.61 268.61 268.61 268.61 268.61 268.61 268.61 268.61 268.61 268.61 268.61 268.61 268.61 268.61 268.61 268.61 268.61 268.61 268.61 268.61 268.61 268.61 268.61 268.61 268.61 268.61 268.61 268.61 268.61 268.61 268.61 268.61 268.61
EvdW_6 =   -0.228082
EvdW_8 =   -0.302108

# Ionic positions in cartesian coordinates:
ion Ag  -0.002637671976094  13.104571322368191   1.217544596090226 1
ion Ag  -0.001090412067837  17.131119904886930   5.062518623645001 1
ion Ag   0.002591464004312   0.006050096594854  31.168571019342469 1
ion Ag  -0.002435436877127   3.966642308606379   3.025502456733135 1
ion Ag  -0.000802277677152   7.872246365922139   6.870917322749901 1
ion Ag  -0.000252818001027  11.805761523660925  10.649432373220225 1
ion Ag   0.000076995443331  19.738611733106318  18.147518600534930 1
ion Ag  -0.000527273172565  21.027172690231801   8.749771695343492 1
ion Ag  -0.000158970834299   2.605714680084666  12.500096512660221 1
ion Ag  -0.000037100528195   6.580659762470565  16.253774491464782 1
ion Ag   0.000265066048711  10.542996798486751  20.052172381421432 1
ion Ag   0.000553614961761  14.488429258307487  23.818533382111362 1
ion Ag   0.000008863024444  15.767154154680734  14.412415020760980 1
ion Ag   0.000287856107380   1.336047789173519  21.885775521550240 1
ion Ag   0.000855143808450   5.267278537428553  25.633292437954154 1
ion Ag   0.002206243470344   9.211462713692281  29.508735947536859 1
ion Ag   0.002407922636561  18.343412313730454  27.665416494696256 1
ion Ag   2.709375957337146  12.486631974611749   5.975230204662305 1
ion Ag   2.709892309922080  16.417346145698872   9.722346631397416 1
ion Ag   2.707848957160167  21.752935646349616   3.933695363430075 1
ion Ag   2.709668762970300   3.260284613564715   7.786270908099890 1
ion Ag   2.709960397474539   7.204035954612902  11.554267619950725 1
ion Ag   2.710234390774175  11.164459297478817  15.353256895680804 1
ion Ag   2.710732118293669  19.071465420388648  22.855727785819806 1
ion Ag   2.710112175887366  20.359348936316088  13.461024400132994 1
ion Ag   2.710179694024251   1.982521884120594  17.196340214456118 1
ion Ag   2.710478490424336   5.945981093249908  20.957982184438340 1
ion Ag   2.711064551972480   9.879854872847508  24.736634307487474 1
ion Ag   2.712753880416979  13.779384742107148  28.579274910407737 1
ion Ag   2.710381964503147  15.141684967069663  19.106436180824783 1
ion Ag   2.711304632579378   0.621235676181420  26.544632009974073 1
ion Ag   2.712775425432423   4.635409212673882  30.388281950472763 1
ion Ag   2.708055927298251   8.534652547592600   2.099198417919684 1
ion Ag   2.707660155158313  17.727104061703336   0.435533137029337 1

# Forces in Cartesian coordinates:
force Ag  -0.000003269234458  -0.000080688736986  -0.000053574628502 1
force Ag  -0.000005287503345  -0.000073360254447  -0.000155180224693 1
force Ag   0.000004513869988  -0.000017789973280   0.000154802970452 1
force Ag  -0.000001224892904   0.000018703121230  -0.000022712699600 1
force Ag  -0.000001624308577  -0.000051046340003   0.000063066673940 1
force Ag  -0.000003633860667  -0.000028059672247   0.000105946164406 1
force Ag   0.000000749232718  -0.000024733607880   0.000060540197482 1
force Ag  -0.000001402074415  -0.000004800444922   0.000073738847920 1
force Ag  -0.000000997260563  -0.000092354910456   0.000040216977961 1
force Ag   0.000000615702950  -0.000083178714531   0.000063525413834 1
force Ag   0.000001362450045  -0.000070688738501   0.000045218569086 1
force Ag   0.000003980187446   0.000003612551840   0.000004210266909 1
force Ag  -0.000001143488493  -0.000008531542744   0.000014615727535 1
force Ag   0.000002498365410  -0.000143138141213   0.000228809821693 1
force Ag   0.000002920708151   0.000024688946724   0.000120795441213 1
force Ag   0.000003771865522  -0.000050040753963   0.000119648423080 1
force Ag   0.000001083001457  -0.000096570449566   0.000155478286709 1
force Ag  -0.000003147276431  -0.000029403175615  -0.000160071085227 1
force Ag  -0.000002734795101   0.000098360641578  -0.000182735402022 1
force Ag  -0.000002257809099   0.000086745170229  -0.000112910520766 1
force Ag  -0.000003571982815  -0.000042127300454  -0.000011430827772 1
force Ag  -0.000001411482663   0.000123840612451  -0.000011282803324 1
force Ag  -0.000000103918961   0.000148865895835  -0.000077109017622 1
force Ag   0.000001620279150   0.000085531885027  -0.000063323117668 1
force Ag  -0.000000550795830   0.000099263779330  -0.000037689283284 1
force Ag   0.000001229270133  -0.000041024481517  -0.000016390116872 1
force Ag   0.000003084859291   0.000049342705227  -0.000015502145606 1
force Ag   0.000001370282781   0.000023240021839  -0.000080206614024 1
force Ag  -0.000000361523491  -0.000027182955589   0.000102164503000 1
force Ag   0.000001039395327   0.000023616022102  -0.000033536808551 1
force Ag   0.000004649608934   0.000059278017933   0.000063487226035 1
force Ag   0.000004285797178   0.000101655354042   0.000100034599002 1
force Ag  -0.000003809710984   0.000078993296109  -0.000039050595696 1
force Ag  -0.000006345986438   0.000013557961451  -0.000081253144520 1

# Energy components:
   Eewald =    24314.5581042920275650
       EH =    28927.7787561749719316
     Eloc =   -59049.4537501420636545
      Enl =      134.0902405252766698
     EvdW =       -0.5301903404952886
      Exc =     -492.7420132546577634
 Exc_core =        7.0778067581522874
       KE =     1140.3539321635880697
-------------------------------------
     Etot =    -5018.8671138232039084
       TS =        0.0009192887275628
-------------------------------------
        F =    -5018.8680331119312541


Dumping 'jdft.fillings' ... done
Dumping 'jdft.wfns' ... done
Dumping 'jdft.ionpos' ... done
Dumping 'jdft.lattice' ... done
Dumping 'jdft.eigenvals' ... done
Dumping 'jdft.eigStats' ... 
	eMin: -3.134781 at state 0 ( [ +0.000000 +0.000000 +0.000000 ] spin 1 )
	HOMO: +0.248651 at state 7 ( [ +0.272727 +0.500000 +0.000000 ] spin 1 )
	mu  : +0.249191
	LUMO: +0.249780 at state 13 ( [ -0.454545 +0.500000 +0.000000 ] spin 1 )
	eMax: +0.593699 at state 41 ( [ -0.181818 +0.500000 +0.000000 ] spin -1 )
	HOMO-LUMO gap: +0.001129
	Optical gap  : +0.003955 at state 7 ( [ +0.272727 +0.500000 +0.000000 ] spin 1 )
Dumping 'jdft.Ecomponents' ... done
IonicMinimize: Iter:   8  F: -5018.868033111931254  |grad|_K:  6.861e-05  alpha:  1.000e+00  linmin: -2.857e-01  t[s]:  39938.41
IonicMinimize: Converged (|grad|_K<1.000000e-04).

#--- Lowdin population analysis ---
# oxidation-state Ag +0.003 -0.039 +0.084 +0.029 -0.003 +0.005 +0.001 +0.003 +0.005 +0.001 +0.004 -0.004 +0.000 +0.000 -0.000 +0.014 -0.018 -0.000 +0.000 -0.017 -0.004 +0.004 +0.002 +0.003 +0.001 +0.000 +0.005 -0.003 +0.029 +0.005 -0.038 +0.004 +0.014 +0.084
# magnetic-moments Ag -0.000 +0.000 +0.000 +0.000 -0.000 +0.000 +0.000 -0.000 +0.000 -0.000 +0.000 -0.000 +0.000 +0.000 -0.000 -0.000 -0.000 -0.000 -0.000 -0.000 -0.000 -0.000 -0.000 +0.000 +0.000 +0.000 +0.000 -0.000 +0.000 +0.000 +0.000 -0.000 -0.000 -0.000


Dumping 'jdft.n_up' ... done
Dumping 'jdft.n_dn' ... done
Dumping 'jdft.tau_up' ... done
Dumping 'jdft.tau_dn' ... done
Dumping 'jdft.eigenvals' ... done
Dumping 'jdft.eigStats' ... 
	eMin: -3.134781 at state 0 ( [ +0.000000 +0.000000 +0.000000 ] spin 1 )
	HOMO: +0.248651 at state 7 ( [ +0.272727 +0.500000 +0.000000 ] spin 1 )
	mu  : +0.249191
	LUMO: +0.249780 at state 13 ( [ -0.454545 +0.500000 +0.000000 ] spin 1 )
	eMax: +0.593699 at state 41 ( [ -0.181818 +0.500000 +0.000000 ] spin -1 )
	HOMO-LUMO gap: +0.001129
	Optical gap  : +0.003955 at state 7 ( [ +0.272727 +0.500000 +0.000000 ] spin 1 )
Dumping 'jdft.kPts' ... done
Dumping 'jdft.dosUp' ... done.
Dumping 'jdft.dosDn' ... done.
End date and time: Tue Dec  7 04:06:02 2021  (Duration: 0-11:07:00.66)
Done!
