
*************** JDFTx 1.6.0  ***************

Start date and time: Sat Feb 26 18:44:31 2022
Executable /projects/musgravc/apps/jdftx-1.6.1/build/jdftx with command-line: -i in
Running on hosts (process indices):  shas0915.rc.int.colorado.edu (0-23)
Divided in process groups (process indices):  0 (0)  1 (1)  2 (2)  3 (3)  4 (4)  5 (5)  6 (6)  7 (7)  8 (8)  9 (9)  10 (10)  11 (11)  12 (12)  13 (13)  14 (14)  15 (15)  16 (16)  17 (17)  18 (18)  19 (19)  20 (20)  21 (21)  22 (22)  23 (23)
Resource initialization completed at t[s]:      0.00
Run totals: 24 processes, 24 threads, 0 GPUs


Input parsed successfully to the following command list (including defaults):

basis kpoint-dependent
converge-empty-states yes
coords-type Cartesian
core-overlap-check none
coulomb-interaction Periodic
davidson-band-ratio 1.1
density-of-states Etol 1.000000e-06 Esigma 1.000000e-03 \
		Complete \
	Total \
	OrthoOrbital Au 1   s \
	OrthoOrbital Au 1   p \
	OrthoOrbital Au 1   px \
	OrthoOrbital Au 1   py \
	OrthoOrbital Au 1   pz \
	OrthoOrbital Au 1   d \
	OrthoOrbital Au 1   dxy \
	OrthoOrbital Au 1   dyz \
	OrthoOrbital Au 1   dz2 \
	OrthoOrbital Au 1   dxz \
	OrthoOrbital Au 1   dx2-y2 \
	OrthoOrbital Au 2   s \
	OrthoOrbital Au 2   p \
	OrthoOrbital Au 2   px \
	OrthoOrbital Au 2   py \
	OrthoOrbital Au 2   pz \
	OrthoOrbital Au 2   d \
	OrthoOrbital Au 2   dxy \
	OrthoOrbital Au 2   dyz \
	OrthoOrbital Au 2   dz2 \
	OrthoOrbital Au 2   dxz \
	OrthoOrbital Au 2   dx2-y2 \
	OrthoOrbital Au 3   s \
	OrthoOrbital Au 3   p \
	OrthoOrbital Au 3   px \
	OrthoOrbital Au 3   py \
	OrthoOrbital Au 3   pz \
	OrthoOrbital Au 3   d \
	OrthoOrbital Au 3   dxy \
	OrthoOrbital Au 3   dyz \
	OrthoOrbital Au 3   dz2 \
	OrthoOrbital Au 3   dxz \
	OrthoOrbital Au 3   dx2-y2 \
	OrthoOrbital Au 4   s \
	OrthoOrbital Au 4   p \
	OrthoOrbital Au 4   px \
	OrthoOrbital Au 4   py \
	OrthoOrbital Au 4   pz \
	OrthoOrbital Au 4   d \
	OrthoOrbital Au 4   dxy \
	OrthoOrbital Au 4   dyz \
	OrthoOrbital Au 4   dz2 \
	OrthoOrbital Au 4   dxz \
	OrthoOrbital Au 4   dx2-y2 \
	OrthoOrbital Au 5   s \
	OrthoOrbital Au 5   p \
	OrthoOrbital Au 5   px \
	OrthoOrbital Au 5   py \
	OrthoOrbital Au 5   pz \
	OrthoOrbital Au 5   d \
	OrthoOrbital Au 5   dxy \
	OrthoOrbital Au 5   dyz \
	OrthoOrbital Au 5   dz2 \
	OrthoOrbital Au 5   dxz \
	OrthoOrbital Au 5   dx2-y2 \
	OrthoOrbital Au 6   s \
	OrthoOrbital Au 6   p \
	OrthoOrbital Au 6   px \
	OrthoOrbital Au 6   py \
	OrthoOrbital Au 6   pz \
	OrthoOrbital Au 6   d \
	OrthoOrbital Au 6   dxy \
	OrthoOrbital Au 6   dyz \
	OrthoOrbital Au 6   dz2 \
	OrthoOrbital Au 6   dxz \
	OrthoOrbital Au 6   dx2-y2 \
	OrthoOrbital Au 7   s \
	OrthoOrbital Au 7   p \
	OrthoOrbital Au 7   px \
	OrthoOrbital Au 7   py \
	OrthoOrbital Au 7   pz \
	OrthoOrbital Au 7   d \
	OrthoOrbital Au 7   dxy \
	OrthoOrbital Au 7   dyz \
	OrthoOrbital Au 7   dz2 \
	OrthoOrbital Au 7   dxz \
	OrthoOrbital Au 7   dx2-y2 \
	OrthoOrbital Au 8   s \
	OrthoOrbital Au 8   p \
	OrthoOrbital Au 8   px \
	OrthoOrbital Au 8   py \
	OrthoOrbital Au 8   pz \
	OrthoOrbital Au 8   d \
	OrthoOrbital Au 8   dxy \
	OrthoOrbital Au 8   dyz \
	OrthoOrbital Au 8   dz2 \
	OrthoOrbital Au 8   dxz \
	OrthoOrbital Au 8   dx2-y2 \
	OrthoOrbital Au 9   s \
	OrthoOrbital Au 9   p \
	OrthoOrbital Au 9   px \
	OrthoOrbital Au 9   py \
	OrthoOrbital Au 9   pz \
	OrthoOrbital Au 9   d \
	OrthoOrbital Au 9   dxy \
	OrthoOrbital Au 9   dyz \
	OrthoOrbital Au 9   dz2 \
	OrthoOrbital Au 9   dxz \
	OrthoOrbital Au 9   dx2-y2 \
	OrthoOrbital Au 10   s \
	OrthoOrbital Au 10   p \
	OrthoOrbital Au 10   px \
	OrthoOrbital Au 10   py \
	OrthoOrbital Au 10   pz \
	OrthoOrbital Au 10   d \
	OrthoOrbital Au 10   dxy \
	OrthoOrbital Au 10   dyz \
	OrthoOrbital Au 10   dz2 \
	OrthoOrbital Au 10   dxz \
	OrthoOrbital Au 10   dx2-y2 \
	OrthoOrbital Au 11   s \
	OrthoOrbital Au 11   p \
	OrthoOrbital Au 11   px \
	OrthoOrbital Au 11   py \
	OrthoOrbital Au 11   pz \
	OrthoOrbital Au 11   d \
	OrthoOrbital Au 11   dxy \
	OrthoOrbital Au 11   dyz \
	OrthoOrbital Au 11   dz2 \
	OrthoOrbital Au 11   dxz \
	OrthoOrbital Au 11   dx2-y2 \
	OrthoOrbital Au 12   s \
	OrthoOrbital Au 12   p \
	OrthoOrbital Au 12   px \
	OrthoOrbital Au 12   py \
	OrthoOrbital Au 12   pz \
	OrthoOrbital Au 12   d \
	OrthoOrbital Au 12   dxy \
	OrthoOrbital Au 12   dyz \
	OrthoOrbital Au 12   dz2 \
	OrthoOrbital Au 12   dxz \
	OrthoOrbital Au 12   dx2-y2 \
	OrthoOrbital Au 13   s \
	OrthoOrbital Au 13   p \
	OrthoOrbital Au 13   px \
	OrthoOrbital Au 13   py \
	OrthoOrbital Au 13   pz \
	OrthoOrbital Au 13   d \
	OrthoOrbital Au 13   dxy \
	OrthoOrbital Au 13   dyz \
	OrthoOrbital Au 13   dz2 \
	OrthoOrbital Au 13   dxz \
	OrthoOrbital Au 13   dx2-y2 \
	OrthoOrbital Au 14   s \
	OrthoOrbital Au 14   p \
	OrthoOrbital Au 14   px \
	OrthoOrbital Au 14   py \
	OrthoOrbital Au 14   pz \
	OrthoOrbital Au 14   d \
	OrthoOrbital Au 14   dxy \
	OrthoOrbital Au 14   dyz \
	OrthoOrbital Au 14   dz2 \
	OrthoOrbital Au 14   dxz \
	OrthoOrbital Au 14   dx2-y2 \
	OrthoOrbital Au 15   s \
	OrthoOrbital Au 15   p \
	OrthoOrbital Au 15   px \
	OrthoOrbital Au 15   py \
	OrthoOrbital Au 15   pz \
	OrthoOrbital Au 15   d \
	OrthoOrbital Au 15   dxy \
	OrthoOrbital Au 15   dyz \
	OrthoOrbital Au 15   dz2 \
	OrthoOrbital Au 15   dxz \
	OrthoOrbital Au 15   dx2-y2 \
	OrthoOrbital Au 16   s \
	OrthoOrbital Au 16   p \
	OrthoOrbital Au 16   px \
	OrthoOrbital Au 16   py \
	OrthoOrbital Au 16   pz \
	OrthoOrbital Au 16   d \
	OrthoOrbital Au 16   dxy \
	OrthoOrbital Au 16   dyz \
	OrthoOrbital Au 16   dz2 \
	OrthoOrbital Au 16   dxz \
	OrthoOrbital Au 16   dx2-y2 \
	OrthoOrbital Au 17   s \
	OrthoOrbital Au 17   p \
	OrthoOrbital Au 17   px \
	OrthoOrbital Au 17   py \
	OrthoOrbital Au 17   pz \
	OrthoOrbital Au 17   d \
	OrthoOrbital Au 17   dxy \
	OrthoOrbital Au 17   dyz \
	OrthoOrbital Au 17   dz2 \
	OrthoOrbital Au 17   dxz \
	OrthoOrbital Au 17   dx2-y2 \
	OrthoOrbital Au 18   s \
	OrthoOrbital Au 18   p \
	OrthoOrbital Au 18   px \
	OrthoOrbital Au 18   py \
	OrthoOrbital Au 18   pz \
	OrthoOrbital Au 18   d \
	OrthoOrbital Au 18   dxy \
	OrthoOrbital Au 18   dyz \
	OrthoOrbital Au 18   dz2 \
	OrthoOrbital Au 18   dxz \
	OrthoOrbital Au 18   dx2-y2 \
	OrthoOrbital Ni 1   s \
	OrthoOrbital Ni 1   p \
	OrthoOrbital Ni 1   px \
	OrthoOrbital Ni 1   py \
	OrthoOrbital Ni 1   pz \
	OrthoOrbital Ni 1   d \
	OrthoOrbital Ni 1   dxy \
	OrthoOrbital Ni 1   dyz \
	OrthoOrbital Ni 1   dz2 \
	OrthoOrbital Ni 1   dxz \
	OrthoOrbital Ni 1   dx2-y2 \
	OrthoOrbital Ni 2   s \
	OrthoOrbital Ni 2   p \
	OrthoOrbital Ni 2   px \
	OrthoOrbital Ni 2   py \
	OrthoOrbital Ni 2   pz \
	OrthoOrbital Ni 2   d \
	OrthoOrbital Ni 2   dxy \
	OrthoOrbital Ni 2   dyz \
	OrthoOrbital Ni 2   dz2 \
	OrthoOrbital Ni 2   dxz \
	OrthoOrbital Ni 2   dx2-y2 \
	OrthoOrbital Ni 3   s \
	OrthoOrbital Ni 3   p \
	OrthoOrbital Ni 3   px \
	OrthoOrbital Ni 3   py \
	OrthoOrbital Ni 3   pz \
	OrthoOrbital Ni 3   d \
	OrthoOrbital Ni 3   dxy \
	OrthoOrbital Ni 3   dyz \
	OrthoOrbital Ni 3   dz2 \
	OrthoOrbital Ni 3   dxz \
	OrthoOrbital Ni 3   dx2-y2 \
	OrthoOrbital Ni 4   s \
	OrthoOrbital Ni 4   p \
	OrthoOrbital Ni 4   px \
	OrthoOrbital Ni 4   py \
	OrthoOrbital Ni 4   pz \
	OrthoOrbital Ni 4   d \
	OrthoOrbital Ni 4   dxy \
	OrthoOrbital Ni 4   dyz \
	OrthoOrbital Ni 4   dz2 \
	OrthoOrbital Ni 4   dxz \
	OrthoOrbital Ni 4   dx2-y2 \
	OrthoOrbital Ni 5   s \
	OrthoOrbital Ni 5   p \
	OrthoOrbital Ni 5   px \
	OrthoOrbital Ni 5   py \
	OrthoOrbital Ni 5   pz \
	OrthoOrbital Ni 5   d \
	OrthoOrbital Ni 5   dxy \
	OrthoOrbital Ni 5   dyz \
	OrthoOrbital Ni 5   dz2 \
	OrthoOrbital Ni 5   dxz \
	OrthoOrbital Ni 5   dx2-y2 \
	OrthoOrbital Ni 6   s \
	OrthoOrbital Ni 6   p \
	OrthoOrbital Ni 6   px \
	OrthoOrbital Ni 6   py \
	OrthoOrbital Ni 6   pz \
	OrthoOrbital Ni 6   d \
	OrthoOrbital Ni 6   dxy \
	OrthoOrbital Ni 6   dyz \
	OrthoOrbital Ni 6   dz2 \
	OrthoOrbital Ni 6   dxz \
	OrthoOrbital Ni 6   dx2-y2
dump End ElecDensity KEdensity BandEigs EigStats RhoAtom DOS Kpoints
dump Ionic State IonicPositions Lattice EigStats Ecomponents
dump 
dump 
dump 
dump 
dump 
dump 
dump 
dump 
dump-name jdft.$VAR
elec-cutoff 20
elec-eigen-algo Davidson
elec-ex-corr gga-PBE
elec-initial-magnetization 0.000000 no
elec-n-bands 184
elec-smearing Fermi 0.001
electronic-minimize  \
	dirUpdateScheme      FletcherReeves \
	linminMethod         DirUpdateRecommended \
	nIterations          100 \
	history              15 \
	knormThreshold       0 \
	energyDiffThreshold  1e-07 \
	nEnergyDiff          2 \
	alphaTstart          1 \
	alphaTmin            1e-10 \
	updateTestStepSize   yes \
	alphaTreduceFactor   0.1 \
	alphaTincreaseFactor 3 \
	nAlphaAdjustMax      3 \
	wolfeEnergy          0.0001 \
	wolfeGradient        0.9 \
	fdTest               no
exchange-regularization WignerSeitzTruncated
fluid LinearPCM 298.000000 1.013250
fluid-anion F- 0.5 MeanFieldLJ \
	epsBulk 1 \
	pMol 0 \
	epsInf 1 \
	Pvap 0 \
	sigmaBulk 0 \
	Rvdw 2.24877 \
	Res 0 \
	tauNuc 343133
fluid-cation Na+ 0.5 MeanFieldLJ \
	epsBulk 1 \
	pMol 0 \
	epsInf 1 \
	Pvap 0 \
	sigmaBulk 0 \
	Rvdw 2.19208 \
	Res 0 \
	tauNuc 343133
fluid-ex-corr lda-TF lda-PZ
fluid-gummel-loop 10 1.000000e-05
fluid-minimize  \
	dirUpdateScheme      PolakRibiere \
	linminMethod         DirUpdateRecommended \
	nIterations          400 \
	history              15 \
	knormThreshold       1e-11 \
	energyDiffThreshold  0 \
	nEnergyDiff          2 \
	alphaTstart          1 \
	alphaTmin            1e-10 \
	updateTestStepSize   yes \
	alphaTreduceFactor   0.1 \
	alphaTincreaseFactor 3 \
	nAlphaAdjustMax      6 \
	wolfeEnergy          0.0001 \
	wolfeGradient        0.9 \
	fdTest               no
fluid-solvent H2O 55.338 ScalarEOS \
	epsBulk 78.4 \
	pMol 0.92466 \
	epsInf 1.77 \
	Pvap 1.06736e-10 \
	sigmaBulk 4.62e-05 \
	Rvdw 2.61727 \
	Res 1.42 \
	tauNuc 343133 \
	poleEl 15 7 1
forces-output-coords Positions
ion Au   7.912049999999999   0.000000000000000   3.806662000000000 1
ion Au   2.637350000000000   4.306769999999999   6.852036000000000 1
ion Au   7.912049999999999   8.613553999999999   9.897410000000001 1
ion Au   2.637350000000000   0.000000000000000  12.942729000000000 1
ion Au   7.912049999999999   4.306769999999999  15.988103000000001 1
ion Au   2.637350000000000   8.613553999999999   0.761343000000000 1
ion Au   0.000000000000000   4.306769999999999   2.284030000000000 1
ion Au   5.274699999999999   8.613553999999999   5.329349000000000 1
ion Au   0.000000000000000   0.000000000000000   8.374722999999999 1
ion Au   5.274699999999999   4.306769999999999  11.420042000000000 1
ion Au   0.000000000000000   8.613553999999999  14.465415999999998 1
ion Au   5.274699999999999   0.000000000000000  17.510735000000000 1
ion Au   2.637350000000000  12.920323999999999   3.806662000000000 1
ion Au   7.912049999999999   4.306769999999999   6.852036000000000 1
ion Au   2.637350000000000   8.613553999999999   9.897410000000001 1
ion Au   7.912049999999999   0.000000000000000  12.942729000000000 1
ion Au   2.637350000000000   4.306769999999999  15.988103000000001 1
ion Au   7.912049999999999   8.613553999999999   0.761343000000000 1
ion Ni   0.000000000000000   0.000000000000000  17.510735000000000 1
ion Ni   5.274699999999999   4.306769999999999   2.284030000000000 1
ion Ni   0.000000000000000   8.613553999999999   5.329349000000000 1
ion Ni   5.274699999999999   0.000000000000000   8.374722999999999 1
ion Ni  10.549399999999999   4.306769999999999  11.420042000000000 1
ion Ni   5.274699999999999   8.613553999999999  14.465415999999998 1
ion-species /projects/musgravc/apps/jdftx-1.6.0/build/pseudopotentials/GBRV_v1.5/$ID_pbe_v1.uspp
ion-species /projects/musgravc/apps/jdftx-1.6.0/build/pseudopotentials/GBRV_v1.5/$ID_pbe_v1.2.uspp
ion-species /projects/musgravc/apps/jdftx-1.6.0/build/pseudopotentials/GBRV_v1.5/$ID_pbe_v1.4.uspp
ion-species /projects/musgravc/apps/jdftx-1.6.0/build/pseudopotentials/GBRV_v1.5/$ID_pbe_v1.5.uspp
ion-width Ecut
ionic-minimize  \
	dirUpdateScheme      L-BFGS \
	linminMethod         DirUpdateRecommended \
	nIterations          100 \
	history              15 \
	knormThreshold       0.0001 \
	energyDiffThreshold  1e-06 \
	nEnergyDiff          2 \
	alphaTstart          1 \
	alphaTmin            1e-10 \
	updateTestStepSize   yes \
	alphaTreduceFactor   0.1 \
	alphaTincreaseFactor 3 \
	nAlphaAdjustMax      3 \
	wolfeEnergy          0.0001 \
	wolfeGradient        0.9 \
	fdTest               no
kpoint   0.000000000000   0.000000000000   0.000000000000  1.00000000000000
kpoint-folding 6 5 1 
latt-move-scale 0 0 0
latt-scale 1 1 1 
lattice  \
	  10.549400000000000    0.000000000000000    0.000000000000000  \
	   0.000000000000000   12.920324000000001    0.000000000000000  \
	   0.000000000000000    0.000000000000000   54.816288999999998 
lattice-minimize  \
	dirUpdateScheme      L-BFGS \
	linminMethod         DirUpdateRecommended \
	nIterations          0 \
	history              15 \
	knormThreshold       0 \
	energyDiffThreshold  1e-06 \
	nEnergyDiff          2 \
	alphaTstart          1 \
	alphaTmin            1e-10 \
	updateTestStepSize   yes \
	alphaTreduceFactor   0.1 \
	alphaTincreaseFactor 3 \
	nAlphaAdjustMax      3 \
	wolfeEnergy          0.0001 \
	wolfeGradient        0.9 \
	fdTest               no
lcao-params 30 1e-06 0.001
pcm-variant CANDLE
spintype z-spin
subspace-rotation-factor 1 yes
symmetries automatic
symmetry-threshold 0.0001
target-mu -0.0978 no

van-der-waals D3



---------- Setting up symmetries ----------

Found 8 point-group symmetries of the bravais lattice
Found 2 space-group symmetries with basis
Applied RMS atom displacement 2.96049e-16 bohrs to make symmetries exact.

---------- Initializing the Grid ----------
R = 
[      10.5494            0            0  ]
[            0      12.9203            0  ]
[            0            0      54.8163  ]
unit cell volume = 7471.55
G =
[   0.595596          0          0  ]
[          0   0.486302          0  ]
[          0          0   0.114623  ]
Minimum fftbox size, Smin = [  44  56  224  ]
Chosen fftbox size, S = [  48  56  224  ]

---------- Exchange Correlation functional ----------
Initalized PBE GGA exchange.
Initalized PBE GGA correlation.

---------- Setting up pseudopotentials ----------
Width of ionic core gaussian charges (only for fluid interactions / plotting) set to 0.397384

Reading pseudopotential file '/projects/musgravc/apps/jdftx-1.6.0/build/pseudopotentials/GBRV_v1.5/au_pbe_v1.uspp':
  Title: Au.  Created by USPP 7.3.6 on 14-9-2013
  Reference state energy: -57.375295.  11 valence electrons in orbitals:
    |520>  occupation: 10  eigenvalue: -0.252742
    |600>  occupation: 1  eigenvalue: -0.211744
    |610>  occupation: 0  eigenvalue: -0.028291
  lMax: 3  lLocal: -1  QijEcut: 5
  7 projectors sampled on a log grid with 755 points:
    l: 0  eig: -0.211744  rCut: 2.3
    l: 0  eig: 0.500000  rCut: 2.3
    l: 1  eig: -0.028291  rCut: 2.35
    l: 1  eig: 0.850000  rCut: 2.35
    l: 2  eig: -0.252741  rCut: 2.1
    l: 2  eig: 1.000000  rCut: 2.1
    l: 3  eig: 0.000000  rCut: 2.5
  Partial core density with radius 1
  Transforming core density to a uniform radial grid of dG=0.02 with 1183 points.
  Transforming local potential to a uniform radial grid of dG=0.02 with 1183 points.
  Transforming nonlocal projectors to a uniform radial grid of dG=0.02 with 432 points.
  Transforming density augmentations to a uniform radial grid of dG=0.02 with 1183 points.
  Transforming atomic orbitals to a uniform radial grid of dG=0.02 with 432 points.
  Core radius for overlap checks: 2.50 bohrs.

Reading pseudopotential file '/projects/musgravc/apps/jdftx-1.6.0/build/pseudopotentials/GBRV_v1.5/ni_pbe_v1.4.uspp':
  Title: Ni.  Created by USPP 7.3.6 on 1-4-15
  Reference state energy: -170.398381.  18 valence electrons in orbitals:
    |300>  occupation: 2  eigenvalue: -4.804705
    |310>  occupation: 6  eigenvalue: -3.347751
    |320>  occupation: 8  eigenvalue: -1.042415
    |400>  occupation: 0  eigenvalue: -0.795539
    |410>  occupation: 0  eigenvalue: -0.551375
  lMax: 2  lLocal: 3  QijEcut: 6.5
  6 projectors sampled on a log grid with 611 points:
    l: 0  eig: -4.804708  rCut: 1.44
    l: 0  eig: -0.795541  rCut: 1.44
    l: 1  eig: -3.347753  rCut: 1.55
    l: 1  eig: 0.500000  rCut: 1.55
    l: 2  eig: -1.042418  rCut: 1.5
    l: 2  eig: -0.450000  rCut: 1.5
  Partial core density with radius 0.65
  Transforming core density to a uniform radial grid of dG=0.02 with 1183 points.
  Transforming local potential to a uniform radial grid of dG=0.02 with 1183 points.
  Transforming nonlocal projectors to a uniform radial grid of dG=0.02 with 432 points.
  Transforming density augmentations to a uniform radial grid of dG=0.02 with 1183 points.
  Transforming atomic orbitals to a uniform radial grid of dG=0.02 with 432 points.
  Core radius for overlap checks: 1.55 bohrs.

Initialized 2 species with 24 total atoms.

Folded 1 k-points by 6x5x1 to 30 k-points.

---------- Setting up k-points, bands, fillings ----------
Adding inversion symmetry to k-mesh for non-inversion-symmetric unit cell.
Reduced to 12 k-points under symmetry. 
Computing the number of bands and number of electrons
Calculating initial fillings.
nElectrons: 306.000000   nBands: 184   nStates: 24

----- Setting up reduced wavefunction bases (one per k-point) -----
average nbasis = 31918.100 , ideal nbasis = 31919.037

----- Initializing Supercell corresponding to k-point mesh -----
Lattice vector linear combinations in supercell:
[   6   0   0  ]
[   0   5   0  ]
[   0   0   1  ]
Supercell lattice vectors:
[  63.2964  0  0  ]
[  0  64.6016  0  ]
[  0  0  54.8163  ]

Initializing DFT-D3 calculator:
	Parameters set for gga-PBE functional
	s6:  1.000  s_r6:  1.217
	s8:  0.722  s_r8:  1.000
	Per-atom parameters loaded for:
	Au:  sqrtQ[a0]:  5.707  Rcov[a0]:  2.135  CN: [ 0.00 0.98 ]
	Ni:  sqrtQ[a0]:  5.285  Rcov[a0]:  1.871  CN: [ 0.00 1.79 6.55 6.29 ]

Initializing DFT-D2 calculator for fluid / solvation:
	Au:  C6:  815.23 Eh-a0^6  R0: 3.326 a0 (WARNING: beyond Grimme's data set)
	Ni:  C6:  187.33 Eh-a0^6  R0: 2.952 a0

---------- Setting up ewald sum ----------
Optimum gaussian width for ewald sums = 4.592105 bohr.
Real space sum over 715 unit cells with max indices [  6  5  2  ]
Reciprocal space sum over 5863 terms with max indices [  5  6  20  ]

Computing DFT-D3 correction:
# coordination-number Au 7.282 8.646 8.650 8.618 6.452 5.112 6.454 8.620 8.651 8.646 7.052 4.882 7.282 8.646 8.650 8.618 6.452 5.112
# coordination-number Ni 3.893 5.000 6.666 6.677 6.674 5.562
# diagonal-C6 Au 317.16 317.16 317.16 317.16 317.16 317.16 317.16 317.16 317.16 317.16 317.16 317.16 317.16 317.16 317.16 317.16 317.16 317.16
# diagonal-C6 Ni 178.15 141.14 133.51 133.45 133.46 139.81
EvdW_6 =   -0.167003
EvdW_8 =   -0.299070

---------- Allocating electronic variables ----------
Initializing wave functions:  linear combination of atomic orbitals
Au pseudo-atom occupations:   s ( 1 )  p ( 0 )  d ( 10 )
Ni pseudo-atom occupations:   s ( 2 0 )  p ( 6 0 )  d ( 10 )
	FillingsUpdate:  mu: -0.097800000  nElectrons: 306.000000  magneticMoment: [ Abs: 0.01032  Tot: -0.00076 ]
LCAOMinimize: Iter:   0  G: -1448.2823760682565535  |grad|_K:  2.091e-02  alpha:  1.000e+00
LCAOMinimize: 	Step increased G by 3.380902e+02, reducing alpha to 2.073067e-02.
	FillingsUpdate:  mu: -0.097800000  nElectrons: 306.000000  magneticMoment: [ Abs: 0.00696  Tot: +0.00119 ]
LCAOMinimize: Iter:   1  G: -1460.2207041907206531  |grad|_K:  1.781e-02  alpha:  2.073e-02  linmin: -9.938e-02  cgtest:  8.964e-01  t[s]:     74.61
LCAOMinimize: Encountered beta<0, resetting CG.
LCAOMinimize: 	Wrong curvature in test step, increasing alphaT to 6.219201e-02.
	FillingsUpdate:  mu: -0.097800000  nElectrons: 306.000000  magneticMoment: [ Abs: 0.00610  Tot: -0.00226 ]
LCAOMinimize: Iter:   2  G: -1469.5105663956103399  |grad|_K:  1.696e-02  alpha: -8.011e-01  linmin: -1.131e-01  cgtest:  8.849e-01  t[s]:     97.65
LCAOMinimize: 	Step increased G by 9.168463e+01, reducing alpha to 2.890550e-02.
	FillingsUpdate:  mu: -0.097800000  nElectrons: 306.000000  magneticMoment: [ Abs: 0.00628  Tot: -0.00111 ]
LCAOMinimize: Iter:   3  G: -1484.7803450798517133  |grad|_K:  2.041e-02  alpha:  2.891e-02  linmin: -1.462e-01  cgtest:  6.908e-01  t[s]:    138.34
LCAOMinimize: 	Wrong curvature in test step, increasing alphaT to 8.671651e-02.
	FillingsUpdate:  mu: -0.097800000  nElectrons: 306.000000  magneticMoment: [ Abs: 0.00645  Tot: +0.00013 ]
LCAOMinimize: Iter:   4  G: -1555.2528851213271537  |grad|_K:  3.438e-02  alpha: -1.026e-02  linmin: -1.237e-01  cgtest:  2.478e-01  t[s]:    161.55
LCAOMinimize: 	Step increased G by 3.827730e+02, reducing alpha to 4.771763e-02.
LCAOMinimize: 	Step increased G by 3.505234e+01, reducing alpha to 4.771763e-03.
	FillingsUpdate:  mu: -0.097800000  nElectrons: 306.000000  magneticMoment: [ Abs: 0.00945  Tot: -0.00735 ]
LCAOMinimize: Iter:   5  G: -1587.4662333778496759  |grad|_K:  4.806e-02  alpha:  4.772e-03  linmin: -4.005e-02  cgtest:  4.195e-01  t[s]:    220.25
	FillingsUpdate:  mu: -0.097800000  nElectrons: 306.000000  magneticMoment: [ Abs: 0.00283  Tot: -0.00020 ]
LCAOMinimize: Iter:   6  G: -1595.1129944318947764  |grad|_K:  4.502e-02  alpha:  2.514e-03  linmin:  3.006e-02  cgtest:  5.622e-01  t[s]:    244.13
LCAOMinimize: 	Wrong curvature in test step, increasing alphaT to 7.543022e-03.
	FillingsUpdate:  mu: -0.097800000  nElectrons: 306.000000  magneticMoment: [ Abs: 0.00264  Tot: -0.00016 ]
LCAOMinimize: Iter:   7  G: -1599.0367502239532769  |grad|_K:  4.033e-02  alpha: -3.596e-03  linmin: -2.951e-02  cgtest:  9.630e-01  t[s]:    267.15
LCAOMinimize: Encountered beta<0, resetting CG.
LCAOMinimize: 	Step increased G by 7.836097e+02, reducing alpha to 3.137190e-02.
	FillingsUpdate:  mu: -0.097800000  nElectrons: 306.000000  magneticMoment: [ Abs: 0.00396  Tot: -0.00157 ]
LCAOMinimize: Iter:   8  G: -1603.7295336984475398  |grad|_K:  4.250e-02  alpha:  3.137e-02  linmin:  4.759e-02  cgtest: -6.093e-01  t[s]:    307.86
	FillingsUpdate:  mu: -0.097800000  nElectrons: 306.000000  magneticMoment: [ Abs: 0.00398  Tot: -0.00160 ]
LCAOMinimize: Iter:   9  G: -1604.9373399566620719  |grad|_K:  3.925e-02  alpha:  3.563e-03  linmin: -5.232e-03  cgtest:  9.805e-01  t[s]:    331.55
LCAOMinimize: Encountered beta<0, resetting CG.
LCAOMinimize: 	Predicted alpha/alphaT>3.000000, increasing alphaT to 1.068851e-02.
	FillingsUpdate:  mu: -0.097800000  nElectrons: 306.000000  magneticMoment: [ Abs: 0.00318  Tot: -0.00064 ]
LCAOMinimize: Iter:  10  G: -1618.6204660097421311  |grad|_K:  1.099e-02  alpha:  1.278e-02  linmin: -1.325e-03  cgtest: -1.526e-01  t[s]:    361.93
	FillingsUpdate:  mu: -0.097800000  nElectrons: 306.000000  magneticMoment: [ Abs: 0.00296  Tot: +0.00018 ]
LCAOMinimize: Iter:  11  G: -1619.9947006955060260  |grad|_K:  7.660e-03  alpha:  1.949e-02  linmin:  5.989e-02  cgtest: -5.273e-02  t[s]:    385.68
	FillingsUpdate:  mu: -0.097800000  nElectrons: 306.000000  magneticMoment: [ Abs: 0.00297  Tot: -0.00005 ]
LCAOMinimize: Iter:  12  G: -1620.2957669927500319  |grad|_K:  7.732e-03  alpha:  1.219e-02  linmin: -1.586e-03  cgtest:  6.806e-01  t[s]:    409.63
	FillingsUpdate:  mu: -0.097800000  nElectrons: 306.000000  magneticMoment: [ Abs: 0.00321  Tot: -0.00029 ]
LCAOMinimize: Iter:  13  G: -1620.5945844910945652  |grad|_K:  3.666e-03  alpha:  6.689e-03  linmin:  5.385e-03  cgtest:  2.259e-01  t[s]:    433.60
LCAOMinimize: 	Predicted alpha/alphaT>3.000000, increasing alphaT to 2.006677e-02.
	FillingsUpdate:  mu: -0.097800000  nElectrons: 306.000000  magneticMoment: [ Abs: 0.00312  Tot: +0.00019 ]
LCAOMinimize: Iter:  14  G: -1620.8090791345280195  |grad|_K:  1.921e-03  alpha:  2.370e-02  linmin:  3.556e-02  cgtest: -3.198e-01  t[s]:    464.34
	FillingsUpdate:  mu: -0.097800000  nElectrons: 306.000000  magneticMoment: [ Abs: 0.00330  Tot: -0.00009 ]
LCAOMinimize: Iter:  15  G: -1620.8787070991782002  |grad|_K:  2.229e-03  alpha:  3.407e-02  linmin:  7.543e-03  cgtest:  5.050e-01  t[s]:    489.22
	FillingsUpdate:  mu: -0.097800000  nElectrons: 306.000000  magneticMoment: [ Abs: 0.00342  Tot: -0.00034 ]
LCAOMinimize: Iter:  16  G: -1620.9453398442710750  |grad|_K:  1.544e-03  alpha:  1.982e-02  linmin: -1.173e-03  cgtest:  1.836e-01  t[s]:    512.88
	FillingsUpdate:  mu: -0.097800000  nElectrons: 306.000000  magneticMoment: [ Abs: 0.00322  Tot: +0.00002 ]
LCAOMinimize: Iter:  17  G: -1620.9863293693344986  |grad|_K:  1.640e-03  alpha:  2.419e-02  linmin: -4.739e-03  cgtest: -3.582e-02  t[s]:    536.50
	FillingsUpdate:  mu: -0.097800000  nElectrons: 306.000000  magneticMoment: [ Abs: 0.00313  Tot: +0.00000 ]
LCAOMinimize: Iter:  18  G: -1621.0233063165019303  |grad|_K:  1.626e-03  alpha:  1.927e-02  linmin: -2.086e-03  cgtest: -8.501e-02  t[s]:    560.23
	FillingsUpdate:  mu: -0.097800000  nElectrons: 306.000000  magneticMoment: [ Abs: 0.00305  Tot: -0.00015 ]
LCAOMinimize: Iter:  19  G: -1621.0952080477616164  |grad|_K:  1.052e-03  alpha:  3.632e-02  linmin: -8.019e-03  cgtest:  2.322e-01  t[s]:    583.97
	FillingsUpdate:  mu: -0.097800000  nElectrons: 306.000000  magneticMoment: [ Abs: 0.00303  Tot: -0.00015 ]
LCAOMinimize: Iter:  20  G: -1621.1152952643301433  |grad|_K:  1.280e-03  alpha:  2.332e-02  linmin: -8.404e-04  cgtest:  1.479e-02  t[s]:    607.85
	FillingsUpdate:  mu: -0.097800000  nElectrons: 306.000000  magneticMoment: [ Abs: 0.00321  Tot: -0.00039 ]
LCAOMinimize: Iter:  21  G: -1621.1404942499325443  |grad|_K:  8.561e-04  alpha:  2.174e-02  linmin:  2.039e-03  cgtest:  3.394e-02  t[s]:    631.78
	FillingsUpdate:  mu: -0.097800000  nElectrons: 306.000000  magneticMoment: [ Abs: 0.00325  Tot: -0.00032 ]
LCAOMinimize: Iter:  22  G: -1621.1564184948317688  |grad|_K:  5.673e-04  alpha:  3.232e-02  linmin:  6.544e-03  cgtest: -9.096e-02  t[s]:    655.75
	FillingsUpdate:  mu: -0.097800000  nElectrons: 306.000000  magneticMoment: [ Abs: 0.00328  Tot: -0.00037 ]
LCAOMinimize: Iter:  23  G: -1621.1606146124527186  |grad|_K:  5.436e-04  alpha:  1.990e-02  linmin: -1.730e-04  cgtest:  1.138e-01  t[s]:    679.69
	FillingsUpdate:  mu: -0.097800000  nElectrons: 306.000000  magneticMoment: [ Abs: 0.00339  Tot: -0.00056 ]
LCAOMinimize: Iter:  24  G: -1621.1644402051515499  |grad|_K:  5.036e-04  alpha:  1.853e-02  linmin:  1.455e-04  cgtest: -4.947e-02  t[s]:    703.57
	FillingsUpdate:  mu: -0.097800000  nElectrons: 306.000000  magneticMoment: [ Abs: 0.00340  Tot: -0.00056 ]
LCAOMinimize: Iter:  25  G: -1621.1697245587849920  |grad|_K:  2.879e-04  alpha:  3.004e-02  linmin:  1.003e-03  cgtest: -3.044e-02  t[s]:    727.36
	FillingsUpdate:  mu: -0.097800000  nElectrons: 306.000000  magneticMoment: [ Abs: 0.00345  Tot: -0.00062 ]
LCAOMinimize: Iter:  26  G: -1621.1711896352719577  |grad|_K:  2.072e-04  alpha:  2.564e-02  linmin: -3.831e-04  cgtest:  1.237e-02  t[s]:    751.25
	FillingsUpdate:  mu: -0.097800000  nElectrons: 306.000000  magneticMoment: [ Abs: 0.00358  Tot: -0.00076 ]
LCAOMinimize: Iter:  27  G: -1621.1722318040360733  |grad|_K:  2.305e-04  alpha:  3.438e-02  linmin: -2.725e-03  cgtest:  2.792e-02  t[s]:    775.49
	FillingsUpdate:  mu: -0.097800000  nElectrons: 306.000000  magneticMoment: [ Abs: 0.00374  Tot: -0.00090 ]
LCAOMinimize: Iter:  28  G: -1621.1730353434350036  |grad|_K:  2.096e-04  alpha:  2.105e-02  linmin: -6.860e-04  cgtest: -4.522e-02  t[s]:    799.78
	FillingsUpdate:  mu: -0.097800000  nElectrons: 306.000000  magneticMoment: [ Abs: 0.00381  Tot: -0.00093 ]
LCAOMinimize: Iter:  29  G: -1621.1734810268490037  |grad|_K:  8.738e-05  alpha:  1.441e-02  linmin: -1.726e-04  cgtest:  1.952e-02  t[s]:    823.66
	FillingsUpdate:  mu: -0.097800000  nElectrons: 306.000000  magneticMoment: [ Abs: 0.00393  Tot: -0.00105 ]
LCAOMinimize: Iter:  30  G: -1621.1736948575439783  |grad|_K:  9.810e-05  alpha:  4.224e-02  linmin:  5.942e-03  cgtest: -6.648e-02  t[s]:    847.56
LCAOMinimize: None of the convergence criteria satisfied after 30 iterations.
----- createFluidSolver() ----- (Fluid-side solver setup)
   Initializing fluid molecule 'H2O'
     Initializing site 'O'
       Electron density: proportional to exp(-r/0.36935)*erfc((r-0.51523)/0.36823) with norm 6.826
       Charge density: gaussian nuclear width 0.478731 with net site charge 0.826
       Polarizability: cuspless exponential with width 0.32 and norm 3.73
       Hard sphere radius: 2.57003 bohrs
       Positions in reference frame:
         [ +0.000000 +0.000000 +0.000000 ]
     Initializing site 'H'
       Electron density: proportional to exp(-r/0.34641)*erfc((r-0)/0.390882) with norm 0.587
       Charge density: gaussian nuclear width 0.377945 with net site charge -0.413
       Polarizability: cuspless exponential with width 0.39 and norm 3.3
       Positions in reference frame:
         [ +0.000000 -1.441945 +1.122523 ]
         [ +0.000000 +1.441945 +1.122523 ]
     Net charge: 0   dipole magnitude: 0.927204
     Initializing spherical shell mfKernel with radius 2.61727 Bohr
     deltaS corrections:
       site 'O': -7.54299
       site 'H': -6.83917
   Initializing fluid molecule 'Na+'
     Initializing site 'Na'
       Electron density: proportional to exp(-r/0.19682)*erfc((r-0.71491)/0.41314) with norm 8.1383
       Charge density: gaussian nuclear width 0.365347 with net site charge -1
       Hard sphere radius: 1.86327 bohrs
       Positions in reference frame:
         [ +0.000000 +0.000000 +0.000000 ]
     Net charge: -1   dipole magnitude: 0
     Initializing gaussian mfKernel with width: 1.55004 Bohr
     deltaS corrections:
       site 'Na': -22.3555
   Initializing fluid molecule 'F-'
     Initializing site 'F'
       Electron density: proportional to exp(-r/0.38886)*erfc((r-0)/0.438782) with norm 8
       Charge density: gaussian nuclear width 0.374796 with net site charge 1
       Hard sphere radius: 2.39995 bohrs
       Positions in reference frame:
         [ +0.000000 +0.000000 +0.000000 ]
     Net charge: 1   dipole magnitude: 0
     Initializing gaussian mfKernel with width: 1.59012 Bohr
     deltaS corrections:
       site 'F': -9.04335

Correction to mu due to finite nuclear width = -0.0406359
   Cavity determined by nc: 0.00142 and sigma: 0.707107
   Nonlocal vdW cavity from gaussian model electron density with norm = 8 and sigma = 0.993594 bohr
   Charge asymmetry in cavity with sensitivity pCavity = 36.5 e-bohr/Eh
   Electrostatic cavity expanded by eta = 1.46 bohrs
   Weighted density cavitation model constrained by Nbulk: 0.0049383 bohr^-3, Pvap: 3.14029 kPa, Rvdw: 2.61727 bohr and sigmaBulk: 4.62e-05 Eh/bohr^2 at T: 298 K.
   Weighted density dispersion model using vdW pair potentials with single solvent site with sqrtC6eff: 0.77 SI.


---- Citations for features of the code used in this run ----

   Software package:
      R. Sundararaman, K. Letchworth-Weaver, K.A. Schwarz, D. Gunceler, Y. Ozhabes and T.A. Arias, 'JDFTx: software for joint density-functional theory', SoftwareX 6, 278 (2017)

   gga-PBE exchange-correlation functional:
      J.P. Perdew, K. Burke and M. Ernzerhof, Phys. Rev. Lett. 77, 3865 (1996)

   Pseudopotentials:
      KF Garrity, JW Bennett, KM Rabe and D Vanderbilt, Comput. Mater. Sci. 81, 446 (2014)

   DFT-D3 dispersion correction:
      S. Grimme, J. Antony, S. Ehrlich and H. Krieg, J. Chem. Phys. 132, 154104 (2010)

   DFT-D2 dispersion correction:
      S. Grimme, J. Comput. Chem. 27, 1787 (2006)

   Charge-asymmetric nonlocally-determined local-electric (CANDLE) solvation model:
      R. Sundararaman and W.A. Goddard III, J. Chem. Phys. 142, 064107 (2015)

   Total energy minimization with Auxiliary Hamiltonian:
      C. Freysoldt, S. Boeck, and J. Neugebauer, Phys. Rev. B 79, 241103(R) (2009)

   Grand-canonical (fixed-potential) DFT:
      R. Sundararaman, W. A. Goddard III and T. A. Arias, J. Chem. Phys. 146, 114104 (2017)

   Linear-tetrahedron sampling for density of states:
      G. Lehmann and M. Taut, Phys. status solidi (b) 54, 469 (1972)

This list may not be complete. Please suggest additional citations or
report any other bugs at https://github.com/shankar1729/jdftx/issues

Initialization completed successfully at t[s]:    854.72


Computing DFT-D3 correction:
# coordination-number Au 7.282 8.646 8.650 8.618 6.452 5.112 6.454 8.620 8.651 8.646 7.052 4.882 7.282 8.646 8.650 8.618 6.452 5.112
# coordination-number Ni 3.893 5.000 6.666 6.677 6.674 5.562
# diagonal-C6 Au 317.16 317.16 317.16 317.16 317.16 317.16 317.16 317.16 317.16 317.16 317.16 317.16 317.16 317.16 317.16 317.16 317.16 317.16
# diagonal-C6 Ni 178.15 141.14 133.51 133.45 133.46 139.81
EvdW_6 =   -0.167003
EvdW_8 =   -0.299070
Fluid solver invoked on fresh (random / LCAO) wavefunctions
Running a vacuum solve first:

-------- Initial electronic minimization -----------
	FillingsUpdate:  mu: +0.071395133  nElectrons: 306.000000  magneticMoment: [ Abs: 0.00393  Tot: -0.00105 ]
ElecMinimize: Iter:   0  G: -1621.176713693421789  |grad|_K:  7.425e-05  alpha:  1.000e+00
	FillingsUpdate:  mu: +0.078283934  nElectrons: 306.000000  magneticMoment: [ Abs: 0.00470  Tot: -0.00229 ]
	SubspaceRotationAdjust: set factor to 0.57
ElecMinimize: Iter:   1  G: -1621.368418517353575  |grad|_K:  1.595e-04  alpha:  2.436e-01  linmin: -1.440e-05  t[s]:    908.17
	FillingsUpdate:  mu: +0.077309015  nElectrons: 306.000000  magneticMoment: [ Abs: 0.00330  Tot: -0.00058 ]
	SubspaceRotationAdjust: set factor to 0.378
ElecMinimize: Iter:   2  G: -1621.381787696798938  |grad|_K:  1.766e-04  alpha:  5.530e-02  linmin:  6.594e-04  t[s]:    941.64
	FillingsUpdate:  mu: +0.114172139  nElectrons: 306.000000  magneticMoment: [ Abs: 0.00330  Tot: -0.00078 ]
	SubspaceRotationAdjust: set factor to 0.398
ElecMinimize: Iter:   3  G: -1621.418797940029208  |grad|_K:  1.237e-04  alpha:  2.311e-02  linmin:  2.896e-05  t[s]:    975.05
	FillingsUpdate:  mu: +0.118110058  nElectrons: 306.000000  magneticMoment: [ Abs: 0.00369  Tot: -0.00163 ]
	SubspaceRotationAdjust: set factor to 0.433
ElecMinimize: Iter:   4  G: -1621.497341599422953  |grad|_K:  8.149e-05  alpha:  3.677e-02  linmin: -5.027e-05  t[s]:   1008.39
	FillingsUpdate:  mu: +0.149416465  nElectrons: 306.000000  magneticMoment: [ Abs: 0.00371  Tot: -0.00195 ]
	SubspaceRotationAdjust: set factor to 0.426
ElecMinimize: Iter:   5  G: -1621.547520623731543  |grad|_K:  6.185e-05  alpha:  5.058e-02  linmin: -8.948e-05  t[s]:   1041.84
	FillingsUpdate:  mu: +0.169381228  nElectrons: 306.000000  magneticMoment: [ Abs: 0.00336  Tot: -0.00166 ]
	SubspaceRotationAdjust: set factor to 0.314
ElecMinimize: Iter:   6  G: -1621.588460369197492  |grad|_K:  6.656e-05  alpha:  7.185e-02  linmin: -5.604e-05  t[s]:   1076.02
	FillingsUpdate:  mu: +0.135107417  nElectrons: 306.000000  magneticMoment: [ Abs: 0.00359  Tot: -0.00180 ]
	SubspaceRotationAdjust: set factor to 0.411
ElecMinimize: Iter:   7  G: -1621.623725870606677  |grad|_K:  4.931e-05  alpha:  5.484e-02  linmin:  1.401e-05  t[s]:   1109.60
	FillingsUpdate:  mu: +0.101007339  nElectrons: 306.000000  magneticMoment: [ Abs: 0.00417  Tot: -0.00240 ]
	SubspaceRotationAdjust: set factor to 0.295
ElecMinimize: Iter:   8  G: -1621.649669420214195  |grad|_K:  5.152e-05  alpha:  7.694e-02  linmin:  1.439e-04  t[s]:   1143.04
	FillingsUpdate:  mu: +0.061169743  nElectrons: 306.000000  magneticMoment: [ Abs: 0.00430  Tot: -0.00263 ]
	SubspaceRotationAdjust: set factor to 0.52
ElecMinimize: Iter:   9  G: -1621.661645378721005  |grad|_K:  2.536e-05  alpha:  2.990e-02  linmin: -4.114e-04  t[s]:   1176.31
	FillingsUpdate:  mu: +0.064412845  nElectrons: 306.000000  magneticMoment: [ Abs: 0.00430  Tot: -0.00271 ]
	SubspaceRotationAdjust: set factor to 0.385
ElecMinimize: Iter:  10  G: -1621.666598189920251  |grad|_K:  3.275e-05  alpha:  5.157e-02  linmin:  3.068e-04  t[s]:   1209.60
	FillingsUpdate:  mu: +0.072617340  nElectrons: 306.000000  magneticMoment: [ Abs: 0.00454  Tot: -0.00305 ]
	SubspaceRotationAdjust: set factor to 0.275
ElecMinimize: Iter:  11  G: -1621.674859350411225  |grad|_K:  3.247e-05  alpha:  5.675e-02  linmin: -2.391e-05  t[s]:   1243.04
	FillingsUpdate:  mu: +0.075002858  nElectrons: 306.000000  magneticMoment: [ Abs: 0.00458  Tot: -0.00309 ]
	SubspaceRotationAdjust: set factor to 0.267
ElecMinimize: Iter:  12  G: -1621.682071460062389  |grad|_K:  2.522e-05  alpha:  4.868e-02  linmin: -1.700e-04  t[s]:   1276.49
	FillingsUpdate:  mu: +0.075256003  nElectrons: 306.000000  magneticMoment: [ Abs: 0.00434  Tot: -0.00282 ]
	SubspaceRotationAdjust: set factor to 0.348
ElecMinimize: Iter:  13  G: -1621.686736352698063  |grad|_K:  1.517e-05  alpha:  5.098e-02  linmin: -4.372e-04  t[s]:   1309.77
	FillingsUpdate:  mu: +0.090955031  nElectrons: 306.000000  magneticMoment: [ Abs: 0.00425  Tot: -0.00275 ]
	SubspaceRotationAdjust: set factor to 0.296
ElecMinimize: Iter:  14  G: -1621.688852929747554  |grad|_K:  1.471e-05  alpha:  6.348e-02  linmin: -2.050e-04  t[s]:   1343.10
	FillingsUpdate:  mu: +0.085860944  nElectrons: 306.000000  magneticMoment: [ Abs: 0.00446  Tot: -0.00304 ]
	SubspaceRotationAdjust: set factor to 0.392
ElecMinimize: Iter:  15  G: -1621.690966217482583  |grad|_K:  1.145e-05  alpha:  6.840e-02  linmin: -8.533e-06  t[s]:   1377.25
	FillingsUpdate:  mu: +0.084965724  nElectrons: 306.000000  magneticMoment: [ Abs: 0.00471  Tot: -0.00336 ]
	SubspaceRotationAdjust: set factor to 0.294
ElecMinimize: Iter:  16  G: -1621.692393209944839  |grad|_K:  1.309e-05  alpha:  7.695e-02  linmin:  1.967e-05  t[s]:   1410.81
	FillingsUpdate:  mu: +0.076200076  nElectrons: 306.000000  magneticMoment: [ Abs: 0.00478  Tot: -0.00346 ]
	SubspaceRotationAdjust: set factor to 0.447
ElecMinimize: Iter:  17  G: -1621.693734437198600  |grad|_K:  8.002e-06  alpha:  5.554e-02  linmin:  2.116e-06  t[s]:   1444.60
	FillingsUpdate:  mu: +0.074503739  nElectrons: 306.000000  magneticMoment: [ Abs: 0.00481  Tot: -0.00350 ]
	SubspaceRotationAdjust: set factor to 0.435
ElecMinimize: Iter:  18  G: -1621.694435798372069  |grad|_K:  8.348e-06  alpha:  7.753e-02  linmin: -1.424e-06  t[s]:   1478.06
	FillingsUpdate:  mu: +0.069444813  nElectrons: 306.000000  magneticMoment: [ Abs: 0.00501  Tot: -0.00373 ]
	SubspaceRotationAdjust: set factor to 0.4
ElecMinimize: Iter:  19  G: -1621.694960027431762  |grad|_K:  6.595e-06  alpha:  5.319e-02  linmin:  9.738e-09  t[s]:   1511.48
	FillingsUpdate:  mu: +0.071994596  nElectrons: 306.000000  magneticMoment: [ Abs: 0.00530  Tot: -0.00407 ]
	SubspaceRotationAdjust: set factor to 0.427
ElecMinimize: Iter:  20  G: -1621.695485820453314  |grad|_K:  6.271e-06  alpha:  8.554e-02  linmin: -3.433e-07  t[s]:   1544.75
	FillingsUpdate:  mu: +0.074394693  nElectrons: 306.000000  magneticMoment: [ Abs: 0.00541  Tot: -0.00421 ]
	SubspaceRotationAdjust: set factor to 0.347
ElecMinimize: Iter:  21  G: -1621.695826207598202  |grad|_K:  5.642e-06  alpha:  6.131e-02  linmin: -5.204e-07  t[s]:   1578.03
	FillingsUpdate:  mu: +0.073438856  nElectrons: 306.000000  magneticMoment: [ Abs: 0.00558  Tot: -0.00440 ]
	SubspaceRotationAdjust: set factor to 0.364
ElecMinimize: Iter:  22  G: -1621.696067613802597  |grad|_K:  3.659e-06  alpha:  5.364e-02  linmin:  1.071e-06  t[s]:   1611.56
	FillingsUpdate:  mu: +0.072915562  nElectrons: 306.000000  magneticMoment: [ Abs: 0.00583  Tot: -0.00469 ]
	SubspaceRotationAdjust: set factor to 0.304
ElecMinimize: Iter:  23  G: -1621.696249611487929  |grad|_K:  3.994e-06  alpha:  9.619e-02  linmin: -2.375e-06  t[s]:   1645.10
	FillingsUpdate:  mu: +0.072172426  nElectrons: 306.000000  magneticMoment: [ Abs: 0.00607  Tot: -0.00496 ]
	SubspaceRotationAdjust: set factor to 0.326
ElecMinimize: Iter:  24  G: -1621.696384112130545  |grad|_K:  3.094e-06  alpha:  5.951e-02  linmin: -1.591e-07  t[s]:   1678.78
	FillingsUpdate:  mu: +0.072876387  nElectrons: 306.000000  magneticMoment: [ Abs: 0.00649  Tot: -0.00542 ]
	SubspaceRotationAdjust: set factor to 0.347
ElecMinimize: Iter:  25  G: -1621.696534828424774  |grad|_K:  3.337e-06  alpha:  1.114e-01  linmin: -3.893e-07  t[s]:   1712.57
	FillingsUpdate:  mu: +0.072751187  nElectrons: 306.000000  magneticMoment: [ Abs: 0.00684  Tot: -0.00579 ]
	SubspaceRotationAdjust: set factor to 0.389
ElecMinimize: Iter:  26  G: -1621.696636359312606  |grad|_K:  2.548e-06  alpha:  6.458e-02  linmin:  4.555e-07  t[s]:   1745.81
	FillingsUpdate:  mu: +0.072975941  nElectrons: 306.000000  magneticMoment: [ Abs: 0.00705  Tot: -0.00599 ]
	SubspaceRotationAdjust: set factor to 0.393
ElecMinimize: Iter:  27  G: -1621.696693667928912  |grad|_K:  1.935e-06  alpha:  6.252e-02  linmin: -2.118e-06  t[s]:   1779.26
	FillingsUpdate:  mu: +0.073860554  nElectrons: 306.000000  magneticMoment: [ Abs: 0.00743  Tot: -0.00636 ]
	SubspaceRotationAdjust: set factor to 0.314
ElecMinimize: Iter:  28  G: -1621.696749328582882  |grad|_K:  2.349e-06  alpha:  1.049e-01  linmin: -2.279e-06  t[s]:   1812.92
	FillingsUpdate:  mu: +0.073227953  nElectrons: 306.000000  magneticMoment: [ Abs: 0.00787  Tot: -0.00679 ]
	SubspaceRotationAdjust: set factor to 0.337
ElecMinimize: Iter:  29  G: -1621.696790010110135  |grad|_K:  1.447e-06  alpha:  5.204e-02  linmin: -2.607e-07  t[s]:   1846.45
	FillingsUpdate:  mu: +0.072610910  nElectrons: 306.000000  magneticMoment: [ Abs: 0.00833  Tot: -0.00722 ]
	SubspaceRotationAdjust: set factor to 0.346
ElecMinimize: Iter:  30  G: -1621.696817398195662  |grad|_K:  1.441e-06  alpha:  9.250e-02  linmin:  4.779e-07  t[s]:   1879.63
	FillingsUpdate:  mu: +0.072179206  nElectrons: 306.000000  magneticMoment: [ Abs: 0.00873  Tot: -0.00758 ]
	SubspaceRotationAdjust: set factor to 0.353
ElecMinimize: Iter:  31  G: -1621.696837398494381  |grad|_K:  1.296e-06  alpha:  6.816e-02  linmin: -6.889e-08  t[s]:   1912.86
	FillingsUpdate:  mu: +0.071990691  nElectrons: 306.000000  magneticMoment: [ Abs: 0.00933  Tot: -0.00813 ]
	SubspaceRotationAdjust: set factor to 0.41
ElecMinimize: Iter:  32  G: -1621.696858493257878  |grad|_K:  1.179e-06  alpha:  8.886e-02  linmin: -3.722e-08  t[s]:   1946.39
	FillingsUpdate:  mu: +0.072421810  nElectrons: 306.000000  magneticMoment: [ Abs: 0.00993  Tot: -0.00866 ]
	SubspaceRotationAdjust: set factor to 0.429
ElecMinimize: Iter:  33  G: -1621.696872762194744  |grad|_K:  1.044e-06  alpha:  7.261e-02  linmin: -1.504e-07  t[s]:   1981.13
	FillingsUpdate:  mu: +0.072981184  nElectrons: 306.000000  magneticMoment: [ Abs: 0.01034  Tot: -0.00904 ]
	SubspaceRotationAdjust: set factor to 0.362
ElecMinimize: Iter:  34  G: -1621.696880194732330  |grad|_K:  6.846e-07  alpha:  4.828e-02  linmin:  1.364e-08  t[s]:   2014.77
	FillingsUpdate:  mu: +0.073304520  nElectrons: 306.000000  magneticMoment: [ Abs: 0.01103  Tot: -0.00965 ]
	SubspaceRotationAdjust: set factor to 0.324
ElecMinimize: Iter:  35  G: -1621.696887211473495  |grad|_K:  7.462e-07  alpha:  1.059e-01  linmin: -6.605e-08  t[s]:   2048.11
	FillingsUpdate:  mu: +0.073090929  nElectrons: 306.000000  magneticMoment: [ Abs: 0.01169  Tot: -0.01024 ]
	SubspaceRotationAdjust: set factor to 0.322
ElecMinimize: Iter:  36  G: -1621.696892203248126  |grad|_K:  5.933e-07  alpha:  6.343e-02  linmin: -7.316e-08  t[s]:   2081.42
	FillingsUpdate:  mu: +0.072770037  nElectrons: 306.000000  magneticMoment: [ Abs: 0.01241  Tot: -0.01088 ]
	SubspaceRotationAdjust: set factor to 0.353
ElecMinimize: Iter:  37  G: -1621.696896281054478  |grad|_K:  4.650e-07  alpha:  8.200e-02  linmin:  9.779e-07  t[s]:   2114.77
	FillingsUpdate:  mu: +0.072688210  nElectrons: 306.000000  magneticMoment: [ Abs: 0.01304  Tot: -0.01144 ]
	SubspaceRotationAdjust: set factor to 0.339
ElecMinimize: Iter:  38  G: -1621.696898737339097  |grad|_K:  4.681e-07  alpha:  8.044e-02  linmin:  3.190e-07  t[s]:   2148.27
	FillingsUpdate:  mu: +0.072647621  nElectrons: 306.000000  magneticMoment: [ Abs: 0.01387  Tot: -0.01217 ]
	SubspaceRotationAdjust: set factor to 0.385
ElecMinimize: Iter:  39  G: -1621.696901034900748  |grad|_K:  3.740e-07  alpha:  7.422e-02  linmin:  2.366e-07  t[s]:   2181.82
	FillingsUpdate:  mu: +0.072745660  nElectrons: 306.000000  magneticMoment: [ Abs: 0.01471  Tot: -0.01291 ]
	SubspaceRotationAdjust: set factor to 0.424
ElecMinimize: Iter:  40  G: -1621.696902725115251  |grad|_K:  3.276e-07  alpha:  8.552e-02  linmin: -1.688e-07  t[s]:   2215.26
	FillingsUpdate:  mu: +0.072871425  nElectrons: 306.000000  magneticMoment: [ Abs: 0.01539  Tot: -0.01351 ]
	SubspaceRotationAdjust: set factor to 0.366
ElecMinimize: Iter:  41  G: -1621.696903692995647  |grad|_K:  3.208e-07  alpha:  6.383e-02  linmin:  1.482e-07  t[s]:   2248.55
	FillingsUpdate:  mu: +0.072931123  nElectrons: 306.000000  magneticMoment: [ Abs: 0.01663  Tot: -0.01461 ]
	SubspaceRotationAdjust: set factor to 0.455
ElecMinimize: Iter:  42  G: -1621.696904924481487  |grad|_K:  2.376e-07  alpha:  8.470e-02  linmin: -3.820e-07  t[s]:   2282.77
	FillingsUpdate:  mu: +0.072877174  nElectrons: 306.000000  magneticMoment: [ Abs: 0.01754  Tot: -0.01541 ]
	SubspaceRotationAdjust: set factor to 0.443
ElecMinimize: Iter:  43  G: -1621.696905528491470  |grad|_K:  2.175e-07  alpha:  7.569e-02  linmin:  1.502e-06  t[s]:   2316.45
	FillingsUpdate:  mu: +0.072834085  nElectrons: 306.000000  magneticMoment: [ Abs: 0.01837  Tot: -0.01615 ]
	SubspaceRotationAdjust: set factor to 0.411
ElecMinimize: Iter:  44  G: -1621.696905907935388  |grad|_K:  1.858e-07  alpha:  5.679e-02  linmin: -1.779e-07  t[s]:   2349.87
	FillingsUpdate:  mu: +0.072744789  nElectrons: 306.000000  magneticMoment: [ Abs: 0.01984  Tot: -0.01746 ]
	SubspaceRotationAdjust: set factor to 0.397
ElecMinimize: Iter:  45  G: -1621.696906365173845  |grad|_K:  1.890e-07  alpha:  9.388e-02  linmin:  2.633e-06  t[s]:   2383.35
	FillingsUpdate:  mu: +0.072765128  nElectrons: 306.000000  magneticMoment: [ Abs: 0.02202  Tot: -0.01940 ]
	SubspaceRotationAdjust: set factor to 0.38
ElecMinimize: Iter:  46  G: -1621.696906884739292  |grad|_K:  1.844e-07  alpha:  1.031e-01  linmin:  1.948e-08  t[s]:   2416.85
	FillingsUpdate:  mu: +0.072848817  nElectrons: 306.000000  magneticMoment: [ Abs: 0.02337  Tot: -0.02060 ]
	SubspaceRotationAdjust: set factor to 0.338
ElecMinimize: Iter:  47  G: -1621.696907140391659  |grad|_K:  1.354e-07  alpha:  5.321e-02  linmin:  6.579e-07  t[s]:   2450.22
	FillingsUpdate:  mu: +0.072915149  nElectrons: 306.000000  magneticMoment: [ Abs: 0.02533  Tot: -0.02234 ]
	SubspaceRotationAdjust: set factor to 0.384
ElecMinimize: Iter:  48  G: -1621.696907406564378  |grad|_K:  1.314e-07  alpha:  1.027e-01  linmin: -7.506e-07  t[s]:   2483.67
	FillingsUpdate:  mu: +0.072883958  nElectrons: 306.000000  magneticMoment: [ Abs: 0.02771  Tot: -0.02444 ]
	SubspaceRotationAdjust: set factor to 0.385
ElecMinimize: Iter:  49  G: -1621.696907656317080  |grad|_K:  1.461e-07  alpha:  1.023e-01  linmin: -1.538e-07  t[s]:   2517.06
	FillingsUpdate:  mu: +0.072839149  nElectrons: 306.000000  magneticMoment: [ Abs: 0.03024  Tot: -0.02668 ]
	SubspaceRotationAdjust: set factor to 0.385
ElecMinimize: Iter:  50  G: -1621.696907873972123  |grad|_K:  1.315e-07  alpha:  7.226e-02  linmin:  3.513e-07  t[s]:   2550.44
	FillingsUpdate:  mu: +0.072770652  nElectrons: 306.000000  magneticMoment: [ Abs: 0.03409  Tot: -0.03007 ]
	SubspaceRotationAdjust: set factor to 0.408
ElecMinimize: Iter:  51  G: -1621.696908137117134  |grad|_K:  1.450e-07  alpha:  1.081e-01  linmin:  3.419e-06  t[s]:   2584.75
	FillingsUpdate:  mu: +0.072746007  nElectrons: 306.000000  magneticMoment: [ Abs: 0.04066  Tot: -0.03589 ]
	SubspaceRotationAdjust: set factor to 0.329
ElecMinimize: Iter:  52  G: -1621.696908517125848  |grad|_K:  1.960e-07  alpha:  1.288e-01  linmin:  4.035e-06  t[s]:   2618.07
	FillingsUpdate:  mu: +0.072807588  nElectrons: 306.000000  magneticMoment: [ Abs: 0.04754  Tot: -0.04197 ]
	SubspaceRotationAdjust: set factor to 0.334
ElecMinimize: Iter:  53  G: -1621.696908874074779  |grad|_K:  1.722e-07  alpha:  6.709e-02  linmin:  2.456e-06  t[s]:   2651.52
	FillingsUpdate:  mu: +0.072963279  nElectrons: 306.000000  magneticMoment: [ Abs: 0.06334  Tot: -0.05592 ]
	SubspaceRotationAdjust: set factor to 0.362
ElecMinimize: Iter:  54  G: -1621.696909628792127  |grad|_K:  2.781e-07  alpha:  1.786e-01  linmin: -7.336e-06  t[s]:   2684.87
	FillingsUpdate:  mu: +0.073123952  nElectrons: 306.000000  magneticMoment: [ Abs: 0.09967  Tot: -0.08801 ]
	SubspaceRotationAdjust: set factor to 0.312
ElecMinimize: Iter:  55  G: -1621.696911368411520  |grad|_K:  5.335e-07  alpha:  1.489e-01  linmin:  1.232e-05  t[s]:   2718.20
	FillingsUpdate:  mu: +0.073212450  nElectrons: 306.000000  magneticMoment: [ Abs: 0.13500  Tot: -0.11922 ]
	SubspaceRotationAdjust: set factor to 0.284
ElecMinimize: Iter:  56  G: -1621.696913594352736  |grad|_K:  6.859e-07  alpha:  3.858e-02  linmin: -6.387e-05  t[s]:   2751.40
	FillingsUpdate:  mu: +0.073385331  nElectrons: 306.000000  magneticMoment: [ Abs: 0.27319  Tot: -0.24144 ]
	SubspaceRotationAdjust: set factor to 0.206
ElecMinimize: Iter:  57  G: -1621.696915182114026  |grad|_K:  1.814e-06  alpha:  9.079e-02  linmin:  1.847e-04  t[s]:   2784.86
ElecMinimize: 	Bad step direction: g.d > 0.
ElecMinimize: 	Undoing step.
ElecMinimize: 	Step failed: resetting search direction.
	FillingsUpdate:  mu: +0.073385331  nElectrons: 306.000000  magneticMoment: [ Abs: 0.27319  Tot: -0.24144 ]
	SubspaceRotationAdjust: set factor to 0.167
ElecMinimize: Iter:  58  G: -1621.696915182113571  |grad|_K:  1.633e-06  alpha:  0.000e+00
	FillingsUpdate:  mu: +0.073265807  nElectrons: 306.000000  magneticMoment: [ Abs: 0.27396  Tot: -0.24185 ]
	SubspaceRotationAdjust: set factor to 0.109
	SubspaceRotationAdjust: resetting CG because factor has changed by 0.109029
ElecMinimize: 	State modified externally: resetting search direction.
ElecMinimize: Iter:  59  G: -1621.696943250816048  |grad|_K:  7.766e-07  alpha:  7.454e-02
	FillingsUpdate:  mu: +0.072975299  nElectrons: 306.000000  magneticMoment: [ Abs: 0.27759  Tot: -0.24489 ]
	SubspaceRotationAdjust: set factor to 0.111
ElecMinimize: Iter:  60  G: -1621.696957239249741  |grad|_K:  6.605e-07  alpha:  1.642e-01  linmin:  1.001e-05  t[s]:   2893.59
	FillingsUpdate:  mu: +0.072927781  nElectrons: 306.000000  magneticMoment: [ Abs: 0.28508  Tot: -0.25075 ]
	SubspaceRotationAdjust: set factor to 0.113
ElecMinimize: Iter:  61  G: -1621.696973290099777  |grad|_K:  4.595e-07  alpha:  2.604e-01  linmin: -8.783e-06  t[s]:   2926.91
	FillingsUpdate:  mu: +0.072851801  nElectrons: 306.000000  magneticMoment: [ Abs: 0.29951  Tot: -0.26250 ]
	SubspaceRotationAdjust: set factor to 0.134
ElecMinimize: Iter:  62  G: -1621.696986306386634  |grad|_K:  5.051e-07  alpha:  4.358e-01  linmin:  1.877e-06  t[s]:   2960.13
	FillingsUpdate:  mu: +0.073055752  nElectrons: 306.000000  magneticMoment: [ Abs: 0.32985  Tot: -0.28759 ]
	SubspaceRotationAdjust: set factor to 0.141
ElecMinimize: Iter:  63  G: -1621.697004845556648  |grad|_K:  6.521e-07  alpha:  5.152e-01  linmin:  7.781e-06  t[s]:   2993.69
	FillingsUpdate:  mu: +0.072977623  nElectrons: 306.000000  magneticMoment: [ Abs: 0.37195  Tot: -0.32283 ]
	SubspaceRotationAdjust: set factor to 0.137
ElecMinimize: Iter:  64  G: -1621.697026022630325  |grad|_K:  8.159e-07  alpha:  3.565e-01  linmin: -1.168e-06  t[s]:   3027.22
	FillingsUpdate:  mu: +0.072831242  nElectrons: 306.000000  magneticMoment: [ Abs: 0.45862  Tot: -0.39627 ]
	SubspaceRotationAdjust: set factor to 0.14
ElecMinimize: Iter:  65  G: -1621.697064887610850  |grad|_K:  9.573e-07  alpha:  4.176e-01  linmin:  4.324e-05  t[s]:   3060.68
	FillingsUpdate:  mu: +0.073047967  nElectrons: 306.000000  magneticMoment: [ Abs: 0.58914  Tot: -0.50739 ]
	SubspaceRotationAdjust: set factor to 0.154
ElecMinimize: Iter:  66  G: -1621.697119389576756  |grad|_K:  1.025e-06  alpha:  4.432e-01  linmin: -3.060e-05  t[s]:   3093.96
	FillingsUpdate:  mu: +0.072971629  nElectrons: 306.000000  magneticMoment: [ Abs: 0.69420  Tot: -0.59795 ]
	SubspaceRotationAdjust: set factor to 0.13
ElecMinimize: Iter:  67  G: -1621.697170385711388  |grad|_K:  1.580e-06  alpha:  2.951e-01  linmin: -3.628e-06  t[s]:   3127.22
	FillingsUpdate:  mu: +0.072885793  nElectrons: 306.000000  magneticMoment: [ Abs: 0.83554  Tot: -0.71920 ]
	SubspaceRotationAdjust: set factor to 0.175
ElecMinimize: Iter:  68  G: -1621.697234217544974  |grad|_K:  1.633e-06  alpha:  1.753e-01  linmin: -1.630e-05  t[s]:   3160.58
	FillingsUpdate:  mu: +0.073100516  nElectrons: 306.000000  magneticMoment: [ Abs: 0.97024  Tot: -0.83371 ]
	SubspaceRotationAdjust: set factor to 0.191
ElecMinimize: Iter:  69  G: -1621.697298293812992  |grad|_K:  1.542e-06  alpha:  1.668e-01  linmin: -4.142e-05  t[s]:   3194.82
	FillingsUpdate:  mu: +0.072977949  nElectrons: 306.000000  magneticMoment: [ Abs: 1.10683  Tot: -0.94932 ]
	SubspaceRotationAdjust: set factor to 0.203
ElecMinimize: Iter:  70  G: -1621.697366724542917  |grad|_K:  1.625e-06  alpha:  1.941e-01  linmin:  4.399e-05  t[s]:   3228.12
	FillingsUpdate:  mu: +0.072920857  nElectrons: 306.000000  magneticMoment: [ Abs: 1.24337  Tot: -1.06235 ]
	SubspaceRotationAdjust: set factor to 0.219
ElecMinimize: Iter:  71  G: -1621.697432722265376  |grad|_K:  1.655e-06  alpha:  1.881e-01  linmin: -2.918e-05  t[s]:   3261.46
	FillingsUpdate:  mu: +0.072656465  nElectrons: 306.000000  magneticMoment: [ Abs: 1.41943  Tot: -1.20439 ]
	SubspaceRotationAdjust: set factor to 0.235
ElecMinimize: Iter:  72  G: -1621.697530447895815  |grad|_K:  1.821e-06  alpha:  2.465e-01  linmin:  4.339e-05  t[s]:   3294.96
	FillingsUpdate:  mu: +0.072917807  nElectrons: 306.000000  magneticMoment: [ Abs: 1.53997  Tot: -1.29756 ]
	SubspaceRotationAdjust: set factor to 0.261
ElecMinimize: Iter:  73  G: -1621.697597883726530  |grad|_K:  1.484e-06  alpha:  1.545e-01  linmin:  1.499e-06  t[s]:   3328.58
	FillingsUpdate:  mu: +0.073676806  nElectrons: 306.000000  magneticMoment: [ Abs: 1.65778  Tot: -1.38573 ]
	SubspaceRotationAdjust: set factor to 0.29
ElecMinimize: Iter:  74  G: -1621.697672693819641  |grad|_K:  1.654e-06  alpha:  2.398e-01  linmin: -1.858e-05  t[s]:   3362.13
	FillingsUpdate:  mu: +0.074269766  nElectrons: 306.000000  magneticMoment: [ Abs: 1.73595  Tot: -1.44164 ]
	SubspaceRotationAdjust: set factor to 0.256
ElecMinimize: Iter:  75  G: -1621.697726417459080  |grad|_K:  1.727e-06  alpha:  1.372e-01  linmin: -4.619e-06  t[s]:   3395.44
	FillingsUpdate:  mu: +0.073487963  nElectrons: 306.000000  magneticMoment: [ Abs: 1.81755  Tot: -1.49960 ]
	SubspaceRotationAdjust: set factor to 0.224
ElecMinimize: Iter:  76  G: -1621.697781206794161  |grad|_K:  1.827e-06  alpha:  1.297e-01  linmin:  3.400e-06  t[s]:   3428.75
	FillingsUpdate:  mu: +0.073351204  nElectrons: 306.000000  magneticMoment: [ Abs: 1.87871  Tot: -1.54072 ]
	SubspaceRotationAdjust: set factor to 0.207
ElecMinimize: Iter:  77  G: -1621.697827235772365  |grad|_K:  1.239e-06  alpha:  9.808e-02  linmin: -2.686e-06  t[s]:   3462.12
	FillingsUpdate:  mu: +0.073788254  nElectrons: 306.000000  magneticMoment: [ Abs: 1.93305  Tot: -1.57643 ]
	SubspaceRotationAdjust: set factor to 0.266
ElecMinimize: Iter:  78  G: -1621.697869926931389  |grad|_K:  1.013e-06  alpha:  1.962e-01  linmin: -3.741e-06  t[s]:   3496.82
	FillingsUpdate:  mu: +0.073866482  nElectrons: 306.000000  magneticMoment: [ Abs: 1.96600  Tot: -1.59774 ]
	SubspaceRotationAdjust: set factor to 0.245
ElecMinimize: Iter:  79  G: -1621.697896301653145  |grad|_K:  1.257e-06  alpha:  1.812e-01  linmin:  2.269e-07  t[s]:   3530.23
	FillingsUpdate:  mu: +0.074161306  nElectrons: 306.000000  magneticMoment: [ Abs: 1.99329  Tot: -1.61445 ]
	SubspaceRotationAdjust: set factor to 0.211
ElecMinimize: Iter:  80  G: -1621.697921955620131  |grad|_K:  1.177e-06  alpha:  1.142e-01  linmin: -5.190e-07  t[s]:   3563.66
	FillingsUpdate:  mu: +0.073664851  nElectrons: 306.000000  magneticMoment: [ Abs: 2.01672  Tot: -1.62900 ]
	SubspaceRotationAdjust: set factor to 0.233
ElecMinimize: Iter:  81  G: -1621.697943630978443  |grad|_K:  9.054e-07  alpha:  1.107e-01  linmin: -9.302e-07  t[s]:   3596.92
	FillingsUpdate:  mu: +0.073591710  nElectrons: 306.000000  magneticMoment: [ Abs: 2.04171  Tot: -1.64372 ]
	SubspaceRotationAdjust: set factor to 0.238
ElecMinimize: Iter:  82  G: -1621.697970478061052  |grad|_K:  9.049e-07  alpha:  2.316e-01  linmin:  9.044e-07  t[s]:   3630.34
	FillingsUpdate:  mu: +0.074096599  nElectrons: 306.000000  magneticMoment: [ Abs: 2.05154  Tot: -1.64896 ]
	SubspaceRotationAdjust: set factor to 0.193
ElecMinimize: Iter:  83  G: -1621.697984796536502  |grad|_K:  1.046e-06  alpha:  1.230e-01  linmin: -1.638e-06  t[s]:   3663.85
	FillingsUpdate:  mu: +0.074090369  nElectrons: 306.000000  magneticMoment: [ Abs: 2.06625  Tot: -1.65721 ]
	SubspaceRotationAdjust: set factor to 0.239
ElecMinimize: Iter:  84  G: -1621.698005540823033  |grad|_K:  8.250e-07  alpha:  1.336e-01  linmin: -5.759e-07  t[s]:   3697.34
	FillingsUpdate:  mu: +0.073950296  nElectrons: 306.000000  magneticMoment: [ Abs: 2.07802  Tot: -1.66341 ]
	SubspaceRotationAdjust: set factor to 0.225
ElecMinimize: Iter:  85  G: -1621.698026364005045  |grad|_K:  9.677e-07  alpha:  2.160e-01  linmin: -5.411e-07  t[s]:   3730.76
	FillingsUpdate:  mu: +0.074169287  nElectrons: 306.000000  magneticMoment: [ Abs: 2.08364  Tot: -1.66583 ]
	SubspaceRotationAdjust: set factor to 0.218
ElecMinimize: Iter:  86  G: -1621.698041173730871  |grad|_K:  9.685e-07  alpha:  1.094e-01  linmin: -4.302e-06  t[s]:   3763.96
	FillingsUpdate:  mu: +0.074005368  nElectrons: 306.000000  magneticMoment: [ Abs: 2.09036  Tot: -1.66902 ]
	SubspaceRotationAdjust: set factor to 0.248
ElecMinimize: Iter:  87  G: -1621.698058642492470  |grad|_K:  8.602e-07  alpha:  1.309e-01  linmin:  8.422e-06  t[s]:   3798.25
	FillingsUpdate:  mu: +0.073906098  nElectrons: 306.000000  magneticMoment: [ Abs: 2.09317  Tot: -1.66990 ]
	SubspaceRotationAdjust: set factor to 0.244
ElecMinimize: Iter:  88  G: -1621.698073375493550  |grad|_K:  8.846e-07  alpha:  1.442e-01  linmin:  1.437e-05  t[s]:   3831.72
	FillingsUpdate:  mu: +0.073914403  nElectrons: 306.000000  magneticMoment: [ Abs: 2.09311  Tot: -1.66978 ]
	SubspaceRotationAdjust: set factor to 0.262
ElecMinimize: Iter:  89  G: -1621.698075498271919  |grad|_K:  8.337e-07  alpha:  1.050e-02  linmin: -4.516e-04  t[s]:   3865.45
ElecMinimize: 	Predicted alpha/alphaT>3.000000, increasing alphaT to 3.149317e-02.
	FillingsUpdate:  mu: +0.074257893  nElectrons: 306.000000  magneticMoment: [ Abs: 2.09109  Tot: -1.66802 ]
	SubspaceRotationAdjust: set factor to 0.172
ElecMinimize: Iter:  90  G: -1621.698088991375471  |grad|_K:  1.207e-06  alpha:  7.458e-02  linmin:  1.955e-05  t[s]:   3908.21
	FillingsUpdate:  mu: +0.074259488  nElectrons: 306.000000  magneticMoment: [ Abs: 2.09106  Tot: -1.66799 ]
	SubspaceRotationAdjust: set factor to 0.126
ElecMinimize: Iter:  91  G: -1621.698089249970280  |grad|_K:  1.040e-06  alpha:  6.548e-04  linmin: -5.803e-04  t[s]:   3941.91
ElecMinimize: 	Predicted alpha/alphaT>3.000000, increasing alphaT to 1.964277e-03.
ElecMinimize: 	Predicted alpha/alphaT>3.000000, increasing alphaT to 5.892832e-03.
ElecMinimize: 	Predicted alpha/alphaT>3.000000, increasing alphaT to 1.767849e-02.
	FillingsUpdate:  mu: +0.073677041  nElectrons: 306.000000  magneticMoment: [ Abs: 2.08875  Tot: -1.66630 ]
	SubspaceRotationAdjust: set factor to 0.0746
ElecMinimize: Iter:  92  G: -1621.698093650007422  |grad|_K:  1.749e-06  alpha:  9.668e-02  linmin:  7.588e-03  t[s]:   3993.43
ElecMinimize: 	Bad step direction: g.d > 0.
ElecMinimize: 	Undoing step.
ElecMinimize: 	Step failed: resetting search direction.
	FillingsUpdate:  mu: +0.073677041  nElectrons: 306.000000  magneticMoment: [ Abs: 2.08875  Tot: -1.66630 ]
	SubspaceRotationAdjust: set factor to 0.0486
ElecMinimize: Iter:  93  G: -1621.698093650014698  |grad|_K:  1.412e-06  alpha:  0.000e+00
	FillingsUpdate:  mu: +0.073839743  nElectrons: 306.000000  magneticMoment: [ Abs: 2.08802  Tot: -1.66593 ]
	SubspaceRotationAdjust: set factor to 0.0452
ElecMinimize: Iter:  94  G: -1621.698127025947315  |grad|_K:  5.820e-07  alpha:  1.121e-01  linmin: -1.297e-02  t[s]:   4050.95
	FillingsUpdate:  mu: +0.073944975  nElectrons: 306.000000  magneticMoment: [ Abs: 2.08709  Tot: -1.66561 ]
	SubspaceRotationAdjust: set factor to 0.0626
ElecMinimize: Iter:  95  G: -1621.698143319843894  |grad|_K:  4.121e-07  alpha:  2.242e-01  linmin: -5.462e-03  t[s]:   4085.37
ElecMinimize: 	Predicted alpha/alphaT>3.000000, increasing alphaT to 6.725034e-01.
	FillingsUpdate:  mu: +0.074033447  nElectrons: 306.000000  magneticMoment: [ Abs: 2.08333  Tot: -1.66439 ]
	SubspaceRotationAdjust: set factor to 0.0673
ElecMinimize: Iter:  96  G: -1621.698172093367248  |grad|_K:  6.565e-07  alpha:  8.040e-01  linmin: -2.139e-04  t[s]:   4128.00
	FillingsUpdate:  mu: +0.074198999  nElectrons: 306.000000  magneticMoment: [ Abs: 2.07789  Tot: -1.66230 ]
	SubspaceRotationAdjust: set factor to 0.0729
ElecMinimize: Iter:  97  G: -1621.698194919391426  |grad|_K:  5.644e-07  alpha:  3.462e-01  linmin:  2.442e-05  t[s]:   4161.33
	FillingsUpdate:  mu: +0.073898961  nElectrons: 306.000000  magneticMoment: [ Abs: 2.07375  Tot: -1.66064 ]
	SubspaceRotationAdjust: set factor to 0.0808
ElecMinimize: Iter:  98  G: -1621.698210081526213  |grad|_K:  4.863e-07  alpha:  3.405e-01  linmin: -5.867e-06  t[s]:   4194.62
	FillingsUpdate:  mu: +0.073945253  nElectrons: 306.000000  magneticMoment: [ Abs: 2.07000  Tot: -1.65873 ]
	SubspaceRotationAdjust: set factor to 0.0865
ElecMinimize: Iter:  99  G: -1621.698219954519800  |grad|_K:  4.246e-07  alpha:  2.946e-01  linmin: -1.410e-06  t[s]:   4227.92
	FillingsUpdate:  mu: +0.073853285  nElectrons: 306.000000  magneticMoment: [ Abs: 2.06704  Tot: -1.65726 ]
	SubspaceRotationAdjust: set factor to 0.0865
ElecMinimize: Iter: 100  G: -1621.698227679043839  |grad|_K:  4.434e-07  alpha:  3.030e-01  linmin: -5.701e-07  t[s]:   4261.27
ElecMinimize: None of the convergence criteria satisfied after 100 iterations.
Setting wave functions to eigenvectors of Hamiltonian
Converging empty states (this may take a while): |deigs|: 2.638e-03
Vacuum energy after initial minimize, F = -1621.698227679043839

Shifting auxilliary hamiltonian by -0.171653 to set nElectrons=306.000000

-------- Electronic minimization -----------
	Linear fluid (dielectric constant: 78.4, screening length: 8.12261 Bohr) occupying 0.511534 of unit cell:	Completed after 24 iterations at t[s]:   4510.93
	FillingsUpdate:  mu: -0.097800000  nElectrons: 306.000000  magneticMoment: [ Abs: 1.99957  Tot: -1.61106 ]
ElecMinimize: Iter:   0  G: -1621.699259798637740  |grad|_K:  3.521e-05  alpha:  1.000e+00
	Linear fluid (dielectric constant: 78.4, screening length: 8.12261 Bohr) occupying 0.580342 of unit cell:	Completed after 36 iterations at t[s]:   4544.06
	Linear fluid (dielectric constant: 78.4, screening length: 8.12261 Bohr) occupying 0.529933 of unit cell:	Completed after 26 iterations at t[s]:   4558.68
	FillingsUpdate:  mu: -0.097800000  nElectrons: 306.722584  magneticMoment: [ Abs: 1.65175  Tot: -1.11450 ]
	SubspaceRotationAdjust: set factor to 0.0587
ElecMinimize: Iter:   1  G: -1621.701263762900453  |grad|_K:  3.795e-05  alpha:  2.429e-01  linmin:  1.936e-02  t[s]:   4571.63
	Linear fluid (dielectric constant: 78.4, screening length: 8.12261 Bohr) occupying 0.540341 of unit cell:	Completed after 18 iterations at t[s]:   4586.75
	Linear fluid (dielectric constant: 78.4, screening length: 8.12261 Bohr) occupying 0.539554 of unit cell:	Completed after 15 iterations at t[s]:   4600.19
	FillingsUpdate:  mu: -0.097800000  nElectrons: 306.928937  magneticMoment: [ Abs: 1.59560  Tot: -0.98077 ]
	SubspaceRotationAdjust: set factor to 0.0975
ElecMinimize: Iter:   2  G: -1621.720828100038261  |grad|_K:  2.314e-05  alpha:  2.236e-01  linmin:  3.360e-04  t[s]:   4613.21
	Linear fluid (dielectric constant: 78.4, screening length: 8.12261 Bohr) occupying 0.537963 of unit cell:	Completed after 23 iterations at t[s]:   4629.71
	Linear fluid (dielectric constant: 78.4, screening length: 8.12261 Bohr) occupying 0.538083 of unit cell:	Completed after 14 iterations at t[s]:   4642.42
	FillingsUpdate:  mu: -0.097800000  nElectrons: 306.911626  magneticMoment: [ Abs: 1.59535  Tot: -0.99175 ]
	SubspaceRotationAdjust: set factor to 0.104
ElecMinimize: Iter:   3  G: -1621.736517371826494  |grad|_K:  1.381e-05  alpha:  2.083e-01  linmin:  3.395e-04  t[s]:   4655.51
	Linear fluid (dielectric constant: 78.4, screening length: 8.12261 Bohr) occupying 0.537728 of unit cell:	Completed after 17 iterations at t[s]:   4670.70
	Linear fluid (dielectric constant: 78.4, screening length: 8.12261 Bohr) occupying 0.537690 of unit cell:	Completed after 14 iterations at t[s]:   4684.19
	FillingsUpdate:  mu: -0.097800000  nElectrons: 306.917565  magneticMoment: [ Abs: 1.60947  Tot: -1.00216 ]
	SubspaceRotationAdjust: set factor to 0.115
ElecMinimize: Iter:   4  G: -1621.742697931681050  |grad|_K:  1.246e-05  alpha:  2.303e-01  linmin:  5.604e-05  t[s]:   4697.12
	Linear fluid (dielectric constant: 78.4, screening length: 8.12261 Bohr) occupying 0.544417 of unit cell:	Completed after 23 iterations at t[s]:   4713.62
	Linear fluid (dielectric constant: 78.4, screening length: 8.12261 Bohr) occupying 0.552123 of unit cell:	Completed after 24 iterations at t[s]:   4727.17
	FillingsUpdate:  mu: -0.097800000  nElectrons: 307.292628  magneticMoment: [ Abs: 1.48723  Tot: -0.85550 ]
	SubspaceRotationAdjust: set factor to 0.118
ElecMinimize: Iter:   5  G: -1621.753693197380016  |grad|_K:  1.425e-05  alpha:  5.122e-01  linmin:  8.393e-04  t[s]:   4740.76
	Linear fluid (dielectric constant: 78.4, screening length: 8.12261 Bohr) occupying 0.562768 of unit cell:	Completed after 27 iterations at t[s]:   4757.07
	Linear fluid (dielectric constant: 78.4, screening length: 8.12261 Bohr) occupying 0.561042 of unit cell:	Completed after 21 iterations at t[s]:   4771.76
	FillingsUpdate:  mu: -0.097800000  nElectrons: 307.652782  magneticMoment: [ Abs: 1.39995  Tot: -0.86841 ]
	SubspaceRotationAdjust: set factor to 0.135
ElecMinimize: Iter:   6  G: -1621.764650038824584  |grad|_K:  1.838e-05  alpha:  3.952e-01  linmin:  3.018e-05  t[s]:   4784.55
	Linear fluid (dielectric constant: 78.4, screening length: 8.12261 Bohr) occupying 0.569076 of unit cell:	Completed after 28 iterations at t[s]:   4801.29
	Linear fluid (dielectric constant: 78.4, screening length: 8.12261 Bohr) occupying 0.566291 of unit cell:	Completed after 26 iterations at t[s]:   4815.66
	FillingsUpdate:  mu: -0.097800000  nElectrons: 307.997179  magneticMoment: [ Abs: 1.32118  Tot: -0.86637 ]
	SubspaceRotationAdjust: set factor to 0.146
ElecMinimize: Iter:   7  G: -1621.774831722567342  |grad|_K:  1.112e-05  alpha:  2.199e-01  linmin: -2.478e-05  t[s]:   4829.28
	Linear fluid (dielectric constant: 78.4, screening length: 8.12261 Bohr) occupying 0.569677 of unit cell:	Completed after 27 iterations at t[s]:   4845.69
	Linear fluid (dielectric constant: 78.4, screening length: 8.12261 Bohr) occupying 0.569479 of unit cell:	Completed after 15 iterations at t[s]:   4858.85
	FillingsUpdate:  mu: -0.097800000  nElectrons: 308.242271  magneticMoment: [ Abs: 1.24013  Tot: -0.81728 ]
	SubspaceRotationAdjust: set factor to 0.132
ElecMinimize: Iter:   8  G: -1621.778437469382652  |grad|_K:  1.220e-05  alpha:  2.052e-01  linmin:  4.816e-04  t[s]:   4872.15
	Linear fluid (dielectric constant: 78.4, screening length: 8.12261 Bohr) occupying 0.570191 of unit cell:	Completed after 24 iterations at t[s]:   4888.62
	Linear fluid (dielectric constant: 78.4, screening length: 8.12261 Bohr) occupying 0.570214 of unit cell:	Completed after 11 iterations at t[s]:   4900.73
	FillingsUpdate:  mu: -0.097800000  nElectrons: 308.403986  magneticMoment: [ Abs: 1.18056  Tot: -0.78247 ]
	SubspaceRotationAdjust: set factor to 0.204
ElecMinimize: Iter:   9  G: -1621.782780760393734  |grad|_K:  8.475e-06  alpha:  2.130e-01  linmin: -9.389e-05  t[s]:   4913.80
	Linear fluid (dielectric constant: 78.4, screening length: 8.12261 Bohr) occupying 0.569191 of unit cell:	Completed after 22 iterations at t[s]:   4930.00
	Linear fluid (dielectric constant: 78.4, screening length: 8.12261 Bohr) occupying 0.569076 of unit cell:	Completed after 14 iterations at t[s]:   4942.78
	FillingsUpdate:  mu: -0.097800000  nElectrons: 308.389770  magneticMoment: [ Abs: 1.17870  Tot: -0.78280 ]
	SubspaceRotationAdjust: set factor to 0.189
ElecMinimize: Iter:  10  G: -1621.785188676749158  |grad|_K:  1.207e-05  alpha:  2.364e-01  linmin:  8.689e-05  t[s]:   4955.76
	Linear fluid (dielectric constant: 78.4, screening length: 8.12261 Bohr) occupying 0.569377 of unit cell:	Completed after 23 iterations at t[s]:   4971.47
	Linear fluid (dielectric constant: 78.4, screening length: 8.12261 Bohr) occupying 0.569351 of unit cell:	Completed after 17 iterations at t[s]:   4985.92
	FillingsUpdate:  mu: -0.097800000  nElectrons: 308.540772  magneticMoment: [ Abs: 1.11227  Tot: -0.72202 ]
	SubspaceRotationAdjust: set factor to 0.166
ElecMinimize: Iter:  11  G: -1621.789050553991274  |grad|_K:  9.507e-06  alpha:  1.886e-01  linmin:  3.718e-05  t[s]:   4999.33
	Linear fluid (dielectric constant: 78.4, screening length: 8.12261 Bohr) occupying 0.568364 of unit cell:	Completed after 23 iterations at t[s]:   5015.80
	Linear fluid (dielectric constant: 78.4, screening length: 8.12261 Bohr) occupying 0.568359 of unit cell:	Completed after 2 iterations at t[s]:   5026.65
	FillingsUpdate:  mu: -0.097800000  nElectrons: 308.553922  magneticMoment: [ Abs: 1.07824  Tot: -0.67409 ]
	SubspaceRotationAdjust: set factor to 0.175
ElecMinimize: Iter:  12  G: -1621.791463748136493  |grad|_K:  7.521e-06  alpha:  1.895e-01  linmin:  1.726e-05  t[s]:   5039.71
	Linear fluid (dielectric constant: 78.4, screening length: 8.12261 Bohr) occupying 0.567169 of unit cell:	Completed after 22 iterations at t[s]:   5055.38
	Linear fluid (dielectric constant: 78.4, screening length: 8.12261 Bohr) occupying 0.567065 of unit cell:	Completed after 14 iterations at t[s]:   5068.69
	FillingsUpdate:  mu: -0.097800000  nElectrons: 308.519534  magneticMoment: [ Abs: 1.05843  Tot: -0.64028 ]
	SubspaceRotationAdjust: set factor to 0.16
ElecMinimize: Iter:  13  G: -1621.793103901706672  |grad|_K:  6.549e-06  alpha:  2.056e-01  linmin:  9.570e-05  t[s]:   5081.75
	Linear fluid (dielectric constant: 78.4, screening length: 8.12261 Bohr) occupying 0.567557 of unit cell:	Completed after 23 iterations at t[s]:   5097.61
	Linear fluid (dielectric constant: 78.4, screening length: 8.12261 Bohr) occupying 0.567410 of unit cell:	Completed after 20 iterations at t[s]:   5111.28
	FillingsUpdate:  mu: -0.097800000  nElectrons: 308.579020  magneticMoment: [ Abs: 1.01992  Tot: -0.59658 ]
	SubspaceRotationAdjust: set factor to 0.128
ElecMinimize: Iter:  14  G: -1621.793903399662668  |grad|_K:  5.036e-06  alpha:  1.348e-01  linmin:  1.382e-05  t[s]:   5124.66
	Linear fluid (dielectric constant: 78.4, screening length: 8.12261 Bohr) occupying 0.567299 of unit cell:	Completed after 13 iterations at t[s]:   5139.28
	Linear fluid (dielectric constant: 78.4, screening length: 8.12261 Bohr) occupying 0.567195 of unit cell:	Completed after 13 iterations at t[s]:   5151.79
	FillingsUpdate:  mu: -0.097800000  nElectrons: 308.599725  magneticMoment: [ Abs: 0.98470  Tot: -0.55678 ]
	SubspaceRotationAdjust: set factor to 0.153
ElecMinimize: Iter:  15  G: -1621.794796819668136  |grad|_K:  4.405e-06  alpha:  2.496e-01  linmin:  1.580e-05  t[s]:   5164.90
	Linear fluid (dielectric constant: 78.4, screening length: 8.12261 Bohr) occupying 0.566653 of unit cell:	Completed after 21 iterations at t[s]:   5181.00
	Linear fluid (dielectric constant: 78.4, screening length: 8.12261 Bohr) occupying 0.566541 of unit cell:	Completed after 14 iterations at t[s]:   5193.83
	FillingsUpdate:  mu: -0.097800000  nElectrons: 308.583914  magneticMoment: [ Abs: 0.95396  Tot: -0.52218 ]
	SubspaceRotationAdjust: set factor to 0.143
ElecMinimize: Iter:  16  G: -1621.795620400632060  |grad|_K:  4.453e-06  alpha:  3.005e-01  linmin: -3.767e-05  t[s]:   5206.85
	Linear fluid (dielectric constant: 78.4, screening length: 8.12261 Bohr) occupying 0.566841 of unit cell:	Completed after 21 iterations at t[s]:   5223.12
	Linear fluid (dielectric constant: 78.4, screening length: 8.12261 Bohr) occupying 0.566726 of unit cell:	Completed after 17 iterations at t[s]:   5235.83
	FillingsUpdate:  mu: -0.097800000  nElectrons: 308.616909  magneticMoment: [ Abs: 0.92171  Tot: -0.48792 ]
	SubspaceRotationAdjust: set factor to 0.132
ElecMinimize: Iter:  17  G: -1621.796085363572956  |grad|_K:  3.427e-06  alpha:  1.678e-01  linmin:  6.579e-05  t[s]:   5249.34
	Linear fluid (dielectric constant: 78.4, screening length: 8.12261 Bohr) occupying 0.566647 of unit cell:	Completed after 10 iterations at t[s]:   5263.52
	Linear fluid (dielectric constant: 78.4, screening length: 8.12261 Bohr) occupying 0.566617 of unit cell:	Completed after 7 iterations at t[s]:   5276.17
	FillingsUpdate:  mu: -0.097800000  nElectrons: 308.622515  magneticMoment: [ Abs: 0.89755  Tot: -0.46435 ]
	SubspaceRotationAdjust: set factor to 0.143
ElecMinimize: Iter:  18  G: -1621.796462375501733  |grad|_K:  2.469e-06  alpha:  2.285e-01  linmin:  4.555e-05  t[s]:   5289.14
	Linear fluid (dielectric constant: 78.4, screening length: 8.12261 Bohr) occupying 0.566545 of unit cell:	Completed after 14 iterations at t[s]:   5303.69
	Linear fluid (dielectric constant: 78.4, screening length: 8.12261 Bohr) occupying 0.566543 of unit cell:	Completed after 2 iterations at t[s]:   5314.91
	FillingsUpdate:  mu: -0.097800000  nElectrons: 308.622762  magneticMoment: [ Abs: 0.87628  Tot: -0.44449 ]
	SubspaceRotationAdjust: set factor to 0.15
ElecMinimize: Iter:  19  G: -1621.796666126283071  |grad|_K:  2.274e-06  alpha:  2.372e-01  linmin: -1.159e-05  t[s]:   5327.77
	Linear fluid (dielectric constant: 78.4, screening length: 8.12261 Bohr) occupying 0.566571 of unit cell:	Completed after 15 iterations at t[s]:   5342.83
	Linear fluid (dielectric constant: 78.4, screening length: 8.12261 Bohr) occupying 0.566571 of unit cell:	Completed after 2 iterations at t[s]:   5353.57
	FillingsUpdate:  mu: -0.097800000  nElectrons: 308.627954  magneticMoment: [ Abs: 0.85127  Tot: -0.42009 ]
	SubspaceRotationAdjust: set factor to 0.155
ElecMinimize: Iter:  20  G: -1621.796841952962723  |grad|_K:  1.996e-06  alpha:  2.403e-01  linmin: -1.971e-05  t[s]:   5366.55
	Linear fluid (dielectric constant: 78.4, screening length: 8.12261 Bohr) occupying 0.566369 of unit cell:	Completed after 17 iterations at t[s]:   5382.04
	Linear fluid (dielectric constant: 78.4, screening length: 8.12261 Bohr) occupying 0.566378 of unit cell:	Completed after 4 iterations at t[s]:   5393.26
	FillingsUpdate:  mu: -0.097800000  nElectrons: 308.613692  magneticMoment: [ Abs: 0.83331  Tot: -0.40521 ]
	SubspaceRotationAdjust: set factor to 0.157
ElecMinimize: Iter:  21  G: -1621.796971537973604  |grad|_K:  1.812e-06  alpha:  2.298e-01  linmin: -2.066e-05  t[s]:   5406.43
	Linear fluid (dielectric constant: 78.4, screening length: 8.12261 Bohr) occupying 0.566383 of unit cell:	Completed after 14 iterations at t[s]:   5421.54
	Linear fluid (dielectric constant: 78.4, screening length: 8.12261 Bohr) occupying 0.566382 of unit cell:	Completed after 2 iterations at t[s]:   5432.36
	FillingsUpdate:  mu: -0.097800000  nElectrons: 308.612868  magneticMoment: [ Abs: 0.80991  Tot: -0.38568 ]
	SubspaceRotationAdjust: set factor to 0.166
ElecMinimize: Iter:  22  G: -1621.797075048532179  |grad|_K:  1.486e-06  alpha:  2.228e-01  linmin: -6.424e-07  t[s]:   5445.52
	Linear fluid (dielectric constant: 78.4, screening length: 8.12261 Bohr) occupying 0.566358 of unit cell:	Completed after 13 iterations at t[s]:   5460.61
	Linear fluid (dielectric constant: 78.4, screening length: 8.12261 Bohr) occupying 0.566349 of unit cell:	Completed after 10 iterations at t[s]:   5472.39
	FillingsUpdate:  mu: -0.097800000  nElectrons: 308.607388  magneticMoment: [ Abs: 0.78344  Tot: -0.36469 ]
	SubspaceRotationAdjust: set factor to 0.185
ElecMinimize: Iter:  23  G: -1621.797171443102570  |grad|_K:  1.467e-06  alpha:  3.094e-01  linmin:  3.881e-05  t[s]:   5485.59
	Linear fluid (dielectric constant: 78.4, screening length: 8.12261 Bohr) occupying 0.566026 of unit cell:	Completed after 17 iterations at t[s]:   5501.09
	Linear fluid (dielectric constant: 78.4, screening length: 8.12261 Bohr) occupying 0.566154 of unit cell:	Completed after 15 iterations at t[s]:   5513.93
	FillingsUpdate:  mu: -0.097800000  nElectrons: 308.590551  magneticMoment: [ Abs: 0.76606  Tot: -0.35412 ]
	SubspaceRotationAdjust: set factor to 0.169
ElecMinimize: Iter:  24  G: -1621.797227625096411  |grad|_K:  1.229e-06  alpha:  1.864e-01  linmin:  1.573e-05  t[s]:   5526.86
	Linear fluid (dielectric constant: 78.4, screening length: 8.12261 Bohr) occupying 0.566168 of unit cell:	Completed after 14 iterations at t[s]:   5541.39
	Linear fluid (dielectric constant: 78.4, screening length: 8.12261 Bohr) occupying 0.566173 of unit cell:	Completed after 10 iterations at t[s]:   5553.59
	FillingsUpdate:  mu: -0.097800000  nElectrons: 308.588235  magneticMoment: [ Abs: 0.74020  Tot: -0.33504 ]
	SubspaceRotationAdjust: set factor to 0.185
ElecMinimize: Iter:  25  G: -1621.797281076312402  |grad|_K:  1.103e-06  alpha:  2.504e-01  linmin: -7.333e-05  t[s]:   5566.73
	Linear fluid (dielectric constant: 78.4, screening length: 8.12261 Bohr) occupying 0.566172 of unit cell:	Completed after 14 iterations at t[s]:   5582.52
	Linear fluid (dielectric constant: 78.4, screening length: 8.12261 Bohr) occupying 0.566172 of unit cell:	Completed after 2 iterations at t[s]:   5593.58
	FillingsUpdate:  mu: -0.097800000  nElectrons: 308.584078  magneticMoment: [ Abs: 0.71819  Tot: -0.32052 ]
	SubspaceRotationAdjust: set factor to 0.191
ElecMinimize: Iter:  26  G: -1621.797322607125352  |grad|_K:  1.041e-06  alpha:  2.403e-01  linmin:  1.731e-05  t[s]:   5606.60
	Linear fluid (dielectric constant: 78.4, screening length: 8.12261 Bohr) occupying 0.566151 of unit cell:	Completed after 8 iterations at t[s]:   5620.57
	Linear fluid (dielectric constant: 78.4, screening length: 8.12261 Bohr) occupying 0.566146 of unit cell:	Completed after 3 iterations at t[s]:   5631.79
	FillingsUpdate:  mu: -0.097800000  nElectrons: 308.576644  magneticMoment: [ Abs: 0.68760  Tot: -0.30137 ]
	SubspaceRotationAdjust: set factor to 0.204
ElecMinimize: Iter:  27  G: -1621.797367756639687  |grad|_K:  1.013e-06  alpha:  2.955e-01  linmin:  1.131e-05  t[s]:   5645.02
	Linear fluid (dielectric constant: 78.4, screening length: 8.12261 Bohr) occupying 0.566219 of unit cell:	Completed after 14 iterations at t[s]:   5659.98
	Linear fluid (dielectric constant: 78.4, screening length: 8.12261 Bohr) occupying 0.566206 of unit cell:	Completed after 9 iterations at t[s]:   5671.95
	FillingsUpdate:  mu: -0.097800000  nElectrons: 308.576085  magneticMoment: [ Abs: 0.65826  Tot: -0.28162 ]
	SubspaceRotationAdjust: set factor to 0.206
ElecMinimize: Iter:  28  G: -1621.797402144707121  |grad|_K:  9.142e-07  alpha:  2.380e-01  linmin: -2.314e-05  t[s]:   5684.86
	Linear fluid (dielectric constant: 78.4, screening length: 8.12261 Bohr) occupying 0.566124 of unit cell:	Completed after 15 iterations at t[s]:   5699.72
	Linear fluid (dielectric constant: 78.4, screening length: 8.12261 Bohr) occupying 0.566144 of unit cell:	Completed after 10 iterations at t[s]:   5712.05
	FillingsUpdate:  mu: -0.097800000  nElectrons: 308.568290  magneticMoment: [ Abs: 0.63857  Tot: -0.27081 ]
	SubspaceRotationAdjust: set factor to 0.185
ElecMinimize: Iter:  29  G: -1621.797423439509430  |grad|_K:  8.128e-07  alpha:  1.795e-01  linmin:  1.546e-05  t[s]:   5724.89
	Linear fluid (dielectric constant: 78.4, screening length: 8.12261 Bohr) occupying 0.566187 of unit cell:	Completed after 12 iterations at t[s]:   5739.52
[...]
force Ni   0.000000000000000   0.000088139321143   0.000298886283937 1
force Ni   0.000000000000000   0.000189569690902   0.000175564911383 1
force Ni   0.000000000000000  -0.000210317052288   0.000192806845072 1
force Ni   0.000000000000000   0.000071826407062   0.000007737303724 1
force Ni   0.000000000000000   0.000215660880631   0.000126197088372 1
force Ni   0.000000000000000   0.000155312884698   0.000252278001582 1

# Energy components:
   A_diel =       -0.8037868215106215
   Eewald =     7568.5328211523574282
       EH =     9181.5612148443215119
     Eloc =   -18592.8111198181904911
      Enl =       80.3574392582078190
     EvdW =       -0.4628312744435853
      Exc =     -667.3715140362281772
 Exc_core =      413.2848897616551085
       KE =      365.8175486381484234
  MuShift =       -0.1038947765838888
-------------------------------------
     Etot =    -1651.9992330722686802
       TS =        0.0010097765115265
-------------------------------------
        F =    -1652.0002428487803172
      muN =      -30.1768473985532353
-------------------------------------
        G =    -1621.8233954502270535


Dumping 'jdft.fillings' ... done
Dumping 'jdft.wfns' ... done
Dumping 'jdft.fluidState' ... done
Dumping 'jdft.ionpos' ... done
Dumping 'jdft.lattice' ... done
Dumping 'jdft.eigenvals' ... done
Dumping 'jdft.eigStats' ... 
	eMin: -3.853804 at state 13 ( [ +0.000000 +0.200000 +0.000000 ] spin -1 )
	HOMO: -0.098623 at state 5 ( [ +0.166667 +0.400000 +0.000000 ] spin 1 )
	mu  : -0.097800
	LUMO: -0.097725 at state 22 ( [ +0.500000 +0.200000 +0.000000 ] spin -1 )
	eMax: +0.119808 at state 10 ( [ +0.500000 +0.200000 +0.000000 ] spin 1 )
	HOMO-LUMO gap: +0.000898
	Optical gap  : +0.003884 at state 0 ( [ +0.000000 +0.000000 +0.000000 ] spin 1 )
Dumping 'jdft.Ecomponents' ... done
IonicMinimize: Iter:  23  G: -1621.823395450227054  |grad|_K:  1.067e-04  alpha:  1.000e+00  linmin: -3.082e-02  t[s]:  42136.36

#--- Lowdin population analysis ---
# oxidation-state Au -0.177 -0.055 -0.054 -0.090 -0.293 -0.318 -0.286 -0.081 -0.051 -0.061 -0.222 -0.432 -0.177 -0.055 -0.054 -0.090 -0.293 -0.318
# magnetic-moments Au +0.000 -0.000 -0.000 +0.000 -0.000 -0.000 -0.000 +0.000 +0.000 -0.000 +0.000 +0.000 +0.000 -0.000 -0.000 +0.000 -0.000 -0.000
# oxidation-state Ni +0.107 +0.134 +0.208 +0.201 +0.219 +0.176
# magnetic-moments Ni -0.000 +0.000 -0.000 -0.000 +0.000 +0.000


Computing DFT-D3 correction:
# coordination-number Au 6.972 8.225 8.185 8.597 6.224 5.417 5.655 8.440 8.325 8.382 6.279 4.713 6.972 8.225 8.185 8.597 6.224 5.417
# coordination-number Ni 5.003 5.645 6.307 6.390 6.135 5.721
# diagonal-C6 Au 317.16 317.16 317.16 317.16 317.16 317.16 317.16 317.16 317.16 317.16 317.16 317.16 317.16 317.16 317.16 317.16 317.16 317.16
# diagonal-C6 Ni 141.13 139.50 135.86 135.30 136.96 139.19
EvdW_6 =   -0.165277
EvdW_8 =   -0.297583
Shifting auxilliary hamiltonian by -0.000018 to set nElectrons=308.556722

-------- Electronic minimization -----------
	Linear fluid (dielectric constant: 78.4, screening length: 8.12261 Bohr) occupying 0.566973 of unit cell:	Completed after 14 iterations at t[s]:  42152.79
	FillingsUpdate:  mu: -0.097800000  nElectrons: 308.556722  magneticMoment: [ Abs: 0.00000  Tot: -0.00000 ]
ElecMinimize: Iter:   0  G: -1621.823352209717541  |grad|_K:  5.484e-07  alpha:  1.000e+00
	Linear fluid (dielectric constant: 78.4, screening length: 8.12261 Bohr) occupying 0.567048 of unit cell:	Completed after 14 iterations at t[s]:  42184.00
	Linear fluid (dielectric constant: 78.4, screening length: 8.12261 Bohr) occupying 0.567007 of unit cell:	Completed after 13 iterations at t[s]:  42196.58
	FillingsUpdate:  mu: -0.097800000  nElectrons: 308.559236  magneticMoment: [ Abs: 0.00000  Tot: -0.00000 ]
	SubspaceRotationAdjust: set factor to 0.0963
ElecMinimize: Iter:   1  G: -1621.823371408753474  |grad|_K:  4.760e-07  alpha:  4.527e-01  linmin:  3.804e-05  t[s]:  42209.86
	Linear fluid (dielectric constant: 78.4, screening length: 8.12261 Bohr) occupying 0.566929 of unit cell:	Completed after 14 iterations at t[s]:  42224.84
	Linear fluid (dielectric constant: 78.4, screening length: 8.12261 Bohr) occupying 0.566977 of unit cell:	Completed after 13 iterations at t[s]:  42237.12
	FillingsUpdate:  mu: -0.097800000  nElectrons: 308.556993  magneticMoment: [ Abs: 0.00000  Tot: -0.00000 ]
	SubspaceRotationAdjust: set factor to 0.102
ElecMinimize: Iter:   2  G: -1621.823376984182914  |grad|_K:  2.696e-07  alpha:  1.741e-01  linmin: -2.541e-05  t[s]:  42250.31
	Linear fluid (dielectric constant: 78.4, screening length: 8.12261 Bohr) occupying 0.566975 of unit cell:	Completed after 2 iterations at t[s]:  42263.31
ElecMinimize: 	Predicted alpha/alphaT>3.000000, increasing alphaT to 5.221947e-01.
	Linear fluid (dielectric constant: 78.4, screening length: 8.12261 Bohr) occupying 0.566971 of unit cell:	Completed after 6 iterations at t[s]:  42274.75
	Linear fluid (dielectric constant: 78.4, screening length: 8.12261 Bohr) occupying 0.566970 of unit cell:	Completed after 2 iterations at t[s]:  42285.71
	FillingsUpdate:  mu: -0.097800000  nElectrons: 308.556503  magneticMoment: [ Abs: 0.00000  Tot: -0.00000 ]
	SubspaceRotationAdjust: set factor to 0.122
ElecMinimize: Iter:   3  G: -1621.823382705139238  |grad|_K:  2.744e-07  alpha:  5.567e-01  linmin: -5.299e-05  t[s]:  42298.62
	Linear fluid (dielectric constant: 78.4, screening length: 8.12261 Bohr) occupying 0.566980 of unit cell:	Completed after 9 iterations at t[s]:  42312.92
	Linear fluid (dielectric constant: 78.4, screening length: 8.12261 Bohr) occupying 0.566977 of unit cell:	Completed after 2 iterations at t[s]:  42323.70
	FillingsUpdate:  mu: -0.097800000  nElectrons: 308.556997  magneticMoment: [ Abs: 0.00000  Tot: -0.00000 ]
	SubspaceRotationAdjust: set factor to 0.141
ElecMinimize: Iter:   4  G: -1621.823386715971537  |grad|_K:  2.788e-07  alpha:  3.753e-01  linmin:  4.066e-05  t[s]:  42336.71
	Linear fluid (dielectric constant: 78.4, screening length: 8.12261 Bohr) occupying 0.566990 of unit cell:	Completed after 10 iterations at t[s]:  42351.02
	Linear fluid (dielectric constant: 78.4, screening length: 8.12261 Bohr) occupying 0.566990 of unit cell:	Completed after 0 iterations at t[s]:  42361.45
	FillingsUpdate:  mu: -0.097800000  nElectrons: 308.557977  magneticMoment: [ Abs: 0.00000  Tot: -0.00000 ]
	SubspaceRotationAdjust: set factor to 0.147
ElecMinimize: Iter:   5  G: -1621.823390747267922  |grad|_K:  3.114e-07  alpha:  3.679e-01  linmin:  1.216e-04  t[s]:  42374.41
	Linear fluid (dielectric constant: 78.4, screening length: 8.12261 Bohr) occupying 0.566951 of unit cell:	Completed after 13 iterations at t[s]:  42389.01
	Linear fluid (dielectric constant: 78.4, screening length: 8.12261 Bohr) occupying 0.566964 of unit cell:	Completed after 9 iterations at t[s]:  42400.97
	FillingsUpdate:  mu: -0.097800000  nElectrons: 308.556055  magneticMoment: [ Abs: 0.00000  Tot: -0.00000 ]
	SubspaceRotationAdjust: set factor to 0.124
ElecMinimize: Iter:   6  G: -1621.823394062332227  |grad|_K:  2.394e-07  alpha:  2.456e-01  linmin: -1.852e-05  t[s]:  42414.04
	Linear fluid (dielectric constant: 78.4, screening length: 8.12261 Bohr) occupying 0.566983 of unit cell:	Completed after 10 iterations at t[s]:  42428.49
	Linear fluid (dielectric constant: 78.4, screening length: 8.12261 Bohr) occupying 0.566993 of unit cell:	Completed after 9 iterations at t[s]:  42440.21
	FillingsUpdate:  mu: -0.097800000  nElectrons: 308.558320  magneticMoment: [ Abs: 0.00000  Tot: -0.00000 ]
	SubspaceRotationAdjust: set factor to 0.106
ElecMinimize: Iter:   7  G: -1621.823397227613896  |grad|_K:  2.649e-07  alpha:  3.908e-01  linmin:  1.248e-05  t[s]:  42453.42
	Linear fluid (dielectric constant: 78.4, screening length: 8.12261 Bohr) occupying 0.566964 of unit cell:	Completed after 12 iterations at t[s]:  42467.73
	Linear fluid (dielectric constant: 78.4, screening length: 8.12261 Bohr) occupying 0.566974 of unit cell:	Completed after 9 iterations at t[s]:  42481.12
	FillingsUpdate:  mu: -0.097800000  nElectrons: 308.556919  magneticMoment: [ Abs: 0.00000  Tot: -0.00000 ]
	SubspaceRotationAdjust: set factor to 0.0947
ElecMinimize: Iter:   8  G: -1621.823399735768589  |grad|_K:  2.131e-07  alpha:  2.531e-01  linmin:  1.424e-05  t[s]:  42494.06
	Linear fluid (dielectric constant: 78.4, screening length: 8.12261 Bohr) occupying 0.566971 of unit cell:	Completed after 2 iterations at t[s]:  42507.12
	Linear fluid (dielectric constant: 78.4, screening length: 8.12261 Bohr) occupying 0.566971 of unit cell:	Completed after 2 iterations at t[s]:  42517.89
	FillingsUpdate:  mu: -0.097800000  nElectrons: 308.556691  magneticMoment: [ Abs: 0.00000  Tot: -0.00000 ]
	SubspaceRotationAdjust: set factor to 0.101
ElecMinimize: Iter:   9  G: -1621.823401657855356  |grad|_K:  1.506e-07  alpha:  3.001e-01  linmin: -1.851e-05  t[s]:  42530.86
	Linear fluid (dielectric constant: 78.4, screening length: 8.12261 Bohr) occupying 0.566974 of unit cell:	Completed after 5 iterations at t[s]:  42544.39
	Linear fluid (dielectric constant: 78.4, screening length: 8.12261 Bohr) occupying 0.566974 of unit cell:	Completed after 2 iterations at t[s]:  42555.28
	FillingsUpdate:  mu: -0.097800000  nElectrons: 308.557000  magneticMoment: [ Abs: 0.00000  Tot: -0.00000 ]
	SubspaceRotationAdjust: set factor to 0.0971
ElecMinimize: Iter:  10  G: -1621.823402863002229  |grad|_K:  1.164e-07  alpha:  3.755e-01  linmin: -9.206e-05  t[s]:  42568.18
	Linear fluid (dielectric constant: 78.4, screening length: 8.12261 Bohr) occupying 0.566980 of unit cell:	Completed after 6 iterations at t[s]:  42581.98
	Linear fluid (dielectric constant: 78.4, screening length: 8.12261 Bohr) occupying 0.566978 of unit cell:	Completed after 2 iterations at t[s]:  42592.77
	FillingsUpdate:  mu: -0.097800000  nElectrons: 308.557330  magneticMoment: [ Abs: 0.00000  Tot: -0.00000 ]
	SubspaceRotationAdjust: set factor to 0.0903
ElecMinimize: Iter:  11  G: -1621.823403418051157  |grad|_K:  9.412e-08  alpha:  2.893e-01  linmin:  5.307e-05  t[s]:  42605.85
	Linear fluid (dielectric constant: 78.4, screening length: 8.12261 Bohr) occupying 0.566973 of unit cell:	Completed after 3 iterations at t[s]:  42619.08
	Linear fluid (dielectric constant: 78.4, screening length: 8.12261 Bohr) occupying 0.566973 of unit cell:	Completed after 0 iterations at t[s]:  42629.52
	FillingsUpdate:  mu: -0.097800000  nElectrons: 308.556986  magneticMoment: [ Abs: 0.00000  Tot: -0.00000 ]
	SubspaceRotationAdjust: set factor to 0.0862
ElecMinimize: Iter:  12  G: -1621.823403773813425  |grad|_K:  6.903e-08  alpha:  2.852e-01  linmin:  6.228e-05  t[s]:  42642.44
	Linear fluid (dielectric constant: 78.4, screening length: 8.12261 Bohr) occupying 0.566971 of unit cell:	Completed after 2 iterations at t[s]:  42655.49
	Linear fluid (dielectric constant: 78.4, screening length: 8.12261 Bohr) occupying 0.566971 of unit cell:	Completed after 0 iterations at t[s]:  42666.00
	FillingsUpdate:  mu: -0.097800000  nElectrons: 308.556853  magneticMoment: [ Abs: 0.00000  Tot: -0.00000 ]
	SubspaceRotationAdjust: set factor to 0.0867
ElecMinimize: Iter:  13  G: -1621.823403980951753  |grad|_K:  4.849e-08  alpha:  3.077e-01  linmin: -1.033e-03  t[s]:  42678.87
	Linear fluid (dielectric constant: 78.4, screening length: 8.12261 Bohr) occupying 0.566974 of unit cell:	Completed after 2 iterations at t[s]:  42691.94
	Linear fluid (dielectric constant: 78.4, screening length: 8.12261 Bohr) occupying 0.566974 of unit cell:	Completed after 0 iterations at t[s]:  42702.33
	FillingsUpdate:  mu: -0.097800000  nElectrons: 308.557129  magneticMoment: [ Abs: 0.00000  Tot: -0.00000 ]
	SubspaceRotationAdjust: set factor to 0.0887
ElecMinimize: Iter:  14  G: -1621.823404118135159  |grad|_K:  3.365e-08  alpha:  3.951e-01  linmin: -1.772e-03  t[s]:  42715.22
	Linear fluid (dielectric constant: 78.4, screening length: 8.12261 Bohr) occupying 0.566976 of unit cell:	Completed after 2 iterations at t[s]:  42728.22
	Linear fluid (dielectric constant: 78.4, screening length: 8.12261 Bohr) occupying 0.566976 of unit cell:	Completed after 0 iterations at t[s]:  42738.65
	FillingsUpdate:  mu: -0.097800000  nElectrons: 308.557233  magneticMoment: [ Abs: 0.00000  Tot: -0.00000 ]
	SubspaceRotationAdjust: set factor to 0.0889
ElecMinimize: Iter:  15  G: -1621.823404167754234  |grad|_K:  3.557e-08  alpha:  3.049e-01  linmin:  1.142e-04  t[s]:  42751.81
	Linear fluid (dielectric constant: 78.4, screening length: 8.12261 Bohr) occupying 0.566974 of unit cell:	Completed after 2 iterations at t[s]:  42764.89
	Linear fluid (dielectric constant: 78.4, screening length: 8.12261 Bohr) occupying 0.566974 of unit cell:	Completed after 0 iterations at t[s]:  42776.03
	FillingsUpdate:  mu: -0.097800000  nElectrons: 308.557133  magneticMoment: [ Abs: 0.00000  Tot: -0.00000 ]
	SubspaceRotationAdjust: set factor to 0.083
ElecMinimize: Iter:  16  G: -1621.823404206889563  |grad|_K:  2.853e-08  alpha:  2.202e-01  linmin:  2.944e-03  t[s]:  42789.01
ElecMinimize: Converged (|Delta G|<1.000000e-07 for 2 iters).
Setting wave functions to eigenvectors of Hamiltonian
Converging empty states (this may take a while): |deigs|: 8.009e-09

Computing DFT-D3 correction:
# coordination-number Au 6.972 8.225 8.185 8.597 6.224 5.417 5.655 8.440 8.325 8.382 6.279 4.713 6.972 8.225 8.185 8.597 6.224 5.417
# coordination-number Ni 5.003 5.645 6.307 6.390 6.135 5.721
# diagonal-C6 Au 317.16 317.16 317.16 317.16 317.16 317.16 317.16 317.16 317.16 317.16 317.16 317.16 317.16 317.16 317.16 317.16 317.16 317.16
# diagonal-C6 Ni 141.13 139.50 135.86 135.30 136.96 139.19
EvdW_6 =   -0.165277
EvdW_8 =   -0.297583

# Ionic positions in cartesian coordinates:
ion Au   7.864631786418295  -0.055525664121138   3.441768010888113 1
ion Au   2.601542428632984   4.249782895278220   6.803324031199280 1
ion Au   7.965574185585157   8.500535208516812  10.083608843618439 1
ion Au   2.642608304621311   0.028228983241601  12.770849244159463 1
ion Au   7.891230659824854   4.613563762453587  16.201176157052664 1
ion Au   2.647217392585170   8.268770716846729   0.940802332117726 1
ion Au  -0.000000000000000   3.942428801228103   1.726068240872467 1
ion Au   5.274699999999999   8.742177772530978   5.560915208621093 1
ion Au  -0.000000000000000  -0.143396240113124   8.152319171696504 1
ion Au   5.274699999999999   4.299401006981772  11.464439688908339 1
ion Au  -0.000000000000000   8.933946850509017  15.170467156609181 1
ion Au   5.274699999999999  -0.022214343250393  17.433954981853166 1
ion Au   2.684768213581707  12.864798335878856   3.441768010888113 1
ion Au   7.947857571367015   4.249782895278220   6.803324031199280 1
ion Au   2.583825814414841   8.500535208516812  10.083608843618439 1
ion Au   7.906791695378686   0.028228983241601  12.770849244159463 1
ion Au   2.658169340175144   4.613563762453587  16.201176157052664 1
ion Au   7.902182607414832   8.268770716846729   0.940802332117726 1
ion Ni  -0.000000000000000   0.546859238664488  16.977356055046393 1
ion Ni   5.274699999999999   4.239331180127053   2.481725153869372 1
ion Ni  -0.000000000000000   8.591312534828374   5.403980071736524 1
ion Ni   5.274699999999999   0.044750455765238   8.313450240730390 1
ion Ni  10.549399999999999   4.258154952436750  11.467513313366434 1
ion Ni   5.274699999999999   8.719127985860112  14.629909478618760 1

# Forces in Cartesian coordinates:
force Au   0.000054875918260   0.000072266729759   0.000242099346490 1
force Au  -0.000100964312230   0.000017781704062   0.000226914559088 1
force Au  -0.000063865991399   0.000085008140599   0.000119095426221 1
force Au   0.000129661302441   0.000218904727605   0.000120919615238 1
force Au  -0.000096504455485   0.000145441776294   0.000100620226709 1
force Au  -0.000159840364474   0.000164323764344   0.000072472621581 1
force Au   0.000000000000000   0.000542294765824   0.000127035228128 1
force Au   0.000000000000000   0.000153754390531   0.000246348028323 1
force Au   0.000000000000000   0.000099679728080   0.000228710522252 1
force Au   0.000000000000000   0.000125000053634   0.000253214665441 1
force Au   0.000000000000000   0.000144891789540   0.000204119757674 1
force Au   0.000000000000000   0.000061636253555   0.000083227491537 1
force Au  -0.000054875918260   0.000072266729759   0.000242099346490 1
force Au   0.000100964312230   0.000017781704062   0.000226914559088 1
force Au   0.000063865991399   0.000085008140599   0.000119095426221 1
force Au  -0.000129661302441   0.000218904727605   0.000120919615238 1
force Au   0.000096504455485   0.000145441776294   0.000100620226709 1
force Au   0.000159840364474   0.000164323764344   0.000072472621581 1
force Ni   0.000000000000000   0.000098548070517   0.000005445338409 1
force Ni   0.000000000000000   0.000293411828512   0.000186469490182 1
force Ni   0.000000000000000   0.000015875059008   0.000171622813938 1
force Ni   0.000000000000000   0.000062985109827   0.000182014580503 1
force Ni   0.000000000000000   0.000212038913336   0.000170484419648 1
force Ni   0.000000000000000   0.000144167329144   0.000192432871400 1

# Energy components:
   A_diel =       -0.8040060394702101
   Eewald =     7569.3454080056608291
       EH =     9182.4044048574287444
     Eloc =   -18594.4671198001015000
      Enl =       80.3577900865378609
     EvdW =       -0.4628593465577886
      Exc =     -667.3724575673275012
 Exc_core =      413.2848807349333811
       KE =      365.8185883574637955
  MuShift =       -0.1039114715520741
-------------------------------------
     Etot =    -1651.9992821829839613
       TS =        0.0010096028557262
-------------------------------------
        F =    -1652.0002917858396358
      muN =      -30.1768875789501827
-------------------------------------
        G =    -1621.8234042068895633


Dumping 'jdft.fillings' ... done
Dumping 'jdft.wfns' ... done
Dumping 'jdft.fluidState' ... done
Dumping 'jdft.ionpos' ... done
Dumping 'jdft.lattice' ... done
Dumping 'jdft.eigenvals' ... done
Dumping 'jdft.eigStats' ... 
	eMin: -3.853875 at state 13 ( [ +0.000000 +0.200000 +0.000000 ] spin -1 )
	HOMO: -0.098651 at state 5 ( [ +0.166667 +0.400000 +0.000000 ] spin 1 )
	mu  : -0.097800
	LUMO: -0.097736 at state 22 ( [ +0.500000 +0.200000 +0.000000 ] spin -1 )
	eMax: +0.119828 at state 22 ( [ +0.500000 +0.200000 +0.000000 ] spin -1 )
	HOMO-LUMO gap: +0.000915
	Optical gap  : +0.003901 at state 0 ( [ +0.000000 +0.000000 +0.000000 ] spin 1 )
Dumping 'jdft.Ecomponents' ... done
IonicMinimize: Iter:  24  G: -1621.823404206889563  |grad|_K:  8.546e-05  alpha:  1.000e+00  linmin: -1.642e-01  t[s]:  42823.94
IonicMinimize: Converged (|grad|_K<1.000000e-04).

#--- Lowdin population analysis ---
# oxidation-state Au -0.177 -0.055 -0.054 -0.090 -0.293 -0.318 -0.285 -0.080 -0.051 -0.061 -0.222 -0.432 -0.177 -0.055 -0.054 -0.090 -0.293 -0.318
# magnetic-moments Au +0.000 -0.000 -0.000 +0.000 -0.000 -0.000 -0.000 +0.000 +0.000 -0.000 +0.000 +0.000 +0.000 -0.000 -0.000 +0.000 -0.000 -0.000
# oxidation-state Ni +0.106 +0.133 +0.207 +0.200 +0.220 +0.178
# magnetic-moments Ni -0.000 +0.000 -0.000 -0.000 +0.000 +0.000


Dumping 'jdft.n_up' ... done
Dumping 'jdft.n_dn' ... done
Dumping 'jdft.tau_up' ... done
Dumping 'jdft.tau_dn' ... done
Dumping 'jdft.eigenvals' ... done
Dumping 'jdft.eigStats' ... 
	eMin: -3.853875 at state 13 ( [ +0.000000 +0.200000 +0.000000 ] spin -1 )
	HOMO: -0.098651 at state 5 ( [ +0.166667 +0.400000 +0.000000 ] spin 1 )
	mu  : -0.097800
	LUMO: -0.097736 at state 22 ( [ +0.500000 +0.200000 +0.000000 ] spin -1 )
	eMax: +0.119828 at state 22 ( [ +0.500000 +0.200000 +0.000000 ] spin -1 )
	HOMO-LUMO gap: +0.000915
	Optical gap  : +0.003901 at state 0 ( [ +0.000000 +0.000000 +0.000000 ] spin 1 )
Dumping 'jdft.kPts' ... done
Dumping 'jdft.kMap' ... done
Dumping 'jdft.dosUp' ... done.
Dumping 'jdft.dosDn' ... done.
End date and time: Sun Feb 27 06:38:37 2022  (Duration: 0-11:54:06.59)
Done!
