
*************** JDFTx 1.7.0 (git hash 5f12716a) ***************

Start date and time: Sat Sep 10 11:45:52 2022
Executable /home/nisi6161/jdftx_alpine/build/jdftx with command-line: -i in
Running on hosts (process indices):  c3cpu-a2-u32-4.rc.int.colorado.edu (0-23)
Divided in process groups (process indices):  0 (0)  1 (1)  2 (2)  3 (3)  4 (4)  5 (5)  6 (6)  7 (7)  8 (8)  9 (9)  10 (10)  11 (11)  12 (12)  13 (13)  14 (14)  15 (15)  16 (16)  17 (17)  18 (18)  19 (19)  20 (20)  21 (21)  22 (22)  23 (23)
Resource initialization completed at t[s]:      0.01
Run totals: 24 processes, 64 threads, 0 GPUs


Input parsed successfully to the following command list (including defaults):

basis kpoint-dependent
converge-empty-states yes
coords-type Cartesian
core-overlap-check none
coulomb-interaction Periodic
davidson-band-ratio 1.1
density-of-states Etol 1.000000e-06 Esigma 1.000000e-03 \
		Complete \
	Total \
	OrthoOrbital Cu 1   s \
	OrthoOrbital Cu 1   p \
	OrthoOrbital Cu 1   px \
	OrthoOrbital Cu 1   py \
	OrthoOrbital Cu 1   pz \
	OrthoOrbital Cu 1   d \
	OrthoOrbital Cu 1   dxy \
	OrthoOrbital Cu 1   dyz \
	OrthoOrbital Cu 1   dz2 \
	OrthoOrbital Cu 1   dxz \
	OrthoOrbital Cu 1   dx2-y2 \
	OrthoOrbital Cu 2   s \
	OrthoOrbital Cu 2   p \
	OrthoOrbital Cu 2   px \
	OrthoOrbital Cu 2   py \
	OrthoOrbital Cu 2   pz \
	OrthoOrbital Cu 2   d \
	OrthoOrbital Cu 2   dxy \
	OrthoOrbital Cu 2   dyz \
	OrthoOrbital Cu 2   dz2 \
	OrthoOrbital Cu 2   dxz \
	OrthoOrbital Cu 2   dx2-y2 \
	OrthoOrbital Cu 3   s \
	OrthoOrbital Cu 3   p \
	OrthoOrbital Cu 3   px \
	OrthoOrbital Cu 3   py \
	OrthoOrbital Cu 3   pz \
	OrthoOrbital Cu 3   d \
	OrthoOrbital Cu 3   dxy \
	OrthoOrbital Cu 3   dyz \
	OrthoOrbital Cu 3   dz2 \
	OrthoOrbital Cu 3   dxz \
	OrthoOrbital Cu 3   dx2-y2 \
	OrthoOrbital Cu 4   s \
	OrthoOrbital Cu 4   p \
	OrthoOrbital Cu 4   px \
	OrthoOrbital Cu 4   py \
	OrthoOrbital Cu 4   pz \
	OrthoOrbital Cu 4   d \
	OrthoOrbital Cu 4   dxy \
	OrthoOrbital Cu 4   dyz \
	OrthoOrbital Cu 4   dz2 \
	OrthoOrbital Cu 4   dxz \
	OrthoOrbital Cu 4   dx2-y2 \
	OrthoOrbital Cu 5   s \
	OrthoOrbital Cu 5   p \
	OrthoOrbital Cu 5   px \
	OrthoOrbital Cu 5   py \
	OrthoOrbital Cu 5   pz \
	OrthoOrbital Cu 5   d \
	OrthoOrbital Cu 5   dxy \
	OrthoOrbital Cu 5   dyz \
	OrthoOrbital Cu 5   dz2 \
	OrthoOrbital Cu 5   dxz \
	OrthoOrbital Cu 5   dx2-y2 \
	OrthoOrbital Cu 6   s \
	OrthoOrbital Cu 6   p \
	OrthoOrbital Cu 6   px \
	OrthoOrbital Cu 6   py \
	OrthoOrbital Cu 6   pz \
	OrthoOrbital Cu 6   d \
	OrthoOrbital Cu 6   dxy \
	OrthoOrbital Cu 6   dyz \
	OrthoOrbital Cu 6   dz2 \
	OrthoOrbital Cu 6   dxz \
	OrthoOrbital Cu 6   dx2-y2 \
	OrthoOrbital Cu 7   s \
	OrthoOrbital Cu 7   p \
	OrthoOrbital Cu 7   px \
	OrthoOrbital Cu 7   py \
	OrthoOrbital Cu 7   pz \
	OrthoOrbital Cu 7   d \
	OrthoOrbital Cu 7   dxy \
	OrthoOrbital Cu 7   dyz \
	OrthoOrbital Cu 7   dz2 \
	OrthoOrbital Cu 7   dxz \
	OrthoOrbital Cu 7   dx2-y2 \
	OrthoOrbital Cu 8   s \
	OrthoOrbital Cu 8   p \
	OrthoOrbital Cu 8   px \
	OrthoOrbital Cu 8   py \
	OrthoOrbital Cu 8   pz \
	OrthoOrbital Cu 8   d \
	OrthoOrbital Cu 8   dxy \
	OrthoOrbital Cu 8   dyz \
	OrthoOrbital Cu 8   dz2 \
	OrthoOrbital Cu 8   dxz \
	OrthoOrbital Cu 8   dx2-y2 \
	OrthoOrbital Cu 9   s \
	OrthoOrbital Cu 9   p \
	OrthoOrbital Cu 9   px \
	OrthoOrbital Cu 9   py \
	OrthoOrbital Cu 9   pz \
	OrthoOrbital Cu 9   d \
	OrthoOrbital Cu 9   dxy \
	OrthoOrbital Cu 9   dyz \
	OrthoOrbital Cu 9   dz2 \
	OrthoOrbital Cu 9   dxz \
	OrthoOrbital Cu 9   dx2-y2 \
	OrthoOrbital Cu 10   s \
	OrthoOrbital Cu 10   p \
	OrthoOrbital Cu 10   px \
	OrthoOrbital Cu 10   py \
	OrthoOrbital Cu 10   pz \
	OrthoOrbital Cu 10   d \
	OrthoOrbital Cu 10   dxy \
	OrthoOrbital Cu 10   dyz \
	OrthoOrbital Cu 10   dz2 \
	OrthoOrbital Cu 10   dxz \
	OrthoOrbital Cu 10   dx2-y2 \
	OrthoOrbital Cu 11   s \
	OrthoOrbital Cu 11   p \
	OrthoOrbital Cu 11   px \
	OrthoOrbital Cu 11   py \
	OrthoOrbital Cu 11   pz \
	OrthoOrbital Cu 11   d \
	OrthoOrbital Cu 11   dxy \
	OrthoOrbital Cu 11   dyz \
	OrthoOrbital Cu 11   dz2 \
	OrthoOrbital Cu 11   dxz \
	OrthoOrbital Cu 11   dx2-y2 \
	OrthoOrbital Cu 12   s \
	OrthoOrbital Cu 12   p \
	OrthoOrbital Cu 12   px \
	OrthoOrbital Cu 12   py \
	OrthoOrbital Cu 12   pz \
	OrthoOrbital Cu 12   d \
	OrthoOrbital Cu 12   dxy \
	OrthoOrbital Cu 12   dyz \
	OrthoOrbital Cu 12   dz2 \
	OrthoOrbital Cu 12   dxz \
	OrthoOrbital Cu 12   dx2-y2 \
	OrthoOrbital Cu 13   s \
	OrthoOrbital Cu 13   p \
	OrthoOrbital Cu 13   px \
	OrthoOrbital Cu 13   py \
	OrthoOrbital Cu 13   pz \
	OrthoOrbital Cu 13   d \
	OrthoOrbital Cu 13   dxy \
	OrthoOrbital Cu 13   dyz \
	OrthoOrbital Cu 13   dz2 \
	OrthoOrbital Cu 13   dxz \
	OrthoOrbital Cu 13   dx2-y2 \
	OrthoOrbital Cu 14   s \
	OrthoOrbital Cu 14   p \
	OrthoOrbital Cu 14   px \
	OrthoOrbital Cu 14   py \
	OrthoOrbital Cu 14   pz \
	OrthoOrbital Cu 14   d \
	OrthoOrbital Cu 14   dxy \
	OrthoOrbital Cu 14   dyz \
	OrthoOrbital Cu 14   dz2 \
	OrthoOrbital Cu 14   dxz \
	OrthoOrbital Cu 14   dx2-y2 \
	OrthoOrbital Cu 15   s \
	OrthoOrbital Cu 15   p \
	OrthoOrbital Cu 15   px \
	OrthoOrbital Cu 15   py \
	OrthoOrbital Cu 15   pz \
	OrthoOrbital Cu 15   d \
	OrthoOrbital Cu 15   dxy \
	OrthoOrbital Cu 15   dyz \
	OrthoOrbital Cu 15   dz2 \
	OrthoOrbital Cu 15   dxz \
	OrthoOrbital Cu 15   dx2-y2 \
	OrthoOrbital Cu 16   s \
	OrthoOrbital Cu 16   p \
	OrthoOrbital Cu 16   px \
	OrthoOrbital Cu 16   py \
	OrthoOrbital Cu 16   pz \
	OrthoOrbital Cu 16   d \
	OrthoOrbital Cu 16   dxy \
	OrthoOrbital Cu 16   dyz \
	OrthoOrbital Cu 16   dz2 \
	OrthoOrbital Cu 16   dxz \
	OrthoOrbital Cu 16   dx2-y2 \
	OrthoOrbital Cu 17   s \
	OrthoOrbital Cu 17   p \
	OrthoOrbital Cu 17   px \
	OrthoOrbital Cu 17   py \
	OrthoOrbital Cu 17   pz \
	OrthoOrbital Cu 17   d \
	OrthoOrbital Cu 17   dxy \
	OrthoOrbital Cu 17   dyz \
	OrthoOrbital Cu 17   dz2 \
	OrthoOrbital Cu 17   dxz \
	OrthoOrbital Cu 17   dx2-y2 \
	OrthoOrbital Cu 18   s \
	OrthoOrbital Cu 18   p \
	OrthoOrbital Cu 18   px \
	OrthoOrbital Cu 18   py \
	OrthoOrbital Cu 18   pz \
	OrthoOrbital Cu 18   d \
	OrthoOrbital Cu 18   dxy \
	OrthoOrbital Cu 18   dyz \
	OrthoOrbital Cu 18   dz2 \
	OrthoOrbital Cu 18   dxz \
	OrthoOrbital Cu 18   dx2-y2 \
	OrthoOrbital Cu 19   s \
	OrthoOrbital Cu 19   p \
	OrthoOrbital Cu 19   px \
	OrthoOrbital Cu 19   py \
	OrthoOrbital Cu 19   pz \
	OrthoOrbital Cu 19   d \
	OrthoOrbital Cu 19   dxy \
	OrthoOrbital Cu 19   dyz \
	OrthoOrbital Cu 19   dz2 \
	OrthoOrbital Cu 19   dxz \
	OrthoOrbital Cu 19   dx2-y2 \
	OrthoOrbital Cu 20   s \
	OrthoOrbital Cu 20   p \
	OrthoOrbital Cu 20   px \
	OrthoOrbital Cu 20   py \
	OrthoOrbital Cu 20   pz \
	OrthoOrbital Cu 20   d \
	OrthoOrbital Cu 20   dxy \
	OrthoOrbital Cu 20   dyz \
	OrthoOrbital Cu 20   dz2 \
	OrthoOrbital Cu 20   dxz \
	OrthoOrbital Cu 20   dx2-y2 \
	OrthoOrbital Cu 21   s \
	OrthoOrbital Cu 21   p \
	OrthoOrbital Cu 21   px \
	OrthoOrbital Cu 21   py \
	OrthoOrbital Cu 21   pz \
	OrthoOrbital Cu 21   d \
	OrthoOrbital Cu 21   dxy \
	OrthoOrbital Cu 21   dyz \
	OrthoOrbital Cu 21   dz2 \
	OrthoOrbital Cu 21   dxz \
	OrthoOrbital Cu 21   dx2-y2 \
	OrthoOrbital Cu 22   s \
	OrthoOrbital Cu 22   p \
	OrthoOrbital Cu 22   px \
	OrthoOrbital Cu 22   py \
	OrthoOrbital Cu 22   pz \
	OrthoOrbital Cu 22   d \
	OrthoOrbital Cu 22   dxy \
	OrthoOrbital Cu 22   dyz \
	OrthoOrbital Cu 22   dz2 \
	OrthoOrbital Cu 22   dxz \
	OrthoOrbital Cu 22   dx2-y2 \
	OrthoOrbital Cu 23   s \
	OrthoOrbital Cu 23   p \
	OrthoOrbital Cu 23   px \
	OrthoOrbital Cu 23   py \
	OrthoOrbital Cu 23   pz \
	OrthoOrbital Cu 23   d \
	OrthoOrbital Cu 23   dxy \
	OrthoOrbital Cu 23   dyz \
	OrthoOrbital Cu 23   dz2 \
	OrthoOrbital Cu 23   dxz \
	OrthoOrbital Cu 23   dx2-y2 \
	OrthoOrbital Cu 24   s \
	OrthoOrbital Cu 24   p \
	OrthoOrbital Cu 24   px \
	OrthoOrbital Cu 24   py \
	OrthoOrbital Cu 24   pz \
	OrthoOrbital Cu 24   d \
	OrthoOrbital Cu 24   dxy \
	OrthoOrbital Cu 24   dyz \
	OrthoOrbital Cu 24   dz2 \
	OrthoOrbital Cu 24   dxz \
	OrthoOrbital Cu 24   dx2-y2 \
	OrthoOrbital Cu 25   s \
	OrthoOrbital Cu 25   p \
	OrthoOrbital Cu 25   px \
	OrthoOrbital Cu 25   py \
	OrthoOrbital Cu 25   pz \
	OrthoOrbital Cu 25   d \
	OrthoOrbital Cu 25   dxy \
	OrthoOrbital Cu 25   dyz \
	OrthoOrbital Cu 25   dz2 \
	OrthoOrbital Cu 25   dxz \
	OrthoOrbital Cu 25   dx2-y2 \
	OrthoOrbital Cu 26   s \
	OrthoOrbital Cu 26   p \
	OrthoOrbital Cu 26   px \
	OrthoOrbital Cu 26   py \
	OrthoOrbital Cu 26   pz \
	OrthoOrbital Cu 26   d \
	OrthoOrbital Cu 26   dxy \
	OrthoOrbital Cu 26   dyz \
	OrthoOrbital Cu 26   dz2 \
	OrthoOrbital Cu 26   dxz \
	OrthoOrbital Cu 26   dx2-y2 \
	OrthoOrbital Cu 27   s \
	OrthoOrbital Cu 27   p \
	OrthoOrbital Cu 27   px \
	OrthoOrbital Cu 27   py \
	OrthoOrbital Cu 27   pz \
	OrthoOrbital Cu 27   d \
	OrthoOrbital Cu 27   dxy \
	OrthoOrbital Cu 27   dyz \
	OrthoOrbital Cu 27   dz2 \
	OrthoOrbital Cu 27   dxz \
	OrthoOrbital Cu 27   dx2-y2 \
	OrthoOrbital Cu 28   s \
	OrthoOrbital Cu 28   p \
	OrthoOrbital Cu 28   px \
	OrthoOrbital Cu 28   py \
	OrthoOrbital Cu 28   pz \
	OrthoOrbital Cu 28   d \
	OrthoOrbital Cu 28   dxy \
	OrthoOrbital Cu 28   dyz \
	OrthoOrbital Cu 28   dz2 \
	OrthoOrbital Cu 28   dxz \
	OrthoOrbital Cu 28   dx2-y2 \
	OrthoOrbital Cu 29   s \
	OrthoOrbital Cu 29   p \
	OrthoOrbital Cu 29   px \
	OrthoOrbital Cu 29   py \
	OrthoOrbital Cu 29   pz \
	OrthoOrbital Cu 29   d \
	OrthoOrbital Cu 29   dxy \
	OrthoOrbital Cu 29   dyz \
	OrthoOrbital Cu 29   dz2 \
	OrthoOrbital Cu 29   dxz \
	OrthoOrbital Cu 29   dx2-y2 \
	OrthoOrbital Cu 30   s \
	OrthoOrbital Cu 30   p \
	OrthoOrbital Cu 30   px \
	OrthoOrbital Cu 30   py \
	OrthoOrbital Cu 30   pz \
	OrthoOrbital Cu 30   d \
	OrthoOrbital Cu 30   dxy \
	OrthoOrbital Cu 30   dyz \
	OrthoOrbital Cu 30   dz2 \
	OrthoOrbital Cu 30   dxz \
	OrthoOrbital Cu 30   dx2-y2 \
	OrthoOrbital Cu 31   s \
	OrthoOrbital Cu 31   p \
	OrthoOrbital Cu 31   px \
	OrthoOrbital Cu 31   py \
	OrthoOrbital Cu 31   pz \
	OrthoOrbital Cu 31   d \
	OrthoOrbital Cu 31   dxy \
	OrthoOrbital Cu 31   dyz \
	OrthoOrbital Cu 31   dz2 \
	OrthoOrbital Cu 31   dxz \
	OrthoOrbital Cu 31   dx2-y2 \
	OrthoOrbital Cu 32   s \
	OrthoOrbital Cu 32   p \
	OrthoOrbital Cu 32   px \
	OrthoOrbital Cu 32   py \
	OrthoOrbital Cu 32   pz \
	OrthoOrbital Cu 32   d \
	OrthoOrbital Cu 32   dxy \
	OrthoOrbital Cu 32   dyz \
	OrthoOrbital Cu 32   dz2 \
	OrthoOrbital Cu 32   dxz \
	OrthoOrbital Cu 32   dx2-y2 \
	OrthoOrbital Cu 33   s \
	OrthoOrbital Cu 33   p \
	OrthoOrbital Cu 33   px \
	OrthoOrbital Cu 33   py \
	OrthoOrbital Cu 33   pz \
	OrthoOrbital Cu 33   d \
	OrthoOrbital Cu 33   dxy \
	OrthoOrbital Cu 33   dyz \
	OrthoOrbital Cu 33   dz2 \
	OrthoOrbital Cu 33   dxz \
	OrthoOrbital Cu 33   dx2-y2 \
	OrthoOrbital Cu 34   s \
	OrthoOrbital Cu 34   p \
	OrthoOrbital Cu 34   px \
	OrthoOrbital Cu 34   py \
	OrthoOrbital Cu 34   pz \
	OrthoOrbital Cu 34   d \
	OrthoOrbital Cu 34   dxy \
	OrthoOrbital Cu 34   dyz \
	OrthoOrbital Cu 34   dz2 \
	OrthoOrbital Cu 34   dxz \
	OrthoOrbital Cu 34   dx2-y2 \
	OrthoOrbital Cu 35   s \
	OrthoOrbital Cu 35   p \
	OrthoOrbital Cu 35   px \
	OrthoOrbital Cu 35   py \
	OrthoOrbital Cu 35   pz \
	OrthoOrbital Cu 35   d \
	OrthoOrbital Cu 35   dxy \
	OrthoOrbital Cu 35   dyz \
	OrthoOrbital Cu 35   dz2 \
	OrthoOrbital Cu 35   dxz \
	OrthoOrbital Cu 35   dx2-y2 \
	OrthoOrbital Cu 36   s \
	OrthoOrbital Cu 36   p \
	OrthoOrbital Cu 36   px \
	OrthoOrbital Cu 36   py \
	OrthoOrbital Cu 36   pz \
	OrthoOrbital Cu 36   d \
	OrthoOrbital Cu 36   dxy \
	OrthoOrbital Cu 36   dyz \
	OrthoOrbital Cu 36   dz2 \
	OrthoOrbital Cu 36   dxz \
	OrthoOrbital Cu 36   dx2-y2 \
	OrthoOrbital Cu 37   s \
	OrthoOrbital Cu 37   p \
	OrthoOrbital Cu 37   px \
	OrthoOrbital Cu 37   py \
	OrthoOrbital Cu 37   pz \
	OrthoOrbital Cu 37   d \
	OrthoOrbital Cu 37   dxy \
	OrthoOrbital Cu 37   dyz \
	OrthoOrbital Cu 37   dz2 \
	OrthoOrbital Cu 37   dxz \
	OrthoOrbital Cu 37   dx2-y2 \
	OrthoOrbital Cu 38   s \
	OrthoOrbital Cu 38   p \
	OrthoOrbital Cu 38   px \
	OrthoOrbital Cu 38   py \
	OrthoOrbital Cu 38   pz \
	OrthoOrbital Cu 38   d \
	OrthoOrbital Cu 38   dxy \
	OrthoOrbital Cu 38   dyz \
	OrthoOrbital Cu 38   dz2 \
	OrthoOrbital Cu 38   dxz \
	OrthoOrbital Cu 38   dx2-y2 \
	OrthoOrbital Cu 39   s \
	OrthoOrbital Cu 39   p \
	OrthoOrbital Cu 39   px \
	OrthoOrbital Cu 39   py \
	OrthoOrbital Cu 39   pz \
	OrthoOrbital Cu 39   d \
	OrthoOrbital Cu 39   dxy \
	OrthoOrbital Cu 39   dyz \
	OrthoOrbital Cu 39   dz2 \
	OrthoOrbital Cu 39   dxz \
	OrthoOrbital Cu 39   dx2-y2 \
	OrthoOrbital Cu 40   s \
	OrthoOrbital Cu 40   p \
	OrthoOrbital Cu 40   px \
	OrthoOrbital Cu 40   py \
	OrthoOrbital Cu 40   pz \
	OrthoOrbital Cu 40   d \
	OrthoOrbital Cu 40   dxy \
	OrthoOrbital Cu 40   dyz \
	OrthoOrbital Cu 40   dz2 \
	OrthoOrbital Cu 40   dxz \
	OrthoOrbital Cu 40   dx2-y2 \
	OrthoOrbital Cu 41   s \
	OrthoOrbital Cu 41   p \
	OrthoOrbital Cu 41   px \
	OrthoOrbital Cu 41   py \
	OrthoOrbital Cu 41   pz \
	OrthoOrbital Cu 41   d \
	OrthoOrbital Cu 41   dxy \
	OrthoOrbital Cu 41   dyz \
	OrthoOrbital Cu 41   dz2 \
	OrthoOrbital Cu 41   dxz \
	OrthoOrbital Cu 41   dx2-y2 \
	OrthoOrbital Cu 42   s \
	OrthoOrbital Cu 42   p \
	OrthoOrbital Cu 42   px \
	OrthoOrbital Cu 42   py \
	OrthoOrbital Cu 42   pz \
	OrthoOrbital Cu 42   d \
	OrthoOrbital Cu 42   dxy \
	OrthoOrbital Cu 42   dyz \
	OrthoOrbital Cu 42   dz2 \
	OrthoOrbital Cu 42   dxz \
	OrthoOrbital Cu 42   dx2-y2 \
	OrthoOrbital Cu 43   s \
	OrthoOrbital Cu 43   p \
	OrthoOrbital Cu 43   px \
	OrthoOrbital Cu 43   py \
	OrthoOrbital Cu 43   pz \
	OrthoOrbital Cu 43   d \
	OrthoOrbital Cu 43   dxy \
	OrthoOrbital Cu 43   dyz \
	OrthoOrbital Cu 43   dz2 \
	OrthoOrbital Cu 43   dxz \
	OrthoOrbital Cu 43   dx2-y2 \
	OrthoOrbital Cu 44   s \
	OrthoOrbital Cu 44   p \
	OrthoOrbital Cu 44   px \
	OrthoOrbital Cu 44   py \
	OrthoOrbital Cu 44   pz \
	OrthoOrbital Cu 44   d \
	OrthoOrbital Cu 44   dxy \
	OrthoOrbital Cu 44   dyz \
	OrthoOrbital Cu 44   dz2 \
	OrthoOrbital Cu 44   dxz \
	OrthoOrbital Cu 44   dx2-y2
dump End ElecDensity KEdensity BandEigs EigStats RhoAtom DOS Kpoints
dump Ionic State IonicPositions Lattice EigStats Ecomponents
dump 
dump 
dump 
dump 
dump 
dump 
dump 
dump 
dump-name jdft.$VAR
elec-cutoff 20
elec-eigen-algo Davidson
elec-ex-corr gga-PBE
elec-initial-magnetization 0.000000 no
elec-n-bands 502
elec-smearing Fermi 0.001
electronic-minimize  \
	dirUpdateScheme      FletcherReeves \
	linminMethod         DirUpdateRecommended \
	nIterations          100 \
	history              15 \
	knormThreshold       0 \
	energyDiffThreshold  1e-07 \
	nEnergyDiff          2 \
	alphaTstart          1 \
	alphaTmin            1e-10 \
	updateTestStepSize   yes \
	alphaTreduceFactor   0.1 \
	alphaTincreaseFactor 3 \
	nAlphaAdjustMax      3 \
	wolfeEnergy          0.0001 \
	wolfeGradient        0.9 \
	fdTest               no
exchange-regularization WignerSeitzTruncated
fluid LinearPCM 298.000000 1.013250
fluid-anion F- 0.5 MeanFieldLJ \
	epsBulk 1 \
	pMol 0 \
	epsInf 1 \
	Pvap 0 \
	sigmaBulk 0 \
	Rvdw 2.24877 \
	Res 0 \
	tauNuc 343133
fluid-cation Na+ 0.5 MeanFieldLJ \
	epsBulk 1 \
	pMol 0 \
	epsInf 1 \
	Pvap 0 \
	sigmaBulk 0 \
	Rvdw 2.19208 \
	Res 0 \
	tauNuc 343133
fluid-ex-corr lda-TF lda-PZ
fluid-gummel-loop 10 1.000000e-05
fluid-minimize  \
	dirUpdateScheme      PolakRibiere \
	linminMethod         DirUpdateRecommended \
	nIterations          400 \
	history              15 \
	knormThreshold       1e-11 \
	energyDiffThreshold  0 \
	nEnergyDiff          2 \
	alphaTstart          1 \
	alphaTmin            1e-10 \
	updateTestStepSize   yes \
	alphaTreduceFactor   0.1 \
	alphaTincreaseFactor 3 \
	nAlphaAdjustMax      6 \
	wolfeEnergy          0.0001 \
	wolfeGradient        0.9 \
	fdTest               no
fluid-solvent H2O 55.338 ScalarEOS \
	epsBulk 78.4 \
	pMol 0.92466 \
	epsInf 1.77 \
	Pvap 1.06736e-10 \
	sigmaBulk 4.62e-05 \
	Rvdw 2.61727 \
	Res 1.42 \
	tauNuc 343133 \
	poleEl 15 7 1
forces-output-coords Positions
initial-state jdft.$VAR
ion Cu   0.000105000000000  14.180410999999999  62.163095000000006 1
ion Cu   0.000124000000000  20.445616000000001  59.362038000000005 1
ion Cu   0.000005000000000   6.117556000000000  60.783087000000009 1
ion Cu  -0.000029000000000  12.195517000000002  57.833804000000008 1
ion Cu   0.000010000000000  18.332256000000001  54.971155000000010 1
ion Cu  -0.000014000000000  16.264862999999998  50.660392000000009 1
ion Cu  -0.000224000000000  22.424362000000002  32.116569000000005 1
ion Cu   0.000000000000000   4.059755000000000  56.451329000000008 1
ion Cu   4.766664999999999  10.163449000000000  53.539040000000007 1
ion Cu   0.000095000000000   2.035422000000000  52.115019000000004 1
ion Cu   0.000010000000000   8.128183999999999  49.229985000000006 1
ion Cu   0.000029000000000  14.227519000000001  46.342674000000009 1
ion Cu  -0.000033000000000  20.317352000000000  43.477748000000005 1
ion Cu  -0.000043000000000  12.202000999999999  42.016607999999998 1
ion Cu  -0.000033000000000  18.276474000000000  39.140363000000008 1
ion Cu   0.000019000000000  22.360308000000000  47.790092000000008 1
ion Cu   0.000100000000000   6.097658000000001  44.914669000000011 1
ion Cu  -0.000048000000000   4.046116000000000  40.598784999999999 1
ion Cu   0.000000000000000  10.163986000000000  37.718113000000010 1
ion Cu   0.000005000000000  16.212502000000001  34.740248000000008 1
ion Cu  -0.000043000000000   1.998890000000000  36.332351000000010 1
ion Cu  -0.000153000000000   8.138401000000000  33.385091000000010 1
ion Cu   2.383364000000000  16.295179999999998  58.521436000000008 1
ion Cu   2.383354000000000  22.373186000000000  55.714372000000004 1
ion Cu   2.383335000000000   8.128631000000000  57.137128000000004 1
ion Cu   2.383306000000000  14.245806999999999  54.255761000000007 1
ion Cu   2.383364000000000  20.331727000000001  51.375912000000007 1
ion Cu   2.383292000000000  18.288592000000001  47.063379000000005 1
ion Cu   2.383340000000000   2.081679000000000  60.115689000000010 1
ion Cu   2.383397000000000   6.089855000000000  52.837748000000005 1
ion Cu   2.383283000000000  12.193684000000001  49.939497000000010 1
ion Cu   2.383335000000000   4.063846000000000  48.511050000000004 1
ion Cu   2.383388000000000  10.164075000000000  45.623992000000001 1
ion Cu   2.383273000000000  16.257104999999999  42.739147000000010 1
ion Cu   2.383259000000000  -0.038388000000000  39.883012000000008 1
ion Cu   2.383273000000000  14.231788999999999  38.403786000000004 1
ion Cu   2.383259000000000  20.206302000000001  35.494342000000010 1
ion Cu   2.383373000000000   2.027507000000000  44.193711000000008 1
ion Cu   2.383216000000000   8.129189999999999  41.315759000000007 1
ion Cu   2.383316000000000   6.096317000000000  37.021248000000007 1
ion Cu   2.383235000000000  12.174903999999998  34.072534000000005 1
ion Cu   2.383454000000000  18.223576999999999  62.738166000000007 1
ion Cu   2.383140000000000   4.112988000000000  32.690882000000002 1
ion Cu   2.383359000000000  10.155154000000000  61.470846000000009 1
ion-species /projects/musgravc/apps/jdftx-1.6.0/build/pseudopotentials/GBRV_v1.5/$ID_pbe_v1.uspp
ion-species /projects/musgravc/apps/jdftx-1.6.0/build/pseudopotentials/GBRV_v1.5/$ID_pbe_v1.2.uspp
ion-species /projects/musgravc/apps/jdftx-1.6.0/build/pseudopotentials/GBRV_v1.5/$ID_pbe_v1.4.uspp
ion-species /projects/musgravc/apps/jdftx-1.6.0/build/pseudopotentials/GBRV_v1.5/$ID_pbe_v1.5.uspp
ion-width Ecut
ionic-minimize  \
	dirUpdateScheme      L-BFGS \
	linminMethod         DirUpdateRecommended \
	nIterations          100 \
	history              15 \
	knormThreshold       0.0001 \
	energyDiffThreshold  0.0001 \
	nEnergyDiff          2 \
	alphaTstart          1 \
	alphaTmin            1e-10 \
	updateTestStepSize   yes \
	alphaTreduceFactor   0.1 \
	alphaTincreaseFactor 3 \
	nAlphaAdjustMax      3 \
	wolfeEnergy          0.0001 \
	wolfeGradient        0.9 \
	fdTest               no
kpoint   0.000000000000   0.000000000000   0.000000000000  1.00000000000000
kpoint-folding 11 2 1 
latt-move-scale 0 0 0
latt-scale 1 1 1 
lattice  \
	   4.766623000000000    0.000000000000000    0.000000000000000  \
	   0.000000000000000   22.357445999999999    0.000000000000000  \
	   0.000000000000000    0.000000000000000   63.236406000000002 
lattice-minimize  \
	dirUpdateScheme      L-BFGS \
	linminMethod         DirUpdateRecommended \
	nIterations          0 \
	history              15 \
	knormThreshold       0 \
	energyDiffThreshold  1e-06 \
	nEnergyDiff          2 \
	alphaTstart          1 \
	alphaTmin            1e-10 \
	updateTestStepSize   yes \
	alphaTreduceFactor   0.1 \
	alphaTincreaseFactor 3 \
	nAlphaAdjustMax      3 \
	wolfeEnergy          0.0001 \
	wolfeGradient        0.9 \
	fdTest               no
lcao-params 30 1e-06 0.001
pcm-variant CANDLE
spintype z-spin
subspace-rotation-factor 1 yes
symmetries automatic
symmetry-threshold 0.0001
target-mu -0.208 no

van-der-waals D3



---------- Setting up symmetries ----------

Found 8 point-group symmetries of the bravais lattice
Found 1 space-group symmetries with basis
Applied RMS atom displacement 0 bohrs to make symmetries exact.

---------- Initializing the Grid ----------
R = 
[      4.76662            0            0  ]
[            0      22.3574            0  ]
[            0            0      63.2364  ]
unit cell volume = 6739.07
G =
[    1.31816          0          0  ]
[          0   0.281033          0  ]
[          0          0  0.0993603  ]
Minimum fftbox size, Smin = [  20  92  256  ]
Chosen fftbox size, S = [  20  96  256  ]

---------- Exchange Correlation functional ----------
Initalized PBE GGA exchange.
Initalized PBE GGA correlation.

---------- Setting up pseudopotentials ----------
Width of ionic core gaussian charges (only for fluid interactions / plotting) set to 0.397384

Reading pseudopotential file '/projects/musgravc/apps/jdftx-1.6.0/build/pseudopotentials/GBRV_v1.5/cu_pbe_v1.2.uspp':
  Title: Cu.  Created by USPP 7.3.6 on 3-2-2014
  Reference state energy: -201.059491.  19 valence electrons in orbitals:
    |300>  occupation: 2  eigenvalue: -5.020764
    |310>  occupation: 6  eigenvalue: -3.445588
    |320>  occupation: 8  eigenvalue: -0.925168
    |400>  occupation: 2  eigenvalue: -0.567638
    |410>  occupation: 0  eigenvalue: -0.326154
  lMax: 2  lLocal: 3  QijEcut: 6
  6 projectors sampled on a log grid with 613 points:
    l: 0  eig: -5.020767  rCut: 1.4
    l: 0  eig: -0.567640  rCut: 1.4
    l: 1  eig: -3.445589  rCut: 1.55
    l: 1  eig: -0.326157  rCut: 1.55
    l: 2  eig: -0.925170  rCut: 1.5
    l: 2  eig: 1.500000  rCut: 1.5
  Partial core density with radius 0.8
  Transforming core density to a uniform radial grid of dG=0.02 with 1143 points.
  Transforming local potential to a uniform radial grid of dG=0.02 with 1143 points.
  Transforming nonlocal projectors to a uniform radial grid of dG=0.02 with 432 points.
  Transforming density augmentations to a uniform radial grid of dG=0.02 with 1143 points.
  Transforming atomic orbitals to a uniform radial grid of dG=0.02 with 432 points.
  Core radius for overlap checks: 1.55 bohrs.

Initialized 1 species with 44 total atoms.

Folded 1 k-points by 11x2x1 to 22 k-points.

---------- Setting up k-points, bands, fillings ----------
Adding inversion symmetry to k-mesh for non-inversion-symmetric unit cell.
Reduced to 12 k-points under symmetry. 
Computing the number of bands and number of electrons
Reading initial fillings from file jdft.fillings.
nElectrons: 834.662719   nBands: 502   nStates: 24

----- Setting up reduced wavefunction bases (one per k-point) -----
average nbasis = 28786.227 , ideal nbasis = 28789.834

----- Initializing Supercell corresponding to k-point mesh -----
Lattice vector linear combinations in supercell:
[  11   0   0  ]
[   0   2   0  ]
[   0   0   1  ]
Supercell lattice vectors:
[  52.4329  0  0  ]
[  0  44.7149  0  ]
[  0  0  63.2364  ]

Initializing DFT-D3 calculator:
	Parameters set for gga-PBE functional
	s6:  1.000  s_r6:  1.217
	s8:  0.722  s_r8:  1.000
	Per-atom parameters loaded for:
	Cu:  sqrtQ[a0]:  5.226  Rcov[a0]:  1.909  CN: [ 0.00 0.96 ]

Initializing DFT-D2 calculator for fluid / solvation:
	Cu:  C6:  187.33 Eh-a0^6  R0: 2.952 a0

---------- Setting up ewald sum ----------
Optimum gaussian width for ewald sums = 4.010526 bohr.
Real space sum over 665 unit cells with max indices [  9  3  2  ]
Reciprocal space sum over 7497 terms with max indices [  3  10  25  ]

Computing DFT-D3 correction:
# coordination-number Cu 6.827 8.313 6.850 9.084 9.122 9.142 5.563 9.077 9.133 9.143 9.128 9.141 9.162 9.128 9.111 9.154 9.134 9.143 9.100 6.855 9.029 6.856 9.025 9.110 9.097 9.140 9.162 9.155 6.856 9.125 9.133 9.140 9.129 9.145 9.124 9.079 8.317 9.145 9.134 9.086 6.850 5.566 6.824 6.855
# diagonal-C6 Cu 175.00 175.00 175.00 175.00 175.00 175.00 175.00 175.00 175.00 175.00 175.00 175.00 175.00 175.00 175.00 175.00 175.00 175.00 175.00 175.00 175.00 175.00 175.00 175.00 175.00 175.00 175.00 175.00 175.00 175.00 175.00 175.00 175.00 175.00 175.00 175.00 175.00 175.00 175.00 175.00 175.00 175.00 175.00 175.00
EvdW_6 =   -0.293548
EvdW_8 =   -0.421967

---------- Allocating electronic variables ----------
Initializing wave functions:  reading from 'jdft.wfns'
----- createFluidSolver() ----- (Fluid-side solver setup)
   Initializing fluid molecule 'H2O'
     Initializing site 'O'
       Electron density: proportional to exp(-r/0.36935)*erfc((r-0.51523)/0.36823) with norm 6.826
       Charge density: gaussian nuclear width 0.478731 with net site charge 0.826
       Polarizability: cuspless exponential with width 0.32 and norm 3.73
       Hard sphere radius: 2.57003 bohrs
       Positions in reference frame:
         [ +0.000000 +0.000000 +0.000000 ]
     Initializing site 'H'
       Electron density: proportional to exp(-r/0.34641)*erfc((r-0)/0.390882) with norm 0.587
       Charge density: gaussian nuclear width 0.377945 with net site charge -0.413
       Polarizability: cuspless exponential with width 0.39 and norm 3.3
       Positions in reference frame:
         [ +0.000000 -1.441945 +1.122523 ]
         [ +0.000000 +1.441945 +1.122523 ]
     Net charge: 0   dipole magnitude: 0.927204
     Initializing spherical shell mfKernel with radius 2.61727 Bohr
     deltaS corrections:
       site 'O': -7.54299
       site 'H': -6.83917
   Initializing fluid molecule 'Na+'
     Initializing site 'Na'
       Electron density: proportional to exp(-r/0.19682)*erfc((r-0.71491)/0.41314) with norm 8.1383
       Charge density: gaussian nuclear width 0.365347 with net site charge -1
       Hard sphere radius: 1.86327 bohrs
       Positions in reference frame:
         [ +0.000000 +0.000000 +0.000000 ]
     Net charge: -1   dipole magnitude: 0
     Initializing gaussian mfKernel with width: 1.55004 Bohr
     deltaS corrections:
       site 'Na': -22.3555
   Initializing fluid molecule 'F-'
     Initializing site 'F'
       Electron density: proportional to exp(-r/0.38886)*erfc((r-0)/0.438782) with norm 8
       Charge density: gaussian nuclear width 0.374796 with net site charge 1
       Hard sphere radius: 2.39995 bohrs
       Positions in reference frame:
         [ +0.000000 +0.000000 +0.000000 ]
     Net charge: 1   dipole magnitude: 0
     Initializing gaussian mfKernel with width: 1.59012 Bohr
     deltaS corrections:
       site 'F': -9.04335

Correction to mu due to finite nuclear width = -0.123085
   Cavity determined by nc: 0.00142 and sigma: 0.707107
   Nonlocal vdW cavity from gaussian model electron density with norm = 8 and sigma = 0.993594 bohr
   Charge asymmetry in cavity with sensitivity pCavity = 36.5 e-bohr/Eh
   Electrostatic cavity expanded by eta = 1.46 bohrs
   Weighted density cavitation model constrained by Nbulk: 0.0049383 bohr^-3, Pvap: 3.14029 kPa, Rvdw: 2.61727 bohr and sigmaBulk: 4.62e-05 Eh/bohr^2 at T: 298 K.
   Weighted density dispersion model using vdW pair potentials with single solvent site with sqrtC6eff: 0.77 SI.
Reading fluid state from 'jdft.fluidState'


---- Citations for features of the code used in this run ----

   Software package:
      R. Sundararaman, K. Letchworth-Weaver, K.A. Schwarz, D. Gunceler, Y. Ozhabes and T.A. Arias, 'JDFTx: software for joint density-functional theory', SoftwareX 6, 278 (2017)

   gga-PBE exchange-correlation functional:
      J.P. Perdew, K. Burke and M. Ernzerhof, Phys. Rev. Lett. 77, 3865 (1996)

   Pseudopotentials:
      KF Garrity, JW Bennett, KM Rabe and D Vanderbilt, Comput. Mater. Sci. 81, 446 (2014)

   DFT-D3 dispersion correction:
      S. Grimme, J. Antony, S. Ehrlich and H. Krieg, J. Chem. Phys. 132, 154104 (2010)

   DFT-D2 dispersion correction:
      S. Grimme, J. Comput. Chem. 27, 1787 (2006)

   Charge-asymmetric nonlocally-determined local-electric (CANDLE) solvation model:
      R. Sundararaman and W.A. Goddard III, J. Chem. Phys. 142, 064107 (2015)

   Total energy minimization with Auxiliary Hamiltonian:
      C. Freysoldt, S. Boeck, and J. Neugebauer, Phys. Rev. B 79, 241103(R) (2009)

   Grand-canonical (fixed-potential) DFT:
      R. Sundararaman, W. A. Goddard III and T. A. Arias, J. Chem. Phys. 146, 114104 (2017)

   Linear-tetrahedron sampling for density of states:
      G. Lehmann and M. Taut, Phys. status solidi (b) 54, 469 (1972)

This list may not be complete. Please suggest additional citations or
report any other bugs at https://github.com/shankar1729/jdftx/issues

Initialization completed successfully at t[s]:     39.69


Computing DFT-D3 correction:
# coordination-number Cu 6.827 8.313 6.850 9.084 9.122 9.142 5.563 9.077 9.133 9.143 9.128 9.141 9.162 9.128 9.111 9.154 9.134 9.143 9.100 6.855 9.029 6.856 9.025 9.110 9.097 9.140 9.162 9.155 6.856 9.125 9.133 9.140 9.129 9.145 9.124 9.079 8.317 9.145 9.134 9.086 6.850 5.566 6.824 6.855
# diagonal-C6 Cu 175.00 175.00 175.00 175.00 175.00 175.00 175.00 175.00 175.00 175.00 175.00 175.00 175.00 175.00 175.00 175.00 175.00 175.00 175.00 175.00 175.00 175.00 175.00 175.00 175.00 175.00 175.00 175.00 175.00 175.00 175.00 175.00 175.00 175.00 175.00 175.00 175.00 175.00 175.00 175.00 175.00 175.00 175.00 175.00
EvdW_6 =   -0.293548
EvdW_8 =   -0.421967
Shifting auxilliary hamiltonian by 0.036771 to set nElectrons=834.662719

-------- Electronic minimization -----------
	Linear fluid (dielectric constant: 78.4, screening length: 8.12261 Bohr) occupying 0.388698 of unit cell:	Completed after 29 iterations at t[s]:     63.21
	FillingsUpdate:  mu: -0.208000000  nElectrons: 834.662719  magneticMoment: [ Abs: 0.00027  Tot: -0.00026 ]
ElecMinimize: Iter:   0  G: -8705.917307235049520  |grad|_K:  1.366e-04  alpha:  1.000e+00
	Linear fluid (dielectric constant: 78.4, screening length: 8.12261 Bohr) occupying 0.436623 of unit cell:	Completed after 38 iterations at t[s]:    212.95
	Linear fluid (dielectric constant: 78.4, screening length: 8.12261 Bohr) occupying 0.391500 of unit cell:	Completed after 36 iterations at t[s]:    263.89
	FillingsUpdate:  mu: -0.208000000  nElectrons: 836.192520  magneticMoment: [ Abs: 0.00012  Tot: -0.00004 ]
	SubspaceRotationAdjust: set factor to 0.52
ElecMinimize: Iter:   1  G: -8706.249305035018551  |grad|_K:  4.801e-04  alpha:  1.129e-01  linmin:  3.017e-03  t[s]:    332.59
	Linear fluid (dielectric constant: 78.4, screening length: 8.12261 Bohr) occupying 0.381182 of unit cell:	Completed after 40 iterations at t[s]:    404.95
	Linear fluid (dielectric constant: 78.4, screening length: 8.12261 Bohr) occupying 0.390728 of unit cell:	Completed after 46 iterations at t[s]:    457.11
	FillingsUpdate:  mu: -0.208000000  nElectrons: 836.137596  magneticMoment: [ Abs: 0.00012  Tot: -0.00006 ]
	SubspaceRotationAdjust: set factor to 0.284
ElecMinimize: Iter:   2  G: -8706.302925416710423  |grad|_K:  3.431e-04  alpha:  6.882e-04  linmin: -2.917e-03  t[s]:    526.36
	Linear fluid (dielectric constant: 78.4, screening length: 8.12261 Bohr) occupying 0.389722 of unit cell:	Completed after 25 iterations at t[s]:    596.37
ElecMinimize: 	Predicted alpha/alphaT>3.000000, increasing alphaT to 2.064533e-03.
	Linear fluid (dielectric constant: 78.4, screening length: 8.12261 Bohr) occupying 0.388618 of unit cell:	Completed after 25 iterations at t[s]:    644.48
ElecMinimize: 	Predicted alpha/alphaT>3.000000, increasing alphaT to 6.193599e-03.
	Linear fluid (dielectric constant: 78.4, screening length: 8.12261 Bohr) occupying 0.388049 of unit cell:	Completed after 28 iterations at t[s]:    693.62
	Linear fluid (dielectric constant: 78.4, screening length: 8.12261 Bohr) occupying 0.388000 of unit cell:	Completed after 22 iterations at t[s]:    742.46
	FillingsUpdate:  mu: -0.208000000  nElectrons: 835.029682  magneticMoment: [ Abs: 0.00025  Tot: -0.00024 ]
	SubspaceRotationAdjust: set factor to 0.491
ElecMinimize: Iter:   3  G: -8706.764579180095097  |grad|_K:  1.249e-04  alpha:  7.511e-03  linmin: -9.043e-05  t[s]:    810.17
	Linear fluid (dielectric constant: 78.4, screening length: 8.12261 Bohr) occupying 0.387949 of unit cell:	Completed after 25 iterations at t[s]:    880.70
	Linear fluid (dielectric constant: 78.4, screening length: 8.12261 Bohr) occupying 0.387871 of unit cell:	Completed after 27 iterations at t[s]:    930.37
	FillingsUpdate:  mu: -0.208000000  nElectrons: 834.450333  magneticMoment: [ Abs: 0.00018  Tot: -0.00017 ]
	SubspaceRotationAdjust: set factor to 0.376
ElecMinimize: Iter:   4  G: -8706.881414684574338  |grad|_K:  1.795e-04  alpha:  2.072e-02  linmin: -1.809e-04  t[s]:    997.22
	Linear fluid (dielectric constant: 78.4, screening length: 8.12261 Bohr) occupying 0.387523 of unit cell:	Completed after 27 iterations at t[s]:   1068.09
	Linear fluid (dielectric constant: 78.4, screening length: 8.12261 Bohr) occupying 0.387252 of unit cell:	Completed after 27 iterations at t[s]:   1118.56
	FillingsUpdate:  mu: -0.208000000  nElectrons: 834.213170  magneticMoment: [ Abs: 0.00012  Tot: -0.00011 ]
	SubspaceRotationAdjust: set factor to 0.198
ElecMinimize: Iter:   5  G: -8707.315199825809032  |grad|_K:  2.019e-04  alpha:  3.722e-02  linmin:  2.124e-04  t[s]:   1184.81
	Linear fluid (dielectric constant: 78.4, screening length: 8.12261 Bohr) occupying 0.392363 of unit cell:	Completed after 34 iterations at t[s]:   1257.65
	Linear fluid (dielectric constant: 78.4, screening length: 8.12261 Bohr) occupying 0.386955 of unit cell:	Completed after 30 iterations at t[s]:   1306.91
	FillingsUpdate:  mu: -0.208000000  nElectrons: 834.890845  magneticMoment: [ Abs: 0.00018  Tot: -0.00017 ]
	SubspaceRotationAdjust: set factor to 0.332
ElecMinimize: Iter:   6  G: -8707.496078963407854  |grad|_K:  7.827e-05  alpha:  1.293e-02  linmin:  8.649e-05  t[s]:   1374.41
	Linear fluid (dielectric constant: 78.4, screening length: 8.12261 Bohr) occupying 0.386917 of unit cell:	Completed after 24 iterations at t[s]:   1445.60
	Linear fluid (dielectric constant: 78.4, screening length: 8.12261 Bohr) occupying 0.386883 of unit cell:	Completed after 24 iterations at t[s]:   1493.22
	FillingsUpdate:  mu: -0.208000000  nElectrons: 835.307909  magneticMoment: [ Abs: 0.00020  Tot: -0.00019 ]
	SubspaceRotationAdjust: set factor to 0.287
ElecMinimize: Iter:   7  G: -8707.552034694108443  |grad|_K:  7.362e-05  alpha:  2.609e-02  linmin: -1.980e-04  t[s]:   1561.15
	Linear fluid (dielectric constant: 78.4, screening length: 8.12261 Bohr) occupying 0.386784 of unit cell:	Completed after 25 iterations at t[s]:   1632.05
	Linear fluid (dielectric constant: 78.4, screening length: 8.12261 Bohr) occupying 0.386689 of unit cell:	Completed after 25 iterations at t[s]:   1680.05
	FillingsUpdate:  mu: -0.208000000  nElectrons: 835.433277  magneticMoment: [ Abs: 0.00019  Tot: -0.00018 ]
	SubspaceRotationAdjust: set factor to 0.178
ElecMinimize: Iter:   8  G: -8707.651451564650415  |grad|_K:  5.603e-05  alpha:  5.056e-02  linmin: -5.010e-05  t[s]:   1748.48
	Linear fluid (dielectric constant: 78.4, screening length: 8.12261 Bohr) occupying 0.386457 of unit cell:	Completed after 28 iterations at t[s]:   1819.42
	Linear fluid (dielectric constant: 78.4, screening length: 8.12261 Bohr) occupying 0.386584 of unit cell:	Completed after 27 iterations at t[s]:   1868.57
	FillingsUpdate:  mu: -0.208000000  nElectrons: 835.193032  magneticMoment: [ Abs: 0.00015  Tot: -0.00014 ]
	SubspaceRotationAdjust: set factor to 0.144
ElecMinimize: Iter:   9  G: -8707.674115069577965  |grad|_K:  2.986e-05  alpha:  2.261e-02  linmin:  3.972e-04  t[s]:   1937.79
	Linear fluid (dielectric constant: 78.4, screening length: 8.12261 Bohr) occupying 0.386523 of unit cell:	Completed after 18 iterations at t[s]:   2006.21
ElecMinimize: 	Predicted alpha/alphaT>3.000000, increasing alphaT to 6.783443e-02.
	Linear fluid (dielectric constant: 78.4, screening length: 8.12261 Bohr) occupying 0.386400 of unit cell:	Completed after 22 iterations at t[s]:   2055.28
	Linear fluid (dielectric constant: 78.4, screening length: 8.12261 Bohr) occupying 0.386354 of unit cell:	Completed after 18 iterations at t[s]:   2103.65
	FillingsUpdate:  mu: -0.208000000  nElectrons: 835.028551  magneticMoment: [ Abs: 0.00011  Tot: -0.00010 ]
	SubspaceRotationAdjust: set factor to 0.0923
	SubspaceRotationAdjust: resetting CG because factor has changed by 0.0922561
	Linear fluid (dielectric constant: 78.4, screening length: 8.12261 Bohr) occupying 0.386354 of unit cell:	Completed after 0 iterations at t[s]:   2186.10
ElecMinimize: 	State modified externally: resetting search direction.
ElecMinimize: Iter:  10  G: -8707.699179674698826  |grad|_K:  2.732e-05  alpha:  8.503e-02
	Linear fluid (dielectric constant: 78.4, screening length: 8.12261 Bohr) occupying 0.386303 of unit cell:	Completed after 25 iterations at t[s]:   2325.09
	Linear fluid (dielectric constant: 78.4, screening length: 8.12261 Bohr) occupying 0.386308 of unit cell:	Completed after 18 iterations at t[s]:   2373.00
	FillingsUpdate:  mu: -0.208000000  nElectrons: 835.255842  magneticMoment: [ Abs: 0.00015  Tot: -0.00014 ]
	SubspaceRotationAdjust: set factor to 0.101
ElecMinimize: Iter:  11  G: -8707.719288638551006  |grad|_K:  1.175e-05  alpha:  7.648e-02  linmin:  1.011e-03  t[s]:   2442.19
	Linear fluid (dielectric constant: 78.4, screening length: 8.12261 Bohr) occupying 0.386211 of unit cell:	Completed after 22 iterations at t[s]:   2511.06
ElecMinimize: 	Predicted alpha/alphaT>3.000000, increasing alphaT to 2.294546e-01.
	Linear fluid (dielectric constant: 78.4, screening length: 8.12261 Bohr) occupying 0.386015 of unit cell:	Completed after 23 iterations at t[s]:   2559.97
	Linear fluid (dielectric constant: 78.4, screening length: 8.12261 Bohr) occupying 0.385899 of unit cell:	Completed after 22 iterations at t[s]:   2609.62
	FillingsUpdate:  mu: -0.208000000  nElectrons: 835.169902  magneticMoment: [ Abs: 0.00013  Tot: -0.00013 ]
	SubspaceRotationAdjust: set factor to 0.106
ElecMinimize: Iter:  12  G: -8707.734376020649506  |grad|_K:  1.049e-05  alpha:  3.198e-01  linmin:  1.233e-05  t[s]:   2676.22
	Linear fluid (dielectric constant: 78.4, screening length: 8.12261 Bohr) occupying 0.385317 of unit cell:	Completed after 20 iterations at t[s]:   2746.61
	Linear fluid (dielectric constant: 78.4, screening length: 8.12261 Bohr) occupying 0.385678 of unit cell:	Completed after 19 iterations at t[s]:   2795.10
	FillingsUpdate:  mu: -0.208000000  nElectrons: 835.170108  magneticMoment: [ Abs: 0.00013  Tot: -0.00013 ]
	SubspaceRotationAdjust: set factor to 0.141
ElecMinimize: Iter:  13  G: -8707.739061496176873  |grad|_K:  6.451e-06  alpha:  1.220e-01  linmin:  1.045e-05  t[s]:   2862.42
	Linear fluid (dielectric constant: 78.4, screening length: 8.12261 Bohr) occupying 0.385505 of unit cell:	Completed after 22 iterations at t[s]:   2933.25
ElecMinimize: 	Predicted alpha/alphaT>3.000000, increasing alphaT to 3.661391e-01.
	Linear fluid (dielectric constant: 78.4, screening length: 8.12261 Bohr) occupying 0.385155 of unit cell:	Completed after 23 iterations at t[s]:   2980.75
	Linear fluid (dielectric constant: 78.4, screening length: 8.12261 Bohr) occupying 0.385045 of unit cell:	Completed after 21 iterations at t[s]:   3028.66
	FillingsUpdate:  mu: -0.208000000  nElectrons: 835.110385  magneticMoment: [ Abs: 0.00012  Tot: -0.00011 ]
	SubspaceRotationAdjust: set factor to 0.148
ElecMinimize: Iter:  14  G: -8707.745483648721347  |grad|_K:  8.551e-06  alpha:  4.422e-01  linmin:  1.799e-05  t[s]:   3097.38
	Linear fluid (dielectric constant: 78.4, screening length: 8.12261 Bohr) occupying 0.383730 of unit cell:	Completed after 24 iterations at t[s]:   3166.58
	Linear fluid (dielectric constant: 78.4, screening length: 8.12261 Bohr) occupying 0.384697 of unit cell:	Completed after 21 iterations at t[s]:   3215.31
	FillingsUpdate:  mu: -0.208000000  nElectrons: 835.176426  magneticMoment: [ Abs: 0.00012  Tot: -0.00012 ]
	SubspaceRotationAdjust: set factor to 0.111
ElecMinimize: Iter:  15  G: -8707.748610372878829  |grad|_K:  8.684e-06  alpha:  1.204e-01  linmin: -5.806e-05  t[s]:   3283.96
	Linear fluid (dielectric constant: 78.4, screening length: 8.12261 Bohr) occupying 0.384276 of unit cell:	Completed after 23 iterations at t[s]:   3352.68
	Linear fluid (dielectric constant: 78.4, screening length: 8.12261 Bohr) occupying 0.384277 of unit cell:	Completed after 7 iterations at t[s]:   3399.16
	FillingsUpdate:  mu: -0.208000000  nElectrons: 835.113624  magneticMoment: [ Abs: 0.00010  Tot: -0.00010 ]
	SubspaceRotationAdjust: set factor to 0.0836
ElecMinimize: Iter:  16  G: -8707.751833181377151  |grad|_K:  6.516e-06  alpha:  1.201e-01  linmin:  9.502e-08  t[s]:   3466.84
	Linear fluid (dielectric constant: 78.4, screening length: 8.12261 Bohr) occupying 0.384031 of unit cell:	Completed after 23 iterations at t[s]:   3537.07
	Linear fluid (dielectric constant: 78.4, screening length: 8.12261 Bohr) occupying 0.383950 of unit cell:	Completed after 20 iterations at t[s]:   3585.64
	FillingsUpdate:  mu: -0.208000000  nElectrons: 835.137349  magneticMoment: [ Abs: 0.00010  Tot: -0.00010 ]
	SubspaceRotationAdjust: set factor to 0.101
ElecMinimize: Iter:  17  G: -8707.754194856974209  |grad|_K:  5.174e-06  alpha:  1.591e-01  linmin:  9.157e-07  t[s]:   3652.27
	Linear fluid (dielectric constant: 78.4, screening length: 8.12261 Bohr) occupying 0.383757 of unit cell:	Completed after 17 iterations at t[s]:   3721.23
	Linear fluid (dielectric constant: 78.4, screening length: 8.12261 Bohr) occupying 0.383502 of unit cell:	Completed after 18 iterations at t[s]:   3770.24
	FillingsUpdate:  mu: -0.208000000  nElectrons: 835.186164  magneticMoment: [ Abs: 0.00009  Tot: -0.00009 ]
	SubspaceRotationAdjust: set factor to 0.107
ElecMinimize: Iter:  18  G: -8707.757562740040157  |grad|_K:  7.274e-06  alpha:  3.592e-01  linmin: -4.418e-06  t[s]:   3835.88
	Linear fluid (dielectric constant: 78.4, screening length: 8.12261 Bohr) occupying 0.382497 of unit cell:	Completed after 25 iterations at t[s]:   3907.17
	Linear fluid (dielectric constant: 78.4, screening length: 8.12261 Bohr) occupying 0.383165 of unit cell:	Completed after 24 iterations at t[s]:   3955.41
	FillingsUpdate:  mu: -0.208000000  nElectrons: 835.147873  magneticMoment: [ Abs: 0.00007  Tot: -0.00007 ]
	SubspaceRotationAdjust: set factor to 0.085
ElecMinimize: Iter:  19  G: -8707.759983738516894  |grad|_K:  5.162e-06  alpha:  1.295e-01  linmin: -1.364e-05  t[s]:   4023.22
	Linear fluid (dielectric constant: 78.4, screening length: 8.12261 Bohr) occupying 0.383011 of unit cell:	Completed after 23 iterations at t[s]:   4094.73
	Linear fluid (dielectric constant: 78.4, screening length: 8.12261 Bohr) occupying 0.382944 of unit cell:	Completed after 18 iterations at t[s]:   4141.77
	FillingsUpdate:  mu: -0.208000000  nElectrons: 835.196538  magneticMoment: [ Abs: 0.00007  Tot: -0.00007 ]
	SubspaceRotationAdjust: set factor to 0.0749
ElecMinimize: Iter:  20  G: -8707.761705111128322  |grad|_K:  5.576e-06  alpha:  1.836e-01  linmin:  1.279e-06  t[s]:   4209.83
	Linear fluid (dielectric constant: 78.4, screening length: 8.12261 Bohr) occupying 0.382691 of unit cell:	Completed after 23 iterations at t[s]:   4280.42
	Linear fluid (dielectric constant: 78.4, screening length: 8.12261 Bohr) occupying 0.382641 of unit cell:	Completed after 15 iterations at t[s]:   4326.99
	FillingsUpdate:  mu: -0.208000000  nElectrons: 835.199236  magneticMoment: [ Abs: 0.00006  Tot: -0.00005 ]
	SubspaceRotationAdjust: set factor to 0.0868
ElecMinimize: Iter:  21  G: -8707.764067374693695  |grad|_K:  4.630e-06  alpha:  2.175e-01  linmin:  4.624e-06  t[s]:   4395.36
	Linear fluid (dielectric constant: 78.4, screening length: 8.12261 Bohr) occupying 0.382430 of unit cell:	Completed after 18 iterations at t[s]:   4464.80
	Linear fluid (dielectric constant: 78.4, screening length: 8.12261 Bohr) occupying 0.382507 of unit cell:	Completed after 15 iterations at t[s]:   4512.28
	FillingsUpdate:  mu: -0.208000000  nElectrons: 835.189144  magneticMoment: [ Abs: 0.00005  Tot: -0.00005 ]
	SubspaceRotationAdjust: set factor to 0.0892
ElecMinimize: Iter:  22  G: -8707.765118999433980  |grad|_K:  4.082e-06  alpha:  1.405e-01  linmin: -4.164e-07  t[s]:   4581.37
	Linear fluid (dielectric constant: 78.4, screening length: 8.12261 Bohr) occupying 0.382410 of unit cell:	Completed after 21 iterations at t[s]:   4650.14
	Linear fluid (dielectric constant: 78.4, screening length: 8.12261 Bohr) occupying 0.382328 of unit cell:	Completed after 21 iterations at t[s]:   4698.80
	FillingsUpdate:  mu: -0.208000000  nElectrons: 835.221975  magneticMoment: [ Abs: 0.00004  Tot: -0.00004 ]
	SubspaceRotationAdjust: set factor to 0.0826
ElecMinimize: Iter:  23  G: -8707.766588692322330  |grad|_K:  4.167e-06  alpha:  2.519e-01  linmin: -3.322e-06  t[s]:   4766.90
	Linear fluid (dielectric constant: 78.4, screening length: 8.12261 Bohr) occupying 0.382107 of unit cell:	Completed after 22 iterations at t[s]:   4835.05
	Linear fluid (dielectric constant: 78.4, screening length: 8.12261 Bohr) occupying 0.382212 of unit cell:	Completed after 21 iterations at t[s]:   4883.36
	FillingsUpdate:  mu: -0.208000000  nElectrons: 835.211614  magneticMoment: [ Abs: 0.00003  Tot: -0.00003 ]
	SubspaceRotationAdjust: set factor to 0.0798
ElecMinimize: Iter:  24  G: -8707.767423757095457  |grad|_K:  3.037e-06  alpha:  1.368e-01  linmin: -2.312e-06  t[s]:   4950.52
	Linear fluid (dielectric constant: 78.4, screening length: 8.12261 Bohr) occupying 0.382139 of unit cell:	Completed after 14 iterations at t[s]:   5018.90
	Linear fluid (dielectric constant: 78.4, screening length: 8.12261 Bohr) occupying 0.382099 of unit cell:	Completed after 13 iterations at t[s]:   5066.24
	FillingsUpdate:  mu: -0.208000000  nElectrons: 835.220655  magneticMoment: [ Abs: 0.00003  Tot: -0.00003 ]
	SubspaceRotationAdjust: set factor to 0.0877
ElecMinimize: Iter:  25  G: -8707.768099309305398  |grad|_K:  2.856e-06  alpha:  2.091e-01  linmin: -2.114e-07  t[s]:   5132.89
	Linear fluid (dielectric constant: 78.4, screening length: 8.12261 Bohr) occupying 0.381968 of unit cell:	Completed after 21 iterations at t[s]:   5202.64
	Linear fluid (dielectric constant: 78.4, screening length: 8.12261 Bohr) occupying 0.382017 of unit cell:	Completed after 18 iterations at t[s]:   5251.74
	FillingsUpdate:  mu: -0.208000000  nElectrons: 835.231279  magneticMoment: [ Abs: 0.00003  Tot: -0.00002 ]
	SubspaceRotationAdjust: set factor to 0.0939
ElecMinimize: Iter:  26  G: -8707.768479292471966  |grad|_K:  2.010e-06  alpha:  1.332e-01  linmin:  2.528e-07  t[s]:   5317.45
	Linear fluid (dielectric constant: 78.4, screening length: 8.12261 Bohr) occupying 0.381952 of unit cell:	Completed after 20 iterations at t[s]:   5387.87
	Linear fluid (dielectric constant: 78.4, screening length: 8.12261 Bohr) occupying 0.381915 of unit cell:	Completed after 19 iterations at t[s]:   5435.44
	FillingsUpdate:  mu: -0.208000000  nElectrons: 835.227270  magneticMoment: [ Abs: 0.00002  Tot: -0.00002 ]
	SubspaceRotationAdjust: set factor to 0.0894
ElecMinimize: Iter:  27  G: -8707.768776803237415  |grad|_K:  2.080e-06  alpha:  2.105e-01  linmin:  1.176e-07  t[s]:   5502.55
	Linear fluid (dielectric constant: 78.4, screening length: 8.12261 Bohr) occupying 0.381770 of unit cell:	Completed after 20 iterations at t[s]:   5573.03
	Linear fluid (dielectric constant: 78.4, screening length: 8.12261 Bohr) occupying 0.381813 of unit cell:	Completed after 14 iterations at t[s]:   5618.90
	FillingsUpdate:  mu: -0.208000000  nElectrons: 835.244686  magneticMoment: [ Abs: 0.00002  Tot: -0.00002 ]
	SubspaceRotationAdjust: set factor to 0.0894
ElecMinimize: Iter:  28  G: -8707.769001940661838  |grad|_K:  1.531e-06  alpha:  1.488e-01  linmin:  5.050e-09  t[s]:   5686.38
	Linear fluid (dielectric constant: 78.4, screening length: 8.12261 Bohr) occupying 0.381732 of unit cell:	Completed after 18 iterations at t[s]:   5756.25
	Linear fluid (dielectric constant: 78.4, screening length: 8.12261 Bohr) occupying 0.381697 of unit cell:	Completed after 13 iterations at t[s]:   5802.24
	FillingsUpdate:  mu: -0.208000000  nElectrons: 835.248692  magneticMoment: [ Abs: 0.00002  Tot: -0.00002 ]
	SubspaceRotationAdjust: set factor to 0.0975
ElecMinimize: Iter:  29  G: -8707.769175647261363  |grad|_K:  1.546e-06  alpha:  2.119e-01  linmin:  1.397e-06  t[s]:   5869.95
	Linear fluid (dielectric constant: 78.4, screening length: 8.12261 Bohr) occupying 0.381545 of unit cell:	Completed after 21 iterations at t[s]:   5939.07
	Linear fluid (dielectric constant: 78.4, screening length: 8.12261 Bohr) occupying 0.381597 of unit cell:	Completed after 16 iterations at t[s]:   5985.92
	FillingsUpdate:  mu: -0.208000000  nElectrons: 835.250995  magneticMoment: [ Abs: 0.00002  Tot: -0.00001 ]
	SubspaceRotationAdjust: set factor to 0.103
ElecMinimize: Iter:  30  G: -8707.769292632608995  |grad|_K:  9.759e-07  alpha:  1.400e-01  linmin: -6.465e-07  t[s]:   6054.21
	Linear fluid (dielectric constant: 78.4, screening length: 8.12261 Bohr) occupying 0.381537 of unit cell:	Completed after 14 iterations at t[s]:   6122.07
	Linear fluid (dielectric constant: 78.4, screening length: 8.12261 Bohr) occupying 0.381529 of unit cell:	Completed after 11 iterations at t[s]:   6169.43
	FillingsUpdate:  mu: -0.208000000  nElectrons: 835.261372  magneticMoment: [ Abs: 0.00001  Tot: -0.00001 ]
	SubspaceRotationAdjust: set factor to 0.0978
ElecMinimize: Iter:  31  G: -8707.769345106002220  |grad|_K:  1.002e-06  alpha:  1.574e-01  linmin: -1.234e-05  t[s]:   6238.10
	Linear fluid (dielectric constant: 78.4, screening length: 8.12261 Bohr) occupying 0.381433 of unit cell:	Completed after 18 iterations at t[s]:   6305.86
	Linear fluid (dielectric constant: 78.4, screening length: 8.12261 Bohr) occupying 0.381397 of unit cell:	Completed after 14 iterations at t[s]:   6353.25
	FillingsUpdate:  mu: -0.208000000  nElectrons: 835.261502  magneticMoment: [ Abs: 0.00001  Tot: -0.00001 ]
	SubspaceRotationAdjust: set factor to 0.0866
ElecMinimize: Iter:  32  G: -8707.769420962498771  |grad|_K:  8.919e-07  alpha:  2.153e-01  linmin:  9.929e-07  t[s]:   6420.46
	Linear fluid (dielectric constant: 78.4, screening length: 8.12261 Bohr) occupying 0.381268 of unit cell:	Completed after 18 iterations at t[s]:   6489.82
	Linear fluid (dielectric constant: 78.4, screening length: 8.12261 Bohr) occupying 0.381321 of unit cell:	Completed after 13 iterations at t[s]:   6537.12
	FillingsUpdate:  mu: -0.208000000  nElectrons: 835.267467  magneticMoment: [ Abs: 0.00001  Tot: -0.00001 ]
	SubspaceRotationAdjust: set factor to 0.0961
ElecMinimize: Iter:  33  G: -8707.769456247748167  |grad|_K:  6.722e-07  alpha:  1.268e-01  linmin:  1.247e-06  t[s]:   6604.23
	Linear fluid (dielectric constant: 78.4, screening length: 8.12261 Bohr) occupying 0.381266 of unit cell:	Completed after 13 iterations at t[s]:   6672.66
	Linear fluid (dielectric constant: 78.4, screening length: 8.12261 Bohr) occupying 0.381213 of unit cell:	Completed after 12 iterations at t[s]:   6720.53
	FillingsUpdate:  mu: -0.208000000  nElectrons: 835.273613  magneticMoment: [ Abs: 0.00001  Tot: -0.00001 ]
	SubspaceRotationAdjust: set factor to 0.105
ElecMinimize: Iter:  34  G: -8707.769495563408782  |grad|_K:  7.449e-07  alpha:  2.489e-01  linmin:  2.149e-06  t[s]:   6786.13
	Linear fluid (dielectric constant: 78.4, screening length: 8.12261 Bohr) occupying 0.381060 of unit cell:	Completed after 18 iterations at t[s]:   6856.19
	Linear fluid (dielectric constant: 78.4, screening length: 8.12261 Bohr) occupying 0.381129 of unit cell:	Completed after 14 iterations at t[s]:   6902.89
	FillingsUpdate:  mu: -0.208000000  nElectrons: 835.273664  magneticMoment: [ Abs: 0.00001  Tot: -0.00001 ]
	SubspaceRotationAdjust: set factor to 0.099
ElecMinimize: Iter:  35  G: -8707.769522092999978  |grad|_K:  5.160e-07  alpha:  1.367e-01  linmin: -2.302e-07  t[s]:   6969.98
	Linear fluid (dielectric constant: 78.4, screening length: 8.12261 Bohr) occupying 0.381082 of unit cell:	Completed after 14 iterations at t[s]:   7039.45
	Linear fluid (dielectric constant: 78.4, screening length: 8.12261 Bohr) occupying 0.381069 of unit cell:	Completed after 11 iterations at t[s]:   7084.99
	FillingsUpdate:  mu: -0.208000000  nElectrons: 835.279224  magneticMoment: [ Abs: 0.00001  Tot: -0.00001 ]
	SubspaceRotationAdjust: set factor to 0.0921
ElecMinimize: Iter:  36  G: -8707.769538340171493  |grad|_K:  5.412e-07  alpha:  1.743e-01  linmin: -1.376e-05  t[s]:   7152.76
	Linear fluid (dielectric constant: 78.4, screening length: 8.12261 Bohr) occupying 0.380993 of unit cell:	Completed after 13 iterations at t[s]:   7221.54
	Linear fluid (dielectric constant: 78.4, screening length: 8.12261 Bohr) occupying 0.380992 of unit cell:	Completed after 0 iterations at t[s]:   7265.76
	FillingsUpdate:  mu: -0.208000000  nElectrons: 835.279697  magneticMoment: [ Abs: 0.00001  Tot: -0.00001 ]
	SubspaceRotationAdjust: set factor to 0.0951
ElecMinimize: Iter:  37  G: -8707.769556441162422  |grad|_K:  4.437e-07  alpha:  1.762e-01  linmin: -9.334e-06  t[s]:   7334.08
	Linear fluid (dielectric constant: 78.4, screening length: 8.12261 Bohr) occupying 0.380935 of unit cell:	Completed after 9 iterations at t[s]:   7401.47
	Linear fluid (dielectric constant: 78.4, screening length: 8.12261 Bohr) occupying 0.380933 of unit cell:	Completed after 1 iterations at t[s]:   7446.21
	FillingsUpdate:  mu: -0.208000000  nElectrons: 835.281868  magneticMoment: [ Abs: 0.00001  Tot: -0.00001 ]
	SubspaceRotationAdjust: set factor to 0.106
ElecMinimize: Iter:  38  G: -8707.769569093699829  |grad|_K:  4.475e-07  alpha:  1.834e-01  linmin: -8.149e-06  t[s]:   7514.94
	Linear fluid (dielectric constant: 78.4, screening length: 8.12261 Bohr) occupying 0.380868 of unit cell:	Completed after 14 iterations at t[s]:   7582.38
	Linear fluid (dielectric constant: 78.4, screening length: 8.12261 Bohr) occupying 0.380871 of unit cell:	Completed after 2 iterations at t[s]:   7628.42
	FillingsUpdate:  mu: -0.208000000  nElectrons: 835.285575  magneticMoment: [ Abs: 0.00001  Tot: -0.00001 ]
	SubspaceRotationAdjust: set factor to 0.109
ElecMinimize: Iter:  39  G: -8707.769581261862186  |grad|_K:  3.667e-07  alpha:  1.734e-01  linmin:  9.015e-06  t[s]:   7696.69
	Linear fluid (dielectric constant: 78.4, screening length: 8.12261 Bohr) occupying 0.380826 of unit cell:	Completed after 13 iterations at t[s]:   7764.43
	Linear fluid (dielectric constant: 78.4, screening length: 8.12261 Bohr) occupying 0.380835 of unit cell:	Completed after 10 iterations at t[s]:   7811.75
	FillingsUpdate:  mu: -0.208000000  nElectrons: 835.283971  magneticMoment: [ Abs: 0.00001  Tot: -0.00001 ]
	SubspaceRotationAdjust: set factor to 0.0961
ElecMinimize: Iter:  40  G: -8707.769587671164118  |grad|_K:  3.515e-07  alpha:  1.368e-01  linmin: -2.335e-05  t[s]:   7879.46
	Linear fluid (dielectric constant: 78.4, screening length: 8.12261 Bohr) occupying 0.380800 of unit cell:	Completed after 12 iterations at t[s]:   7947.63
	Linear fluid (dielectric constant: 78.4, screening length: 8.12261 Bohr) occupying 0.380778 of unit cell:	Completed after 11 iterations at t[s]:   7995.24
	FillingsUpdate:  mu: -0.208000000  nElectrons: 835.287444  magneticMoment: [ Abs: 0.00001  Tot: -0.00000 ]
	SubspaceRotationAdjust: set factor to 0.0909
ElecMinimize: Iter:  41  G: -8707.769597416148827  |grad|_K:  3.670e-07  alpha:  2.246e-01  linmin: -6.070e-07  t[s]:   8062.38
	Linear fluid (dielectric constant: 78.4, screening length: 8.12261 Bohr) occupying 0.380712 of unit cell:	Completed after 11 iterations at t[s]:   8130.90
	Linear fluid (dielectric constant: 78.4, screening length: 8.12261 Bohr) occupying 0.380740 of unit cell:	Completed after 10 iterations at t[s]:   8178.39
	FillingsUpdate:  mu: -0.208000000  nElectrons: 835.287886  magneticMoment: [ Abs: 0.00000  Tot: -0.00000 ]
	SubspaceRotationAdjust: set factor to 0.108
ElecMinimize: Iter:  42  G: -8707.769603533613918  |grad|_K:  2.585e-07  alpha:  1.298e-01  linmin:  1.431e-06  t[s]:   8244.54
	Linear fluid (dielectric constant: 78.4, screening length: 8.12261 Bohr) occupying 0.380719 of unit cell:	Completed after 11 iterations at t[s]:   8313.77
	Linear fluid (dielectric constant: 78.4, screening length: 8.12261 Bohr) occupying 0.380703 of unit cell:	Completed after 10 iterations at t[s]:   8359.81
	FillingsUpdate:  mu: -0.208000000  nElectrons: 835.287216  magneticMoment: [ Abs: 0.00000  Tot: -0.00000 ]
	SubspaceRotationAdjust: set factor to 0.109
ElecMinimize: Iter:  43  G: -8707.769608852748206  |grad|_K:  3.149e-07  alpha:  2.277e-01  linmin:  3.930e-06  t[s]:   8427.63
	Linear fluid (dielectric constant: 78.4, screening length: 8.12261 Bohr) occupying 0.380647 of unit cell:	Completed after 13 iterations at t[s]:   8497.44
	Linear fluid (dielectric constant: 78.4, screening length: 8.12261 Bohr) occupying 0.380668 of unit cell:	Completed after 11 iterations at t[s]:   8543.07
	FillingsUpdate:  mu: -0.208000000  nElectrons: 835.290256  magneticMoment: [ Abs: 0.00000  Tot: -0.00000 ]
	SubspaceRotationAdjust: set factor to 0.0868
ElecMinimize: Iter:  44  G: -8707.769613848466179  |grad|_K:  2.468e-07  alpha:  1.443e-01  linmin:  1.518e-06  t[s]:   8610.54
	Linear fluid (dielectric constant: 78.4, screening length: 8.12261 Bohr) occupying 0.380643 of unit cell:	Completed after 11 iterations at t[s]:   8678.88
	Linear fluid (dielectric constant: 78.4, screening length: 8.12261 Bohr) occupying 0.380643 of unit cell:	Completed after 0 iterations at t[s]:   8722.89
	FillingsUpdate:  mu: -0.208000000  nElectrons: 835.289650  magneticMoment: [ Abs: 0.00000  Tot: -0.00000 ]
	SubspaceRotationAdjust: set factor to 0.0837
ElecMinimize: Iter:  45  G: -8707.769616900099209  |grad|_K:  2.254e-07  alpha:  1.433e-01  linmin:  3.483e-06  t[s]:   8791.70
	Linear fluid (dielectric constant: 78.4, screening length: 8.12261 Bohr) occupying 0.380621 of unit cell:	Completed after 3 iterations at t[s]:   8858.15
	Linear fluid (dielectric constant: 78.4, screening length: 8.12261 Bohr) occupying 0.380608 of unit cell:	Completed after 6 iterations at t[s]:   8904.25
	FillingsUpdate:  mu: -0.208000000  nElectrons: 835.290481  magneticMoment: [ Abs: 0.00000  Tot: -0.00000 ]
	SubspaceRotationAdjust: set factor to 0.0951
ElecMinimize: Iter:  46  G: -8707.769620904200565  |grad|_K:  2.161e-07  alpha:  2.257e-01  linmin:  2.546e-06  t[s]:   8973.15
	Linear fluid (dielectric constant: 78.4, screening length: 8.12261 Bohr) occupying 0.380573 of unit cell:	Completed after 12 iterations at t[s]:   9040.36
	Linear fluid (dielectric constant: 78.4, screening length: 8.12261 Bohr) occupying 0.380587 of unit cell:	Completed after 10 iterations at t[s]:   9087.52
	FillingsUpdate:  mu: -0.208000000  nElectrons: 835.292100  magneticMoment: [ Abs: 0.00000  Tot: -0.00000 ]
	SubspaceRotationAdjust: set factor to 0.0905
ElecMinimize: Iter:  47  G: -8707.769623086447609  |grad|_K:  1.677e-07  alpha:  1.333e-01  linmin:  5.760e-06  t[s]:   9155.81
	Linear fluid (dielectric constant: 78.4, screening length: 8.12261 Bohr) occupying 0.380573 of unit cell:	Completed after 11 iterations at t[s]:   9223.12
	Linear fluid (dielectric constant: 78.4, screening length: 8.12261 Bohr) occupying 0.380564 of unit cell:	Completed after 7 iterations at t[s]:   9269.41
	FillingsUpdate:  mu: -0.208000000  nElectrons: 835.292040  magneticMoment: [ Abs: 0.00000  Tot: -0.00000 ]
	SubspaceRotationAdjust: set factor to 0.0876
ElecMinimize: Iter:  48  G: -8707.769625157367045  |grad|_K:  1.569e-07  alpha:  2.105e-01  linmin: -9.375e-06  t[s]:   9336.60
	Linear fluid (dielectric constant: 78.4, screening length: 8.12261 Bohr) occupying 0.380541 of unit cell:	Completed after 10 iterations at t[s]:   9404.60
	Linear fluid (dielectric constant: 78.4, screening length: 8.12261 Bohr) occupying 0.380549 of unit cell:	Completed after 6 iterations at t[s]:   9450.81
	FillingsUpdate:  mu: -0.208000000  nElectrons: 835.292849  magneticMoment: [ Abs: 0.00000  Tot: -0.00000 ]
	SubspaceRotationAdjust: set factor to 0.0947
ElecMinimize: Iter:  49  G: -8707.769626344788776  |grad|_K:  1.213e-07  alpha:  1.375e-01  linmin:  8.591e-06  t[s]:   9517.46
	Linear fluid (dielectric constant: 78.4, screening length: 8.12261 Bohr) occupying 0.380538 of unit cell:	Completed after 3 iterations at t[s]:   9584.33
	Linear fluid (dielectric constant: 78.4, screening length: 8.12261 Bohr) occupying 0.380532 of unit cell:	Completed after 2 iterations at t[s]:   9630.81
	FillingsUpdate:  mu: -0.208000000  nElectrons: 835.293551  magneticMoment: [ Abs: 0.00000  Tot: -0.00000 ]
	SubspaceRotationAdjust: set factor to 0.102
ElecMinimize: Iter:  50  G: -8707.769627509478596  |grad|_K:  1.315e-07  alpha:  2.265e-01  linmin: -6.838e-06  t[s]:   9696.78
	Linear fluid (dielectric constant: 78.4, screening length: 8.12261 Bohr) occupying 0.380508 of unit cell:	Completed after 9 iterations at t[s]:   9765.18
	Linear fluid (dielectric constant: 78.4, screening length: 8.12261 Bohr) occupying 0.380516 of unit cell:	Completed after 2 iterations at t[s]:   9810.59
	FillingsUpdate:  mu: -0.208000000  nElectrons: 835.293769  magneticMoment: [ Abs: 0.00000  Tot: -0.00000 ]
	SubspaceRotationAdjust: set factor to 0.108
ElecMinimize: Iter:  51  G: -8707.769628444528280  |grad|_K:  9.482e-08  alpha:  1.535e-01  linmin:  3.059e-05  t[s]:   9877.63
	Linear fluid (dielectric constant: 78.4, screening length: 8.12261 Bohr) occupying 0.380505 of unit cell:	Completed after 10 iterations at t[s]:   9946.26
	Linear fluid (dielectric constant: 78.4, screening length: 8.12261 Bohr) occupying 0.380504 of unit cell:	Completed after 2 iterations at t[s]:   9990.60
	FillingsUpdate:  mu: -0.208000000  nElectrons: 835.294625  magneticMoment: [ Abs: 0.00000  Tot: -0.00000 ]
	SubspaceRotationAdjust: set factor to 0.107
ElecMinimize: Iter:  52  G: -8707.769629020496723  |grad|_K:  9.926e-08  alpha:  1.828e-01  linmin: -1.333e-04  t[s]:  10058.54
	Linear fluid (dielectric constant: 78.4, screening length: 8.12261 Bohr) occupying 0.380488 of unit cell:	Completed after 11 iterations at t[s]:  10127.67
	Linear fluid (dielectric constant: 78.4, screening length: 8.12261 Bohr) occupying 0.380489 of unit cell:	Completed after 0 iterations at t[s]:  10171.43
	FillingsUpdate:  mu: -0.208000000  nElectrons: 835.294565  magneticMoment: [ Abs: 0.00000  Tot: -0.00000 ]
	SubspaceRotationAdjust: set factor to 0.0975
ElecMinimize: Iter:  53  G: -8707.769629631609860  |grad|_K:  8.032e-08  alpha:  1.696e-01  linmin:  1.027e-04  t[s]:  10239.75
	Linear fluid (dielectric constant: 78.4, screening length: 8.12261 Bohr) occupying 0.380478 of unit cell:	Completed after 10 iterations at t[s]:  10307.77
	Linear fluid (dielectric constant: 78.4, screening length: 8.12261 Bohr) occupying 0.380480 of unit cell:	Completed after 0 iterations at t[s]:  10352.09
	FillingsUpdate:  mu: -0.208000000  nElectrons: 835.295345  magneticMoment: [ Abs: 0.00000  Tot: -0.00000 ]
	SubspaceRotationAdjust: set factor to 0.0876
ElecMinimize: Iter:  54  G: -8707.769629949378213  |grad|_K:  7.650e-08  alpha:  1.452e-01  linmin:  4.960e-05  t[s]:  10421.06
	Linear fluid (dielectric constant: 78.4, screening length: 8.12261 Bohr) occupying 0.380470 of unit cell:	Completed after 9 iterations at t[s]:  10488.85
	Linear fluid (dielectric constant: 78.4, screening length: 8.12261 Bohr) occupying 0.380467 of unit cell:	Completed after 2 iterations at t[s]:  10534.21
	FillingsUpdate:  mu: -0.208000000  nElectrons: 835.295374  magneticMoment: [ Abs: 0.00000  Tot: -0.00000 ]
	SubspaceRotationAdjust: set factor to 0.082
ElecMinimize: Iter:  55  G: -8707.769630348449937  |grad|_K:  7.108e-08  alpha:  1.942e-01  linmin: -1.645e-04  t[s]:  10603.22
	Linear fluid (dielectric constant: 78.4, screening length: 8.12261 Bohr) occupying 0.380454 of unit cell:	Completed after 3 iterations at t[s]:  10668.94
	Linear fluid (dielectric constant: 78.4, screening length: 8.12261 Bohr) occupying 0.380456 of unit cell:	Completed after 1 iterations at t[s]:  10714.46
	FillingsUpdate:  mu: -0.208000000  nElectrons: 835.295895  magneticMoment: [ Abs: 0.00000  Tot: -0.00000 ]
	SubspaceRotationAdjust: set factor to 0.0947
ElecMinimize: Iter:  56  G: -8707.769630650944237  |grad|_K:  6.597e-08  alpha:  1.608e-01  linmin:  1.784e-05  t[s]:  10782.71
	Linear fluid (dielectric constant: 78.4, screening length: 8.12261 Bohr) occupying 0.380447 of unit cell:	Completed after 9 iterations at t[s]:  10850.07
	Linear fluid (dielectric constant: 78.4, screening length: 8.12261 Bohr) occupying 0.380445 of unit cell:	Completed after 0 iterations at t[s]:  10895.27
	FillingsUpdate:  mu: -0.208000000  nElectrons: 835.296693  magneticMoment: [ Abs: 0.00000  Tot: -0.00000 ]
	SubspaceRotationAdjust: set factor to 0.094
ElecMinimize: Iter:  57  G: -8707.769630931205029  |grad|_K:  6.555e-08  alpha:  1.840e-01  linmin: -1.181e-04  t[s]:  10962.97
	Linear fluid (dielectric constant: 78.4, screening length: 8.12261 Bohr) occupying 0.380433 of unit cell:	Completed after 9 iterations at t[s]:  11031.23
	Linear fluid (dielectric constant: 78.4, screening length: 8.12261 Bohr) occupying 0.380436 of unit cell:	Completed after 2 iterations at t[s]:  11077.42
	FillingsUpdate:  mu: -0.208000000  nElectrons: 835.296616  magneticMoment: [ Abs: 0.00000  Tot: +0.00000 ]
	SubspaceRotationAdjust: set factor to 0.0824
ElecMinimize: Iter:  58  G: -8707.769631157485492  |grad|_K:  5.491e-08  alpha:  1.411e-01  linmin:  9.756e-05  t[s]:  11144.02
	Linear fluid (dielectric constant: 78.4, screening length: 8.12261 Bohr) occupying 0.380429 of unit cell:	Completed after 7 iterations at t[s]:  11211.96
	Linear fluid (dielectric constant: 78.4, screening length: 8.12261 Bohr) occupying 0.380427 of unit cell:	Completed after 0 iterations at t[s]:  11257.35
	FillingsUpdate:  mu: -0.208000000  nElectrons: 835.297037  magneticMoment: [ Abs: 0.00000  Tot: +0.00000 ]
	SubspaceRotationAdjust: set factor to 0.0899
ElecMinimize: Iter:  59  G: -8707.769631336506791  |grad|_K:  5.214e-08  alpha:  1.743e-01  linmin: -9.189e-05  t[s]:  11323.83
	Linear fluid (dielectric constant: 78.4, screening length: 8.12261 Bohr) occupying 0.380419 of unit cell:	Completed after 2 iterations at t[s]:  11391.43
	Linear fluid (dielectric constant: 78.4, screening length: 8.12261 Bohr) occupying 0.380419 of unit cell:	Completed after 0 iterations at t[s]:  11435.53
	FillingsUpdate:  mu: -0.208000000  nElectrons: 835.297414  magneticMoment: [ Abs: 0.00000  Tot: +0.00000 ]
	SubspaceRotationAdjust: set factor to 0.0968
ElecMinimize: Iter:  60  G: -8707.769631508288512  |grad|_K:  4.860e-08  alpha:  1.728e-01  linmin: -3.775e-05  t[s]:  11503.59
	Linear fluid (dielectric constant: 78.4, screening length: 8.12261 Bohr) occupying 0.380412 of unit cell:	Completed after 2 iterations at t[s]:  11571.26
	Linear fluid (dielectric constant: 78.4, screening length: 8.12261 Bohr) occupying 0.380412 of unit cell:	Completed after 0 iterations at t[s]:  11614.96
	FillingsUpdate:  mu: -0.208000000  nElectrons: 835.297573  magneticMoment: [ Abs: 0.00000  Tot: +0.00000 ]
	SubspaceRotationAdjust: set factor to 0.104
ElecMinimize: Iter:  61  G: -8707.769631649012808  |grad|_K:  4.390e-08  alpha:  1.665e-01  linmin:  6.049e-06  t[s]:  11682.56
	Linear fluid (dielectric constant: 78.4, screening length: 8.12261 Bohr) occupying 0.380407 of unit cell:	Completed after 3 iterations at t[s]:  11749.73
	Linear fluid (dielectric constant: 78.4, screening length: 8.12261 Bohr) occupying 0.380406 of unit cell:	Completed after 0 iterations at t[s]:  11793.91
	FillingsUpdate:  mu: -0.208000000  nElectrons: 835.297646  magneticMoment: [ Abs: 0.00000  Tot: +0.00000 ]
	SubspaceRotationAdjust: set factor to 0.11
ElecMinimize: Iter:  62  G: -8707.769631767778264  |grad|_K:  3.956e-08  alpha:  1.762e-01  linmin: -3.375e-05  t[s]:  11862.47
	Linear fluid (dielectric constant: 78.4, screening length: 8.12261 Bohr) occupying 0.380402 of unit cell:	Completed after 2 iterations at t[s]:  11929.00
	Linear fluid (dielectric constant: 78.4, screening length: 8.12261 Bohr) occupying 0.380402 of unit cell:	Completed after 0 iterations at t[s]:  11974.01
	FillingsUpdate:  mu: -0.208000000  nElectrons: 835.297800  magneticMoment: [ Abs: 0.00000  Tot: +0.00000 ]
	SubspaceRotationAdjust: set factor to 0.122
ElecMinimize: Iter:  63  G: -8707.769631851726444  |grad|_K:  3.324e-08  alpha:  1.502e-01  linmin:  1.127e-05  t[s]:  12042.99
	Linear fluid (dielectric constant: 78.4, screening length: 8.12261 Bohr) occupying 0.380399 of unit cell:	Completed after 2 iterations at t[s]:  12108.28
	Linear fluid (dielectric constant: 78.4, screening length: 8.12261 Bohr) occupying 0.380399 of unit cell:	Completed after 0 iterations at t[s]:  12153.53
	FillingsUpdate:  mu: -0.208000000  nElectrons: 835.298000  magneticMoment: [ Abs: 0.00000  Tot: +0.00000 ]
	SubspaceRotationAdjust: set factor to 0.13
ElecMinimize: Iter:  64  G: -8707.769631911050965  |grad|_K:  2.624e-08  alpha:  1.534e-01  linmin: -6.760e-05  t[s]:  12221.81
ElecMinimize: Converged (|Delta G|<1.000000e-07 for 2 iters).
Setting wave functions to eigenvectors of Hamiltonian
Converging empty states (this may take a while): |deigs|: 4.964e-04

Computing DFT-D3 correction:
# coordination-number Cu 6.827 8.313 6.850 9.084 9.122 9.142 5.563 9.077 9.133 9.143 9.128 9.141 9.162 9.128 9.111 9.154 9.134 9.143 9.100 6.855 9.029 6.856 9.025 9.110 9.097 9.140 9.162 9.155 6.856 9.125 9.133 9.140 9.129 9.145 9.124 9.079 8.317 9.145 9.134 9.086 6.850 5.566 6.824 6.855
# diagonal-C6 Cu 175.00 175.00 175.00 175.00 175.00 175.00 175.00 175.00 175.00 175.00 175.00 175.00 175.00 175.00 175.00 175.00 175.00 175.00 175.00 175.00 175.00 175.00 175.00 175.00 175.00 175.00 175.00 175.00 175.00 175.00 175.00 175.00 175.00 175.00 175.00 175.00 175.00 175.00 175.00 175.00 175.00 175.00 175.00 175.00
EvdW_6 =   -0.293548
EvdW_8 =   -0.421967

# Ionic positions in cartesian coordinates:
ion Cu   0.000105000000000  14.180410999999999  62.163095000000006 1
ion Cu   0.000124000000000  20.445616000000001  59.362038000000005 1
ion Cu   0.000005000000000   6.117556000000000  60.783087000000009 1
ion Cu  -0.000029000000000  12.195517000000002  57.833804000000008 1
ion Cu   0.000010000000000  18.332256000000001  54.971155000000010 1
ion Cu  -0.000014000000000  16.264862999999998  50.660392000000009 1
ion Cu  -0.000224000000000  22.424362000000002  32.116569000000005 1
ion Cu   0.000000000000000   4.059755000000000  56.451329000000008 1
ion Cu   4.766664999999999  10.163449000000000  53.539040000000007 1
ion Cu   0.000095000000000   2.035422000000000  52.115019000000004 1
ion Cu   0.000010000000000   8.128183999999999  49.229985000000006 1
ion Cu   0.000029000000000  14.227519000000001  46.342674000000009 1
ion Cu  -0.000033000000000  20.317352000000000  43.477748000000005 1
ion Cu  -0.000043000000000  12.202000999999999  42.016607999999998 1
ion Cu  -0.000033000000000  18.276474000000000  39.140363000000008 1
ion Cu   0.000019000000000  22.360308000000000  47.790092000000008 1
ion Cu   0.000100000000000   6.097658000000001  44.914669000000011 1
ion Cu  -0.000048000000000   4.046116000000000  40.598784999999999 1
ion Cu   0.000000000000000  10.163986000000000  37.718113000000010 1
ion Cu   0.000005000000000  16.212502000000001  34.740248000000008 1
ion Cu  -0.000043000000000   1.998890000000000  36.332351000000010 1
ion Cu  -0.000153000000000   8.138401000000000  33.385091000000010 1
ion Cu   2.383364000000000  16.295179999999998  58.521436000000008 1
ion Cu   2.383354000000000  22.373186000000000  55.714372000000004 1
ion Cu   2.383335000000000   8.128631000000000  57.137128000000004 1
ion Cu   2.383306000000000  14.245806999999999  54.255761000000007 1
ion Cu   2.383364000000000  20.331727000000001  51.375912000000007 1
ion Cu   2.383292000000000  18.288592000000001  47.063379000000005 1
ion Cu   2.383340000000000   2.081679000000000  60.115689000000010 1
ion Cu   2.383397000000000   6.089855000000000  52.837748000000005 1
ion Cu   2.383283000000000  12.193684000000001  49.939497000000010 1
ion Cu   2.383335000000000   4.063846000000000  48.511050000000004 1
ion Cu   2.383388000000000  10.164075000000000  45.623992000000001 1
ion Cu   2.383273000000000  16.257104999999999  42.739147000000010 1
ion Cu   2.383259000000000  -0.038388000000000  39.883012000000008 1
ion Cu   2.383273000000000  14.231788999999999  38.403786000000004 1
ion Cu   2.383259000000000  20.206302000000001  35.494342000000010 1
ion Cu   2.383373000000000   2.027507000000000  44.193711000000008 1
ion Cu   2.383216000000000   8.129189999999999  41.315759000000007 1
ion Cu   2.383316000000000   6.096317000000000  37.021248000000007 1
ion Cu   2.383235000000000  12.174903999999998  34.072534000000005 1
ion Cu   2.383454000000000  18.223576999999999  62.738166000000007 1
ion Cu   2.383140000000000   4.112988000000000  32.690882000000002 1
ion Cu   2.383359000000000  10.155154000000000  61.470846000000009 1

# Forces in Cartesian coordinates:
force Cu   0.000000507642578  -0.000115424746338  -0.000800183820152 1
force Cu  -0.000000296933645  -0.000109604104440  -0.000667033167405 1
force Cu   0.000001289256107  -0.000156300256632  -0.000548880337162 1
force Cu   0.000001503837665  -0.000047265970201   0.000593752110956 1
force Cu   0.000000823643493  -0.000058159460170  -0.000160496882098 1
force Cu   0.000000306969329  -0.000048286328708  -0.000223637191468 1
force Cu   0.000001473156824  -0.001026514456526  -0.000199604578947 1
force Cu   0.000001345152649  -0.000241482508237   0.000380938042223 1
force Cu   0.000000389422565   0.000101711457493   0.000222651218782 1
force Cu  -0.000000001827963  -0.000007152264967   0.000103097652366 1
force Cu   0.000000712173979  -0.000025831979802   0.000123392077979 1
force Cu   0.000000261988644   0.000021028702058  -0.000154039741656 1
force Cu  -0.000000049818686  -0.000021018431419   0.000041555837313 1
force Cu  -0.000000164654617  -0.000165500986180  -0.000016585985681 1
force Cu  -0.000000452744077   0.000163536996690  -0.000239169562226 1
force Cu  -0.000000034843096   0.000004083093737   0.000074767385651 1
force Cu   0.000000025752641   0.000024353364530  -0.000157931441462 1
force Cu   0.000000685088752  -0.000161668601261  -0.000386181820787 1
force Cu   0.000000279540538   0.000196257194243  -0.000679447099811 1
force Cu  -0.000001817409567   0.000280442314277   0.000287052451880 1
force Cu   0.000000566017776  -0.000517615801350  -0.001546696510306 1
force Cu   0.000000195985570  -0.000171304519324   0.000570550479926 1
force Cu   0.000001031207417   0.000492144716534   0.001536831828780 1
force Cu   0.000000304547777  -0.000159289744567   0.000239919192522 1
force Cu  -0.000001518600695  -0.000193136268836   0.000687906998243 1
force Cu   0.000000000805534   0.000154255725881   0.000384211488836 1
force Cu  -0.000000135379787   0.000016756605148  -0.000050738829596 1
force Cu   0.000000811585861   0.000006814858526  -0.000063339891876 1
force Cu   0.000000620395004  -0.000288179110044  -0.000267138989566 1
force Cu  -0.000000182834395   0.000156063274264   0.000026822609261 1
force Cu   0.000000577442164  -0.000022195444074   0.000147001320498 1
force Cu  -0.000000064148188  -0.000025644029571   0.000165206960533 1
force Cu   0.000000027436495   0.000032517531753  -0.000116184055576 1
force Cu   0.000002181261784   0.000016381779941  -0.000114123398125 1
force Cu   0.000000419830242   0.000059046053632   0.000168870916053 1
force Cu   0.000000512186234   0.000258106233223  -0.000393343122632 1
force Cu  -0.000002732663949   0.000151852715386   0.000658190177549 1
force Cu  -0.000000272009389   0.000051594774332   0.000212302119372 1
force Cu   0.000002302875589  -0.000105193579787  -0.000226124092744 1
force Cu  -0.000000176532092   0.000070369089623  -0.000588427746697 1
force Cu   0.000000398157825   0.000166060617115   0.000570411553118 1
force Cu  -0.000000107461484   0.001024191254992   0.000229851701880 1
force Cu   0.000001281369552   0.000127616381019   0.000815431176755 1
force Cu  -0.000000170658991   0.000152229282851  -0.000559403529184 1

# Energy components:
   A_diel =        0.1608696879552309
   Eewald =    48945.6241447329957737
       EH =    57194.2799830951989861
     Eloc =  -116688.6599915246188175
      Enl =     1611.4208093288286818
     EvdW =       -0.7155152267669755
      Exc =     -853.9066849968685347
 Exc_core =        2.0666303944108395
       KE =      908.1329485707583444
  MuShift =        0.0864057498974643
-------------------------------------
     Etot =    -8881.5104001882082230
       TS =        0.0012157794788260
-------------------------------------
        F =    -8881.5116159676872485
      muN =     -173.7419840566366247
-------------------------------------
        G =    -8707.7696319110509648


Dumping 'jdft.fillings' ... done
Dumping 'jdft.wfns' ... done
Dumping 'jdft.fluidState' ... done
Dumping 'jdft.ionpos' ... done
Dumping 'jdft.lattice' ... done
Dumping 'jdft.eigenvals' ... done
Dumping 'jdft.eigStats' ... 
	eMin: -4.349415 at state 0 ( [ +0.000000 +0.000000 +0.000000 ] spin 1 )
	HOMO: -0.208752 at state 18 ( [ +0.272727 +0.000000 +0.000000 ] spin -1 )
	mu  : -0.208000
	LUMO: -0.207225 at state 3 ( [ +0.090909 +0.500000 +0.000000 ] spin 1 )
	eMax: +0.228771 at state 3 ( [ +0.090909 +0.500000 +0.000000 ] spin 1 )
	HOMO-LUMO gap: +0.001527
	Optical gap  : +0.003400 at state 3 ( [ +0.090909 +0.500000 +0.000000 ] spin 1 )
Dumping 'jdft.Ecomponents' ... done
IonicMinimize: Iter:   0  G: -8707.769631911050965  |grad|_K:  3.320e-04  t[s]:  12812.57

#--- Lowdin population analysis ---
# oxidation-state Cu +0.154 +0.032 +0.159 +0.063 +0.073 +0.077 +0.306 +0.065 +0.076 +0.077 +0.077 +0.077 +0.077 +0.075 +0.073 +0.078 +0.078 +0.077 +0.063 +0.156 +0.061 +0.159 +0.061 +0.073 +0.063 +0.077 +0.077 +0.078 +0.156 +0.075 +0.078 +0.077 +0.077 +0.077 +0.073 +0.065 +0.032 +0.077 +0.076 +0.063 +0.159 +0.306 +0.154 +0.160
# magnetic-moments Cu +0.000 +0.000 +0.000 +0.000 +0.000 +0.000 +0.000 +0.000 +0.000 +0.000 +0.000 +0.000 +0.000 +0.000 +0.000 +0.000 +0.000 +0.000 +0.000 +0.000 +0.000 +0.000 +0.000 +0.000 +0.000 +0.000 +0.000 +0.000 +0.000 +0.000 +0.000 +0.000 +0.000 +0.000 +0.000 +0.000 +0.000 +0.000 +0.000 +0.000 +0.000 +0.000 +0.000 +0.000


Computing DFT-D3 correction:
# coordination-number Cu 6.829 8.316 6.851 9.085 9.122 9.142 5.562 9.078 9.131 9.142 9.127 9.140 9.162 9.127 9.112 9.155 9.133 9.141 9.101 6.856 9.030 6.858 9.026 9.111 9.098 9.138 9.162 9.155 6.857 9.124 9.133 9.140 9.129 9.144 9.123 9.080 8.320 9.144 9.133 9.086 6.852 5.565 6.826 6.857
[...]
	SubspaceRotationAdjust: set factor to 0.146
ElecMinimize: Iter:  22  G: -8707.633877244043106  |grad|_K:  9.798e-08  alpha:  8.822e-02  linmin: -2.035e-05  t[s]:  32467.51
	Linear fluid (dielectric constant: 78.4, screening length: 8.12261 Bohr) occupying 0.379774 of unit cell:	Completed after 11 iterations at t[s]:  32534.08
	Linear fluid (dielectric constant: 78.4, screening length: 8.12261 Bohr) occupying 0.379774 of unit cell:	Completed after 0 iterations at t[s]:  32578.99
	FillingsUpdate:  mu: -0.208000000  nElectrons: 835.315085  magneticMoment: [ Abs: 0.09838  Tot: +0.00143 ]
	SubspaceRotationAdjust: set factor to 0.116
ElecMinimize: Iter:  23  G: -8707.633877547277734  |grad|_K:  7.962e-08  alpha:  8.735e-02  linmin:  3.721e-07  t[s]:  32646.59
	Linear fluid (dielectric constant: 78.4, screening length: 8.12261 Bohr) occupying 0.379773 of unit cell:	Completed after 2 iterations at t[s]:  32713.37
	Linear fluid (dielectric constant: 78.4, screening length: 8.12261 Bohr) occupying 0.379773 of unit cell:	Completed after 2 iterations at t[s]:  32759.14
	FillingsUpdate:  mu: -0.208000000  nElectrons: 835.315149  magneticMoment: [ Abs: 0.09897  Tot: +0.00153 ]
	SubspaceRotationAdjust: set factor to 0.135
ElecMinimize: Iter:  24  G: -8707.633877785803634  |grad|_K:  6.920e-08  alpha:  1.079e-01  linmin:  3.338e-06  t[s]:  32825.89
	Linear fluid (dielectric constant: 78.4, screening length: 8.12261 Bohr) occupying 0.379772 of unit cell:	Completed after 7 iterations at t[s]:  32893.63
	Linear fluid (dielectric constant: 78.4, screening length: 8.12261 Bohr) occupying 0.379772 of unit cell:	Completed after 2 iterations at t[s]:  32940.27
	FillingsUpdate:  mu: -0.208000000  nElectrons: 835.314895  magneticMoment: [ Abs: 0.09934  Tot: +0.00161 ]
	SubspaceRotationAdjust: set factor to 0.127
ElecMinimize: Iter:  25  G: -8707.633877922276952  |grad|_K:  4.563e-08  alpha:  8.309e-02  linmin:  1.116e-05  t[s]:  33006.49
	Linear fluid (dielectric constant: 78.4, screening length: 8.12261 Bohr) occupying 0.379771 of unit cell:	Completed after 6 iterations at t[s]:  33074.44
	Linear fluid (dielectric constant: 78.4, screening length: 8.12261 Bohr) occupying 0.379771 of unit cell:	Completed after 0 iterations at t[s]:  33119.06
	FillingsUpdate:  mu: -0.208000000  nElectrons: 835.315018  magneticMoment: [ Abs: 0.09955  Tot: +0.00165 ]
	SubspaceRotationAdjust: set factor to 0.133
ElecMinimize: Iter:  26  G: -8707.633877982463673  |grad|_K:  4.022e-08  alpha:  8.539e-02  linmin: -1.006e-05  t[s]:  33186.90
	Linear fluid (dielectric constant: 78.4, screening length: 8.12261 Bohr) occupying 0.379771 of unit cell:	Completed after 2 iterations at t[s]:  33254.83
	Linear fluid (dielectric constant: 78.4, screening length: 8.12261 Bohr) occupying 0.379771 of unit cell:	Completed after 0 iterations at t[s]:  33298.57
	FillingsUpdate:  mu: -0.208000000  nElectrons: 835.315055  magneticMoment: [ Abs: 0.09978  Tot: +0.00170 ]
	SubspaceRotationAdjust: set factor to 0.138
ElecMinimize: Iter:  27  G: -8707.633878038166586  |grad|_K:  4.579e-08  alpha:  9.573e-02  linmin: -1.205e-05  t[s]:  33367.22
ElecMinimize: Converged (|Delta G|<1.000000e-07 for 2 iters).
Setting wave functions to eigenvectors of Hamiltonian
Converging empty states (this may take a while): |deigs|: 1.152e-04

Computing DFT-D3 correction:
# coordination-number Cu 6.827 8.313 6.850 9.084 9.122 9.142 5.563 9.077 9.133 9.143 9.128 9.141 9.162 9.128 9.111 9.154 9.134 9.143 9.100 6.855 9.029 6.856 9.025 9.110 9.097 9.140 9.162 9.155 6.856 9.125 9.133 9.140 9.129 9.145 9.124 9.079 8.317 9.145 9.134 9.086 6.850 5.566 6.824 6.855
# diagonal-C6 Cu 175.00 175.00 175.00 175.00 175.00 175.00 175.00 175.00 175.00 175.00 175.00 175.00 175.00 175.00 175.00 175.00 175.00 175.00 175.00 175.00 175.00 175.00 175.00 175.00 175.00 175.00 175.00 175.00 175.00 175.00 175.00 175.00 175.00 175.00 175.00 175.00 175.00 175.00 175.00 175.00 175.00 175.00 175.00 175.00
EvdW_6 =   -0.293548
EvdW_8 =   -0.421967
IonicMinimize: 	Undoing step.

Computing DFT-D3 correction:
# coordination-number Cu 6.827 8.313 6.850 9.084 9.122 9.142 5.563 9.077 9.133 9.143 9.128 9.141 9.162 9.128 9.111 9.154 9.134 9.143 9.100 6.855 9.029 6.856 9.025 9.110 9.097 9.140 9.162 9.155 6.856 9.125 9.133 9.140 9.129 9.145 9.124 9.079 8.317 9.145 9.134 9.086 6.850 5.566 6.824 6.855
# diagonal-C6 Cu 175.00 175.00 175.00 175.00 175.00 175.00 175.00 175.00 175.00 175.00 175.00 175.00 175.00 175.00 175.00 175.00 175.00 175.00 175.00 175.00 175.00 175.00 175.00 175.00 175.00 175.00 175.00 175.00 175.00 175.00 175.00 175.00 175.00 175.00 175.00 175.00 175.00 175.00 175.00 175.00 175.00 175.00 175.00 175.00
EvdW_6 =   -0.293548
EvdW_8 =   -0.421967
Shifting auxilliary hamiltonian by -0.000031 to set nElectrons=835.315055

-------- Electronic minimization -----------
	Linear fluid (dielectric constant: 78.4, screening length: 8.12261 Bohr) occupying 0.380375 of unit cell:	Completed after 19 iterations at t[s]:  34051.38
	FillingsUpdate:  mu: -0.208000000  nElectrons: 835.315055  magneticMoment: [ Abs: 0.02392  Tot: +0.00257 ]
ElecMinimize: Iter:   0  G: -8707.769442435526798  |grad|_K:  3.176e-06  alpha:  1.000e+00
	Linear fluid (dielectric constant: 78.4, screening length: 8.12261 Bohr) occupying 0.380297 of unit cell:	Completed after 27 iterations at t[s]:  34200.00
	Linear fluid (dielectric constant: 78.4, screening length: 8.12261 Bohr) occupying 0.380371 of unit cell:	Completed after 28 iterations at t[s]:  34247.96
	FillingsUpdate:  mu: -0.208000000  nElectrons: 835.292742  magneticMoment: [ Abs: 0.02302  Tot: +0.00254 ]
	SubspaceRotationAdjust: set factor to 0.0562
ElecMinimize: Iter:   1  G: -8707.769588483612097  |grad|_K:  7.628e-07  alpha:  4.608e-02  linmin:  9.994e-03  t[s]:  34316.10
	Linear fluid (dielectric constant: 78.4, screening length: 8.12261 Bohr) occupying 0.380371 of unit cell:	Completed after 14 iterations at t[s]:  34384.78
	Linear fluid (dielectric constant: 78.4, screening length: 8.12261 Bohr) occupying 0.380371 of unit cell:	Completed after 14 iterations at t[s]:  34431.02
	FillingsUpdate:  mu: -0.208000000  nElectrons: 835.298765  magneticMoment: [ Abs: 0.02143  Tot: +0.00251 ]
	SubspaceRotationAdjust: set factor to 0.0405
ElecMinimize: Iter:   2  G: -8707.769606211428254  |grad|_K:  3.736e-07  alpha:  9.667e-02  linmin:  3.881e-05  t[s]:  34500.50
	Linear fluid (dielectric constant: 78.4, screening length: 8.12261 Bohr) occupying 0.380370 of unit cell:	Completed after 11 iterations at t[s]:  34568.39
	Linear fluid (dielectric constant: 78.4, screening length: 8.12261 Bohr) occupying 0.380369 of unit cell:	Completed after 14 iterations at t[s]:  34615.70
	FillingsUpdate:  mu: -0.208000000  nElectrons: 835.297531  magneticMoment: [ Abs: 0.01847  Tot: +0.00246 ]
	SubspaceRotationAdjust: set factor to 0.0492
ElecMinimize: Iter:   3  G: -8707.769618665744929  |grad|_K:  2.710e-07  alpha:  2.562e-01  linmin:  3.165e-05  t[s]:  34684.70
	Linear fluid (dielectric constant: 78.4, screening length: 8.12261 Bohr) occupying 0.380367 of unit cell:	Completed after 14 iterations at t[s]:  34751.62
	Linear fluid (dielectric constant: 78.4, screening length: 8.12261 Bohr) occupying 0.380368 of unit cell:	Completed after 10 iterations at t[s]:  34798.35
	FillingsUpdate:  mu: -0.208000000  nElectrons: 835.297307  magneticMoment: [ Abs: 0.01765  Tot: +0.00244 ]
	SubspaceRotationAdjust: set factor to 0.064
ElecMinimize: Iter:   4  G: -8707.769621979994554  |grad|_K:  1.564e-07  alpha:  1.296e-01  linmin:  3.332e-06  t[s]:  34866.55
	Linear fluid (dielectric constant: 78.4, screening length: 8.12261 Bohr) occupying 0.380367 of unit cell:	Completed after 10 iterations at t[s]:  34933.93
	Linear fluid (dielectric constant: 78.4, screening length: 8.12261 Bohr) occupying 0.380367 of unit cell:	Completed after 10 iterations at t[s]:  34980.80
	FillingsUpdate:  mu: -0.208000000  nElectrons: 835.298646  magneticMoment: [ Abs: 0.01687  Tot: +0.00238 ]
	SubspaceRotationAdjust: set factor to 0.0673
ElecMinimize: Iter:   5  G: -8707.769624566493803  |grad|_K:  1.507e-07  alpha:  3.029e-01  linmin:  1.049e-05  t[s]:  35048.58
	Linear fluid (dielectric constant: 78.4, screening length: 8.12261 Bohr) occupying 0.380366 of unit cell:	Completed after 13 iterations at t[s]:  35116.72
	Linear fluid (dielectric constant: 78.4, screening length: 8.12261 Bohr) occupying 0.380366 of unit cell:	Completed after 10 iterations at t[s]:  35164.49
	FillingsUpdate:  mu: -0.208000000  nElectrons: 835.298172  magneticMoment: [ Abs: 0.01581  Tot: +0.00233 ]
	SubspaceRotationAdjust: set factor to 0.0742
ElecMinimize: Iter:   6  G: -8707.769626062441603  |grad|_K:  1.306e-07  alpha:  1.885e-01  linmin:  3.769e-06  t[s]:  35230.82
	Linear fluid (dielectric constant: 78.4, screening length: 8.12261 Bohr) occupying 0.380366 of unit cell:	Completed after 6 iterations at t[s]:  35298.63
	Linear fluid (dielectric constant: 78.4, screening length: 8.12261 Bohr) occupying 0.380366 of unit cell:	Completed after 2 iterations at t[s]:  35343.68
	FillingsUpdate:  mu: -0.208000000  nElectrons: 835.298149  magneticMoment: [ Abs: 0.01426  Tot: +0.00225 ]
	SubspaceRotationAdjust: set factor to 0.0861
ElecMinimize: Iter:   7  G: -8707.769627319621577  |grad|_K:  1.218e-07  alpha:  2.109e-01  linmin: -2.762e-06  t[s]:  35411.87
	Linear fluid (dielectric constant: 78.4, screening length: 8.12261 Bohr) occupying 0.380366 of unit cell:	Completed after 11 iterations at t[s]:  35480.69
	Linear fluid (dielectric constant: 78.4, screening length: 8.12261 Bohr) occupying 0.380366 of unit cell:	Completed after 0 iterations at t[s]:  35524.08
	FillingsUpdate:  mu: -0.208000000  nElectrons: 835.299111  magneticMoment: [ Abs: 0.01291  Tot: +0.00215 ]
	SubspaceRotationAdjust: set factor to 0.0853
ElecMinimize: Iter:   8  G: -8707.769628449954325  |grad|_K:  1.192e-07  alpha:  2.178e-01  linmin:  1.038e-06  t[s]:  35591.92
	Linear fluid (dielectric constant: 78.4, screening length: 8.12261 Bohr) occupying 0.380367 of unit cell:	Completed after 10 iterations at t[s]:  35660.39
	Linear fluid (dielectric constant: 78.4, screening length: 8.12261 Bohr) occupying 0.380367 of unit cell:	Completed after 2 iterations at t[s]:  35704.79
	FillingsUpdate:  mu: -0.208000000  nElectrons: 835.298874  magneticMoment: [ Abs: 0.01208  Tot: +0.00203 ]
	SubspaceRotationAdjust: set factor to 0.0847
ElecMinimize: Iter:   9  G: -8707.769629431051726  |grad|_K:  9.025e-08  alpha:  1.976e-01  linmin:  2.627e-06  t[s]:  35773.09
	Linear fluid (dielectric constant: 78.4, screening length: 8.12261 Bohr) occupying 0.380368 of unit cell:	Completed after 2 iterations at t[s]:  35839.43
	Linear fluid (dielectric constant: 78.4, screening length: 8.12261 Bohr) occupying 0.380368 of unit cell:	Completed after 1 iterations at t[s]:  35883.90
	FillingsUpdate:  mu: -0.208000000  nElectrons: 835.299016  magneticMoment: [ Abs: 0.01188  Tot: +0.00194 ]
	SubspaceRotationAdjust: set factor to 0.0962
ElecMinimize: Iter:  10  G: -8707.769629909907962  |grad|_K:  8.095e-08  alpha:  1.688e-01  linmin:  2.911e-06  t[s]:  35952.53
	Linear fluid (dielectric constant: 78.4, screening length: 8.12261 Bohr) occupying 0.380369 of unit cell:	Completed after 7 iterations at t[s]:  36018.74
	Linear fluid (dielectric constant: 78.4, screening length: 8.12261 Bohr) occupying 0.380369 of unit cell:	Completed after 2 iterations at t[s]:  36064.27
	FillingsUpdate:  mu: -0.208000000  nElectrons: 835.299360  magneticMoment: [ Abs: 0.01166  Tot: +0.00180 ]
	SubspaceRotationAdjust: set factor to 0.101
ElecMinimize: Iter:  11  G: -8707.769630514943856  |grad|_K:  7.912e-08  alpha:  2.615e-01  linmin: -1.995e-05  t[s]:  36133.20
	Linear fluid (dielectric constant: 78.4, screening length: 8.12261 Bohr) occupying 0.380371 of unit cell:	Completed after 9 iterations at t[s]:  36199.45
	Linear fluid (dielectric constant: 78.4, screening length: 8.12261 Bohr) occupying 0.380370 of unit cell:	Completed after 7 iterations at t[s]:  36245.80
	FillingsUpdate:  mu: -0.208000000  nElectrons: 835.299099  magneticMoment: [ Abs: 0.01120  Tot: +0.00170 ]
	SubspaceRotationAdjust: set factor to 0.112
ElecMinimize: Iter:  12  G: -8707.769630850056274  |grad|_K:  5.461e-08  alpha:  1.477e-01  linmin:  6.501e-06  t[s]:  36313.34
	Linear fluid (dielectric constant: 78.4, screening length: 8.12261 Bohr) occupying 0.380371 of unit cell:	Completed after 2 iterations at t[s]:  36380.03
	Linear fluid (dielectric constant: 78.4, screening length: 8.12261 Bohr) occupying 0.380372 of unit cell:	Completed after 2 iterations at t[s]:  36426.02
	FillingsUpdate:  mu: -0.208000000  nElectrons: 835.299089  magneticMoment: [ Abs: 0.01047  Tot: +0.00159 ]
	SubspaceRotationAdjust: set factor to 0.132
ElecMinimize: Iter:  13  G: -8707.769631090006442  |grad|_K:  5.609e-08  alpha:  2.304e-01  linmin: -4.235e-06  t[s]:  36493.06
	Linear fluid (dielectric constant: 78.4, screening length: 8.12261 Bohr) occupying 0.380373 of unit cell:	Completed after 7 iterations at t[s]:  36560.68
	Linear fluid (dielectric constant: 78.4, screening length: 8.12261 Bohr) occupying 0.380373 of unit cell:	Completed after 2 iterations at t[s]:  36606.09
	FillingsUpdate:  mu: -0.208000000  nElectrons: 835.299110  magneticMoment: [ Abs: 0.00986  Tot: +0.00147 ]
	SubspaceRotationAdjust: set factor to 0.147
ElecMinimize: Iter:  14  G: -8707.769631295384897  |grad|_K:  4.830e-08  alpha:  1.865e-01  linmin: -6.407e-06  t[s]:  36672.95
	Linear fluid (dielectric constant: 78.4, screening length: 8.12261 Bohr) occupying 0.380374 of unit cell:	Completed after 9 iterations at t[s]:  36741.38
	Linear fluid (dielectric constant: 78.4, screening length: 8.12261 Bohr) occupying 0.380374 of unit cell:	Completed after 3 iterations at t[s]:  36785.96
	FillingsUpdate:  mu: -0.208000000  nElectrons: 835.298648  magneticMoment: [ Abs: 0.00952  Tot: +0.00137 ]
	SubspaceRotationAdjust: set factor to 0.105
ElecMinimize: Iter:  15  G: -8707.769631419785583  |grad|_K:  5.524e-08  alpha:  1.514e-01  linmin:  1.859e-05  t[s]:  36853.94
	Linear fluid (dielectric constant: 78.4, screening length: 8.12261 Bohr) occupying 0.380376 of unit cell:	Completed after 10 iterations at t[s]:  36922.85
	Linear fluid (dielectric constant: 78.4, screening length: 8.12261 Bohr) occupying 0.380375 of unit cell:	Completed after 8 iterations at t[s]:  36967.70
	FillingsUpdate:  mu: -0.208000000  nElectrons: 835.298935  magneticMoment: [ Abs: 0.00922  Tot: +0.00127 ]
	SubspaceRotationAdjust: set factor to 0.0724
ElecMinimize: Iter:  16  G: -8707.769631508546809  |grad|_K:  4.266e-08  alpha:  8.906e-02  linmin:  1.562e-06  t[s]:  37035.80
	Linear fluid (dielectric constant: 78.4, screening length: 8.12261 Bohr) occupying 0.380376 of unit cell:	Completed after 2 iterations at t[s]:  37102.19
	Linear fluid (dielectric constant: 78.4, screening length: 8.12261 Bohr) occupying 0.380377 of unit cell:	Completed after 2 iterations at t[s]:  37146.66
	FillingsUpdate:  mu: -0.208000000  nElectrons: 835.298760  magneticMoment: [ Abs: 0.00871  Tot: +0.00116 ]
	SubspaceRotationAdjust: set factor to 0.0943
ElecMinimize: Iter:  17  G: -8707.769631607261545  |grad|_K:  4.082e-08  alpha:  1.562e-01  linmin: -1.536e-06  t[s]:  37215.57
ElecMinimize: Converged (|Delta G|<1.000000e-07 for 2 iters).
Setting wave functions to eigenvectors of Hamiltonian
Converging empty states (this may take a while): |deigs|: 2.072e-04

Computing DFT-D3 correction:
# coordination-number Cu 6.827 8.313 6.850 9.084 9.122 9.142 5.563 9.077 9.133 9.143 9.128 9.141 9.162 9.128 9.111 9.154 9.134 9.143 9.100 6.855 9.029 6.856 9.025 9.110 9.097 9.140 9.162 9.155 6.856 9.125 9.133 9.140 9.129 9.145 9.124 9.079 8.317 9.145 9.134 9.086 6.850 5.566 6.824 6.855
# diagonal-C6 Cu 175.00 175.00 175.00 175.00 175.00 175.00 175.00 175.00 175.00 175.00 175.00 175.00 175.00 175.00 175.00 175.00 175.00 175.00 175.00 175.00 175.00 175.00 175.00 175.00 175.00 175.00 175.00 175.00 175.00 175.00 175.00 175.00 175.00 175.00 175.00 175.00 175.00 175.00 175.00 175.00 175.00 175.00 175.00 175.00
EvdW_6 =   -0.293548
EvdW_8 =   -0.421967
IonicMinimize: 	Step failed along negative gradient direction.
IonicMinimize: Probably at roundoff error limit. (Stopping)

Dumping 'jdft.n_up' ... done
Dumping 'jdft.n_dn' ... done
Dumping 'jdft.tau_up' ... done
Dumping 'jdft.tau_dn' ... done
Dumping 'jdft.eigenvals' ... done
Dumping 'jdft.eigStats' ... 
	eMin: -4.349326 at state 0 ( [ +0.000000 +0.000000 +0.000000 ] spin 1 )
	HOMO: -0.208683 at state 18 ( [ +0.272727 +0.000000 +0.000000 ] spin -1 )
	mu  : -0.208000
	LUMO: -0.207152 at state 3 ( [ +0.090909 +0.500000 +0.000000 ] spin 1 )
	eMax: +0.228810 at state 3 ( [ +0.090909 +0.500000 +0.000000 ] spin 1 )
	HOMO-LUMO gap: +0.001532
	Optical gap  : +0.003417 at state 3 ( [ +0.090909 +0.500000 +0.000000 ] spin 1 )
Dumping 'jdft.kPts' ... done
Dumping 'jdft.kMap' ... done
Dumping 'jdft.dosUp' ... done.
Dumping 'jdft.dosDn' ... done.
End date and time: Sat Sep 10 22:19:46 2022  (Duration: 0-10:33:54.34)
Done!

PROFILER:             augmentDensityGrid     1.384112 +/-     0.125540 s,  375 calls,    519.041989 s total
PROFILER:         augmentDensityGridGrad     0.820895 +/-     0.220599 s,  198 calls,    162.537289 s total
PROFILER:        augmentDensitySpherical     0.009987 +/-     0.000564 s,  375 calls,      3.745080 s total
PROFILER:    augmentDensitySphericalGrad     0.010087 +/-     0.002574 s,  234 calls,      2.360355 s total
PROFILER:                 augmentOverlap    13.602365 +/-     1.892126 s,  813 calls,  11058.722989 s total
PROFILER:                     diagouterI    13.558649 +/-     0.428124 s,  378 calls,   5125.169314 s total
PROFILER:              EdensityAndVscloc     3.702810 +/-     1.360940 s,  375 calls,   1388.553649 s total
PROFILER:                     EnlAndGrad     0.100049 +/-     0.023058 s,  418 calls,     41.820434 s total
PROFILER:            ExCorrCommunication     0.017866 +/-     0.038731 s, 2329 calls,     41.609848 s total
PROFILER:               ExCorrFunctional     0.006427 +/-     0.000979 s,  397 calls,      2.551522 s total
PROFILER:                    ExCorrTotal     0.170182 +/-     0.106103 s,  397 calls,     67.562320 s total
PROFILER:                   Idag_DiagV_I    24.783741 +/-     6.979210 s,  227 calls,   5625.909203 s total
PROFILER:                    initWeights     1.877565 +/-     0.000000 s,    1 calls,      1.877565 s total
PROFILER:                    inv(matrix)     0.162238 +/-     0.053098 s,  372 calls,     60.352423 s total
PROFILER:            matrix::diagonalize     0.187228 +/-     0.112362 s,  595 calls,    111.400883 s total
PROFILER:                    matrix::set     0.000022 +/-     0.000034 s, 28944 calls,      0.647310 s total
PROFILER:            orthoMatrix(matrix)     0.035018 +/-     0.024610 s,  402 calls,     14.077126 s total
PROFILER:     RadialFunctionR::transform     0.003435 +/-     0.011494 s,   57 calls,      0.195794 s total
PROFILER:                    reduceKmesh     0.007737 +/-     0.000000 s,    1 calls,      0.007737 s total
PROFILER:   VanDerWaalsD3::energyAndGrad     0.041792 +/-     0.003637 s,   15 calls,      0.626883 s total
PROFILER:               WavefunctionDrag    54.231424 +/-    11.347238 s,    7 calls,    379.619968 s total
PROFILER:                            Y*M     4.891774 +/-     1.405427 s, 2663 calls,  13026.793465 s total
PROFILER:                          Y1^Y2     5.116826 +/-     1.701001 s, 1721 calls,   8806.057419 s total

MEMUSAGE:                   ColumnBundle     1.416031 GB
MEMUSAGE:        complexScalarFieldTilde     0.014648 GB
MEMUSAGE:                    IndexArrays     0.010294 GB
MEMUSAGE:                         matrix     0.172095 GB
MEMUSAGE:                           misc     0.014735 GB
MEMUSAGE:                    ScalarField     0.106201 GB
MEMUSAGE:               ScalarFieldTilde     0.077505 GB
MEMUSAGE:                          Total     1.565219 GB
