
*************** JDFTx 1.6.0  ***************

Start date and time: Thu Dec  9 05:46:35 2021
Executable /projects/musgravc/apps/jdftx-1.6.1/build/jdftx with command-line: -i in
Running on hosts (process indices):  shas0139.rc.int.colorado.edu (0-23)
Divided in process groups (process indices):  0 (0)  1 (1)  2 (2)  3 (3)  4 (4)  5 (5)  6 (6)  7 (7)  8 (8)  9 (9)  10 (10)  11 (11)  12 (12)  13 (13)  14 (14)  15 (15)  16 (16)  17 (17)  18 (18)  19 (19)  20 (20)  21 (21)  22 (22)  23 (23)
Resource initialization completed at t[s]:      0.00
Run totals: 24 processes, 24 threads, 0 GPUs


Input parsed successfully to the following command list (including defaults):

basis kpoint-dependent
converge-empty-states yes
coords-type Cartesian
core-overlap-check none
coulomb-interaction Periodic
davidson-band-ratio 1.1
density-of-states Etol 1.000000e-06 Esigma 1.000000e-03 \
		Complete \
	Total \
	OrthoOrbital Pt 1   s \
	OrthoOrbital Pt 1   p \
	OrthoOrbital Pt 1   px \
	OrthoOrbital Pt 1   py \
	OrthoOrbital Pt 1   pz \
	OrthoOrbital Pt 1   d \
	OrthoOrbital Pt 1   dxy \
	OrthoOrbital Pt 1   dyz \
	OrthoOrbital Pt 1   dz2 \
	OrthoOrbital Pt 1   dxz \
	OrthoOrbital Pt 1   dx2-y2 \
	OrthoOrbital Pt 2   s \
	OrthoOrbital Pt 2   p \
	OrthoOrbital Pt 2   px \
	OrthoOrbital Pt 2   py \
	OrthoOrbital Pt 2   pz \
	OrthoOrbital Pt 2   d \
	OrthoOrbital Pt 2   dxy \
	OrthoOrbital Pt 2   dyz \
	OrthoOrbital Pt 2   dz2 \
	OrthoOrbital Pt 2   dxz \
	OrthoOrbital Pt 2   dx2-y2 \
	OrthoOrbital Pt 3   s \
	OrthoOrbital Pt 3   p \
	OrthoOrbital Pt 3   px \
	OrthoOrbital Pt 3   py \
	OrthoOrbital Pt 3   pz \
	OrthoOrbital Pt 3   d \
	OrthoOrbital Pt 3   dxy \
	OrthoOrbital Pt 3   dyz \
	OrthoOrbital Pt 3   dz2 \
	OrthoOrbital Pt 3   dxz \
	OrthoOrbital Pt 3   dx2-y2 \
	OrthoOrbital Pt 4   s \
	OrthoOrbital Pt 4   p \
	OrthoOrbital Pt 4   px \
	OrthoOrbital Pt 4   py \
	OrthoOrbital Pt 4   pz \
	OrthoOrbital Pt 4   d \
	OrthoOrbital Pt 4   dxy \
	OrthoOrbital Pt 4   dyz \
	OrthoOrbital Pt 4   dz2 \
	OrthoOrbital Pt 4   dxz \
	OrthoOrbital Pt 4   dx2-y2 \
	OrthoOrbital Pt 5   s \
	OrthoOrbital Pt 5   p \
	OrthoOrbital Pt 5   px \
	OrthoOrbital Pt 5   py \
	OrthoOrbital Pt 5   pz \
	OrthoOrbital Pt 5   d \
	OrthoOrbital Pt 5   dxy \
	OrthoOrbital Pt 5   dyz \
	OrthoOrbital Pt 5   dz2 \
	OrthoOrbital Pt 5   dxz \
	OrthoOrbital Pt 5   dx2-y2 \
	OrthoOrbital Pt 6   s \
	OrthoOrbital Pt 6   p \
	OrthoOrbital Pt 6   px \
	OrthoOrbital Pt 6   py \
	OrthoOrbital Pt 6   pz \
	OrthoOrbital Pt 6   d \
	OrthoOrbital Pt 6   dxy \
	OrthoOrbital Pt 6   dyz \
	OrthoOrbital Pt 6   dz2 \
	OrthoOrbital Pt 6   dxz \
	OrthoOrbital Pt 6   dx2-y2 \
	OrthoOrbital Pt 7   s \
	OrthoOrbital Pt 7   p \
	OrthoOrbital Pt 7   px \
	OrthoOrbital Pt 7   py \
	OrthoOrbital Pt 7   pz \
	OrthoOrbital Pt 7   d \
	OrthoOrbital Pt 7   dxy \
	OrthoOrbital Pt 7   dyz \
	OrthoOrbital Pt 7   dz2 \
	OrthoOrbital Pt 7   dxz \
	OrthoOrbital Pt 7   dx2-y2 \
	OrthoOrbital Pt 8   s \
	OrthoOrbital Pt 8   p \
	OrthoOrbital Pt 8   px \
	OrthoOrbital Pt 8   py \
	OrthoOrbital Pt 8   pz \
	OrthoOrbital Pt 8   d \
	OrthoOrbital Pt 8   dxy \
	OrthoOrbital Pt 8   dyz \
	OrthoOrbital Pt 8   dz2 \
	OrthoOrbital Pt 8   dxz \
	OrthoOrbital Pt 8   dx2-y2 \
	OrthoOrbital Pt 9   s \
	OrthoOrbital Pt 9   p \
	OrthoOrbital Pt 9   px \
	OrthoOrbital Pt 9   py \
	OrthoOrbital Pt 9   pz \
	OrthoOrbital Pt 9   d \
	OrthoOrbital Pt 9   dxy \
	OrthoOrbital Pt 9   dyz \
	OrthoOrbital Pt 9   dz2 \
	OrthoOrbital Pt 9   dxz \
	OrthoOrbital Pt 9   dx2-y2 \
	OrthoOrbital Pt 10   s \
	OrthoOrbital Pt 10   p \
	OrthoOrbital Pt 10   px \
	OrthoOrbital Pt 10   py \
	OrthoOrbital Pt 10   pz \
	OrthoOrbital Pt 10   d \
	OrthoOrbital Pt 10   dxy \
	OrthoOrbital Pt 10   dyz \
	OrthoOrbital Pt 10   dz2 \
	OrthoOrbital Pt 10   dxz \
	OrthoOrbital Pt 10   dx2-y2 \
	OrthoOrbital Pt 11   s \
	OrthoOrbital Pt 11   p \
	OrthoOrbital Pt 11   px \
	OrthoOrbital Pt 11   py \
	OrthoOrbital Pt 11   pz \
	OrthoOrbital Pt 11   d \
	OrthoOrbital Pt 11   dxy \
	OrthoOrbital Pt 11   dyz \
	OrthoOrbital Pt 11   dz2 \
	OrthoOrbital Pt 11   dxz \
	OrthoOrbital Pt 11   dx2-y2 \
	OrthoOrbital Pt 12   s \
	OrthoOrbital Pt 12   p \
	OrthoOrbital Pt 12   px \
	OrthoOrbital Pt 12   py \
	OrthoOrbital Pt 12   pz \
	OrthoOrbital Pt 12   d \
	OrthoOrbital Pt 12   dxy \
	OrthoOrbital Pt 12   dyz \
	OrthoOrbital Pt 12   dz2 \
	OrthoOrbital Pt 12   dxz \
	OrthoOrbital Pt 12   dx2-y2 \
	OrthoOrbital Pt 13   s \
	OrthoOrbital Pt 13   p \
	OrthoOrbital Pt 13   px \
	OrthoOrbital Pt 13   py \
	OrthoOrbital Pt 13   pz \
	OrthoOrbital Pt 13   d \
	OrthoOrbital Pt 13   dxy \
	OrthoOrbital Pt 13   dyz \
	OrthoOrbital Pt 13   dz2 \
	OrthoOrbital Pt 13   dxz \
	OrthoOrbital Pt 13   dx2-y2 \
	OrthoOrbital Pt 14   s \
	OrthoOrbital Pt 14   p \
	OrthoOrbital Pt 14   px \
	OrthoOrbital Pt 14   py \
	OrthoOrbital Pt 14   pz \
	OrthoOrbital Pt 14   d \
	OrthoOrbital Pt 14   dxy \
	OrthoOrbital Pt 14   dyz \
	OrthoOrbital Pt 14   dz2 \
	OrthoOrbital Pt 14   dxz \
	OrthoOrbital Pt 14   dx2-y2 \
	OrthoOrbital Pt 15   s \
	OrthoOrbital Pt 15   p \
	OrthoOrbital Pt 15   px \
	OrthoOrbital Pt 15   py \
	OrthoOrbital Pt 15   pz \
	OrthoOrbital Pt 15   d \
	OrthoOrbital Pt 15   dxy \
	OrthoOrbital Pt 15   dyz \
	OrthoOrbital Pt 15   dz2 \
	OrthoOrbital Pt 15   dxz \
	OrthoOrbital Pt 15   dx2-y2 \
	OrthoOrbital Pt 16   s \
	OrthoOrbital Pt 16   p \
	OrthoOrbital Pt 16   px \
	OrthoOrbital Pt 16   py \
	OrthoOrbital Pt 16   pz \
	OrthoOrbital Pt 16   d \
	OrthoOrbital Pt 16   dxy \
	OrthoOrbital Pt 16   dyz \
	OrthoOrbital Pt 16   dz2 \
	OrthoOrbital Pt 16   dxz \
	OrthoOrbital Pt 16   dx2-y2 \
	OrthoOrbital Pt 17   s \
	OrthoOrbital Pt 17   p \
	OrthoOrbital Pt 17   px \
	OrthoOrbital Pt 17   py \
	OrthoOrbital Pt 17   pz \
	OrthoOrbital Pt 17   d \
	OrthoOrbital Pt 17   dxy \
	OrthoOrbital Pt 17   dyz \
	OrthoOrbital Pt 17   dz2 \
	OrthoOrbital Pt 17   dxz \
	OrthoOrbital Pt 17   dx2-y2 \
	OrthoOrbital Pt 18   s \
	OrthoOrbital Pt 18   p \
	OrthoOrbital Pt 18   px \
	OrthoOrbital Pt 18   py \
	OrthoOrbital Pt 18   pz \
	OrthoOrbital Pt 18   d \
	OrthoOrbital Pt 18   dxy \
	OrthoOrbital Pt 18   dyz \
	OrthoOrbital Pt 18   dz2 \
	OrthoOrbital Pt 18   dxz \
	OrthoOrbital Pt 18   dx2-y2 \
	OrthoOrbital Pt 19   s \
	OrthoOrbital Pt 19   p \
	OrthoOrbital Pt 19   px \
	OrthoOrbital Pt 19   py \
	OrthoOrbital Pt 19   pz \
	OrthoOrbital Pt 19   d \
	OrthoOrbital Pt 19   dxy \
	OrthoOrbital Pt 19   dyz \
	OrthoOrbital Pt 19   dz2 \
	OrthoOrbital Pt 19   dxz \
	OrthoOrbital Pt 19   dx2-y2 \
	OrthoOrbital Pt 20   s \
	OrthoOrbital Pt 20   p \
	OrthoOrbital Pt 20   px \
	OrthoOrbital Pt 20   py \
	OrthoOrbital Pt 20   pz \
	OrthoOrbital Pt 20   d \
	OrthoOrbital Pt 20   dxy \
	OrthoOrbital Pt 20   dyz \
	OrthoOrbital Pt 20   dz2 \
	OrthoOrbital Pt 20   dxz \
	OrthoOrbital Pt 20   dx2-y2 \
	OrthoOrbital Pt 21   s \
	OrthoOrbital Pt 21   p \
	OrthoOrbital Pt 21   px \
	OrthoOrbital Pt 21   py \
	OrthoOrbital Pt 21   pz \
	OrthoOrbital Pt 21   d \
	OrthoOrbital Pt 21   dxy \
	OrthoOrbital Pt 21   dyz \
	OrthoOrbital Pt 21   dz2 \
	OrthoOrbital Pt 21   dxz \
	OrthoOrbital Pt 21   dx2-y2 \
	OrthoOrbital Pt 22   s \
	OrthoOrbital Pt 22   p \
	OrthoOrbital Pt 22   px \
	OrthoOrbital Pt 22   py \
	OrthoOrbital Pt 22   pz \
	OrthoOrbital Pt 22   d \
	OrthoOrbital Pt 22   dxy \
	OrthoOrbital Pt 22   dyz \
	OrthoOrbital Pt 22   dz2 \
	OrthoOrbital Pt 22   dxz \
	OrthoOrbital Pt 22   dx2-y2 \
	OrthoOrbital Pt 23   s \
	OrthoOrbital Pt 23   p \
	OrthoOrbital Pt 23   px \
	OrthoOrbital Pt 23   py \
	OrthoOrbital Pt 23   pz \
	OrthoOrbital Pt 23   d \
	OrthoOrbital Pt 23   dxy \
	OrthoOrbital Pt 23   dyz \
	OrthoOrbital Pt 23   dz2 \
	OrthoOrbital Pt 23   dxz \
	OrthoOrbital Pt 23   dx2-y2 \
	OrthoOrbital Pt 24   s \
	OrthoOrbital Pt 24   p \
	OrthoOrbital Pt 24   px \
	OrthoOrbital Pt 24   py \
	OrthoOrbital Pt 24   pz \
	OrthoOrbital Pt 24   d \
	OrthoOrbital Pt 24   dxy \
	OrthoOrbital Pt 24   dyz \
	OrthoOrbital Pt 24   dz2 \
	OrthoOrbital Pt 24   dxz \
	OrthoOrbital Pt 24   dx2-y2 \
	OrthoOrbital Pt 25   s \
	OrthoOrbital Pt 25   p \
	OrthoOrbital Pt 25   px \
	OrthoOrbital Pt 25   py \
	OrthoOrbital Pt 25   pz \
	OrthoOrbital Pt 25   d \
	OrthoOrbital Pt 25   dxy \
	OrthoOrbital Pt 25   dyz \
	OrthoOrbital Pt 25   dz2 \
	OrthoOrbital Pt 25   dxz \
	OrthoOrbital Pt 25   dx2-y2 \
	OrthoOrbital Pt 26   s \
	OrthoOrbital Pt 26   p \
	OrthoOrbital Pt 26   px \
	OrthoOrbital Pt 26   py \
	OrthoOrbital Pt 26   pz \
	OrthoOrbital Pt 26   d \
	OrthoOrbital Pt 26   dxy \
	OrthoOrbital Pt 26   dyz \
	OrthoOrbital Pt 26   dz2 \
	OrthoOrbital Pt 26   dxz \
	OrthoOrbital Pt 26   dx2-y2 \
	OrthoOrbital Pt 27   s \
	OrthoOrbital Pt 27   p \
	OrthoOrbital Pt 27   px \
	OrthoOrbital Pt 27   py \
	OrthoOrbital Pt 27   pz \
	OrthoOrbital Pt 27   d \
	OrthoOrbital Pt 27   dxy \
	OrthoOrbital Pt 27   dyz \
	OrthoOrbital Pt 27   dz2 \
	OrthoOrbital Pt 27   dxz \
	OrthoOrbital Pt 27   dx2-y2 \
	OrthoOrbital Pt 28   s \
	OrthoOrbital Pt 28   p \
	OrthoOrbital Pt 28   px \
	OrthoOrbital Pt 28   py \
	OrthoOrbital Pt 28   pz \
	OrthoOrbital Pt 28   d \
	OrthoOrbital Pt 28   dxy \
	OrthoOrbital Pt 28   dyz \
	OrthoOrbital Pt 28   dz2 \
	OrthoOrbital Pt 28   dxz \
	OrthoOrbital Pt 28   dx2-y2 \
	OrthoOrbital Pt 29   s \
	OrthoOrbital Pt 29   p \
	OrthoOrbital Pt 29   px \
	OrthoOrbital Pt 29   py \
	OrthoOrbital Pt 29   pz \
	OrthoOrbital Pt 29   d \
	OrthoOrbital Pt 29   dxy \
	OrthoOrbital Pt 29   dyz \
	OrthoOrbital Pt 29   dz2 \
	OrthoOrbital Pt 29   dxz \
	OrthoOrbital Pt 29   dx2-y2 \
	OrthoOrbital Pt 30   s \
	OrthoOrbital Pt 30   p \
	OrthoOrbital Pt 30   px \
	OrthoOrbital Pt 30   py \
	OrthoOrbital Pt 30   pz \
	OrthoOrbital Pt 30   d \
	OrthoOrbital Pt 30   dxy \
	OrthoOrbital Pt 30   dyz \
	OrthoOrbital Pt 30   dz2 \
	OrthoOrbital Pt 30   dxz \
	OrthoOrbital Pt 30   dx2-y2 \
	OrthoOrbital Pt 31   s \
	OrthoOrbital Pt 31   p \
	OrthoOrbital Pt 31   px \
	OrthoOrbital Pt 31   py \
	OrthoOrbital Pt 31   pz \
	OrthoOrbital Pt 31   d \
	OrthoOrbital Pt 31   dxy \
	OrthoOrbital Pt 31   dyz \
	OrthoOrbital Pt 31   dz2 \
	OrthoOrbital Pt 31   dxz \
	OrthoOrbital Pt 31   dx2-y2 \
	OrthoOrbital Pt 32   s \
	OrthoOrbital Pt 32   p \
	OrthoOrbital Pt 32   px \
	OrthoOrbital Pt 32   py \
	OrthoOrbital Pt 32   pz \
	OrthoOrbital Pt 32   d \
	OrthoOrbital Pt 32   dxy \
	OrthoOrbital Pt 32   dyz \
	OrthoOrbital Pt 32   dz2 \
	OrthoOrbital Pt 32   dxz \
	OrthoOrbital Pt 32   dx2-y2 \
	OrthoOrbital Pt 33   s \
	OrthoOrbital Pt 33   p \
	OrthoOrbital Pt 33   px \
	OrthoOrbital Pt 33   py \
	OrthoOrbital Pt 33   pz \
	OrthoOrbital Pt 33   d \
	OrthoOrbital Pt 33   dxy \
	OrthoOrbital Pt 33   dyz \
	OrthoOrbital Pt 33   dz2 \
	OrthoOrbital Pt 33   dxz \
	OrthoOrbital Pt 33   dx2-y2 \
	OrthoOrbital Pt 34   s \
	OrthoOrbital Pt 34   p \
	OrthoOrbital Pt 34   px \
	OrthoOrbital Pt 34   py \
	OrthoOrbital Pt 34   pz \
	OrthoOrbital Pt 34   d \
	OrthoOrbital Pt 34   dxy \
	OrthoOrbital Pt 34   dyz \
	OrthoOrbital Pt 34   dz2 \
	OrthoOrbital Pt 34   dxz \
	OrthoOrbital Pt 34   dx2-y2
dump End ElecDensity KEdensity BandEigs EigStats RhoAtom DOS Kpoints
dump Ionic State IonicPositions Lattice EigStats Ecomponents
dump 
dump 
dump 
dump 
dump 
dump 
dump 
dump 
dump-name jdft.$VAR
elec-cutoff 20
elec-eigen-algo Davidson
elec-ex-corr gga-PBE
elec-initial-magnetization 0.000000 no
elec-n-bands 327
elec-smearing Fermi 0.001
electronic-minimize  \
	dirUpdateScheme      FletcherReeves \
	linminMethod         DirUpdateRecommended \
	nIterations          100 \
	history              15 \
	knormThreshold       0 \
	energyDiffThreshold  1e-07 \
	nEnergyDiff          2 \
	alphaTstart          1 \
	alphaTmin            1e-10 \
	updateTestStepSize   yes \
	alphaTreduceFactor   0.1 \
	alphaTincreaseFactor 3 \
	nAlphaAdjustMax      3 \
	wolfeEnergy          0.0001 \
	wolfeGradient        0.9 \
	fdTest               no
exchange-regularization WignerSeitzTruncated
fluid LinearPCM 298.000000 1.013250
fluid-anion F- 0.5 MeanFieldLJ \
	epsBulk 1 \
	pMol 0 \
	epsInf 1 \
	Pvap 0 \
	sigmaBulk 0 \
	Rvdw 2.24877 \
	Res 0 \
	tauNuc 343133
fluid-cation Na+ 0.5 MeanFieldLJ \
	epsBulk 1 \
	pMol 0 \
	epsInf 1 \
	Pvap 0 \
	sigmaBulk 0 \
	Rvdw 2.19208 \
	Res 0 \
	tauNuc 343133
fluid-ex-corr lda-TF lda-PZ
fluid-gummel-loop 10 1.000000e-05
fluid-minimize  \
	dirUpdateScheme      PolakRibiere \
	linminMethod         DirUpdateRecommended \
	nIterations          400 \
	history              15 \
	knormThreshold       1e-11 \
	energyDiffThreshold  0 \
	nEnergyDiff          2 \
	alphaTstart          1 \
	alphaTmin            1e-10 \
	updateTestStepSize   yes \
	alphaTreduceFactor   0.1 \
	alphaTincreaseFactor 3 \
	nAlphaAdjustMax      6 \
	wolfeEnergy          0.0001 \
	wolfeGradient        0.9 \
	fdTest               no
fluid-solvent H2O 55.338 ScalarEOS \
	epsBulk 78.4 \
	pMol 0.92466 \
	epsInf 1.77 \
	Pvap 1.06736e-10 \
	sigmaBulk 4.62e-05 \
	Rvdw 2.61727 \
	Res 1.42 \
	tauNuc 343133 \
	poleEl 15 7 1
forces-output-coords Positions
initial-state jdft.$VAR
ion Pt  -0.000550982388480  12.479926064755119   1.390029642364273 1
ion Pt   5.231469548816095  16.586110588932865   5.102732303373008 1
ion Pt   5.232582185389081  21.861518343482306  29.787995851493406 1
ion Pt   5.231298739150441   3.792145743078733   2.916409191412356 1
ion Pt   5.231550625770061   7.593370197719611   6.753041560105276 1
ion Pt   5.231681367510352  11.443356549213595  10.392273057301695 1
ion Pt   0.000130479437328  18.994012222918812  17.494373770416907 1
ion Pt   5.231512298200995  20.416214922060121   8.472155197907854 1
ion Pt   5.231832248253779   2.549376998985533  12.046007860855514 1
ion Pt   5.232074479154583   6.331336327120672  15.664815186967438 1
ion Pt   0.000204429793677  10.163853932571259  19.295656935843134 1
ion Pt   0.000543745015339  13.965194643933170  23.022479515224020 1
ion Pt   5.231771794740981  15.255773461548246  13.945143181023665 1
ion Pt   5.232414507748213   1.184077477018311  21.016861028483238 1
ion Pt   0.000506227062122   5.079694100501452  24.554450993026343 1
ion Pt   0.000673890935739   8.972890865408564  28.330969795569686 1
ion Pt   5.232576047388849  17.700547493901546  26.862918356112711 1
ion Pt   2.615518780137006  12.050712244336035   5.951988420047034 1
ion Pt   2.615582924681495  15.948307045068640   9.492225719072534 1
ion Pt   2.615386992069445  21.000882650514928   3.639863885537193 1
ion Pt   2.615498304148713   3.164673600669306   7.484637624913970 1
ion Pt   2.615800105056727   6.968835512726085  11.212976875975547 1
ion Pt   2.615882050133309  10.802035260494327  14.844461961035288 1
ion Pt   2.616480992743443  18.286556811722868  22.035838264673092 1
ion Pt   2.615783011492458  19.710970193060383  13.016256832800636 1
ion Pt   2.616180750376259   1.878167838561368  16.564677465000191 1
ion Pt   2.616321450318882   5.690048521146320  20.116217522317882 1
ion Pt   2.616526742029627   9.538287031809020  23.753965117774712 1
ion Pt   2.616626518113821  13.337565409865155  27.590561072339874 1
ion Pt   2.616132485072343  14.583414178024965  18.462745133372994 1
ion Pt   2.616530803587159   0.543862784744994  25.404328984052324 1
ion Pt   2.616588486921485   4.646902185174858  29.115250277970070 1
ion Pt   2.615374546944402   8.155130831224955   2.174551244641909 1
ion Pt   2.615435424194268  16.835445967706040   0.718839170994283 1
ion-species /projects/musgravc/apps/jdftx-1.6.0/build/pseudopotentials/GBRV_v1.5/$ID_pbe_v1.uspp
ion-species /projects/musgravc/apps/jdftx-1.6.0/build/pseudopotentials/GBRV_v1.5/$ID_pbe_v1.2.uspp
ion-species /projects/musgravc/apps/jdftx-1.6.0/build/pseudopotentials/GBRV_v1.5/$ID_pbe_v1.4.uspp
ion-species /projects/musgravc/apps/jdftx-1.6.0/build/pseudopotentials/GBRV_v1.5/$ID_pbe_v1.5.uspp
ion-width Ecut
ionic-minimize  \
	dirUpdateScheme      L-BFGS \
	linminMethod         DirUpdateRecommended \
	nIterations          100 \
	history              15 \
	knormThreshold       0.0001 \
	energyDiffThreshold  1e-06 \
	nEnergyDiff          2 \
	alphaTstart          1 \
	alphaTmin            1e-10 \
	updateTestStepSize   yes \
	alphaTreduceFactor   0.1 \
	alphaTincreaseFactor 3 \
	nAlphaAdjustMax      3 \
	wolfeEnergy          0.0001 \
	wolfeGradient        0.9 \
	fdTest               no
kpoint   0.000000000000   0.000000000000   0.000000000000  1.00000000000000
kpoint-folding 11 2 1 
latt-move-scale 0 0 0
latt-scale 1 1 1 
lattice  \
	   5.231996000000000   -0.000000000000000    0.000000000000000  \
	   0.000000000000000   21.572068000000002    0.000000000000000  \
	   0.000000000000000    0.000000000000000   61.015023999999997 
lattice-minimize  \
	dirUpdateScheme      L-BFGS \
	linminMethod         DirUpdateRecommended \
	nIterations          0 \
	history              15 \
	knormThreshold       0 \
	energyDiffThreshold  1e-06 \
	nEnergyDiff          2 \
	alphaTstart          1 \
	alphaTmin            1e-10 \
	updateTestStepSize   yes \
	alphaTreduceFactor   0.1 \
	alphaTincreaseFactor 3 \
	nAlphaAdjustMax      3 \
	wolfeEnergy          0.0001 \
	wolfeGradient        0.9 \
	fdTest               no
lcao-params 30 1e-06 0.001
pcm-variant CANDLE
spintype z-spin
subspace-rotation-factor 1 yes
symmetries none
symmetry-threshold 0.0001
van-der-waals D3


Applied RMS atom displacement 0 bohrs to make symmetries exact.

---------- Initializing the Grid ----------
R = 
[        5.232            0            0  ]
[            0      21.5721            0  ]
[            0            0       61.015  ]
unit cell volume = 6886.46
G =
[    1.20092          0         -0  ]
[          0   0.291265          0  ]
[          0         -0   0.102978  ]
Minimum fftbox size, Smin = [  24  88  248  ]
Chosen fftbox size, S = [  24  90  250  ]

---------- Exchange Correlation functional ----------
Initalized PBE GGA exchange.
Initalized PBE GGA correlation.

---------- Setting up pseudopotentials ----------
Width of ionic core gaussian charges (only for fluid interactions / plotting) set to 0.397384

Reading pseudopotential file '/projects/musgravc/apps/jdftx-1.6.0/build/pseudopotentials/GBRV_v1.5/pt_pbe_v1.4.uspp':
  Title: Pt.  Created by USPP 7.3.6 on 31-3-15
  Reference state energy: -105.002503.  16 valence electrons in orbitals:
    |510>  occupation: 6  eigenvalue: -2.158104
    |520>  occupation: 9.5  eigenvalue: -0.335376
    |600>  occupation: 0  eigenvalue: -0.319640
    |610>  occupation: 0  eigenvalue: -0.122947
  lMax: 2  lLocal: 3  QijEcut: 5.5
  6 projectors sampled on a log grid with 745 points:
    l: 0  eig: -0.319640  rCut: 2.45
    l: 0  eig: 1.500000  rCut: 2.45
    l: 1  eig: -2.158104  rCut: 1.6
    l: 1  eig: -0.122947  rCut: 1.6
    l: 2  eig: -0.500000  rCut: 1.6
    l: 2  eig: -0.335375  rCut: 1.6
  Partial core density with radius 1.1
  Transforming core density to a uniform radial grid of dG=0.02 with 1173 points.
  Transforming local potential to a uniform radial grid of dG=0.02 with 1173 points.
  Transforming nonlocal projectors to a uniform radial grid of dG=0.02 with 432 points.
  Transforming density augmentations to a uniform radial grid of dG=0.02 with 1173 points.
  Transforming atomic orbitals to a uniform radial grid of dG=0.02 with 432 points.
  Core radius for overlap checks: 2.45 bohrs.

Initialized 1 species with 34 total atoms.

Folded 1 k-points by 11x2x1 to 22 k-points.

---------- Setting up k-points, bands, fillings ----------
No reducable k-points. 
Computing the number of bands and number of electrons
Reading initial fillings from file jdft.fillings.
nElectrons: 544.000000   nBands: 327   nStates: 44

----- Setting up reduced wavefunction bases (one per k-point) -----
average nbasis = 29423.773 , ideal nbasis = 29419.478

----- Initializing Supercell corresponding to k-point mesh -----
Lattice vector linear combinations in supercell:
[  11   0   0  ]
[   0   2   0  ]
[   0   0   1  ]
Supercell lattice vectors:
[  57.552  0  0  ]
[  0  43.1441  0  ]
[  0  0  61.015  ]

Initializing DFT-D3 calculator:
	Parameters set for gga-PBE functional
	s6:  1.000  s_r6:  1.217
	s8:  0.722  s_r8:  1.000
	Per-atom parameters loaded for:
	Pt:  sqrtQ[a0]:  5.888  Rcov[a0]:  2.116  CN: [ 0.00 1.92 6.67 ]

Initializing DFT-D2 calculator for fluid / solvation:
	Pt:  C6:  815.23 Eh-a0^6  R0: 3.326 a0 (WARNING: beyond Grimme's data set)

---------- Setting up ewald sum ----------
Optimum gaussian width for ewald sums = 4.216922 bohr.
Real space sum over 665 unit cells with max indices [  9  3  2  ]
Reciprocal space sum over 6251 terms with max indices [  3  9  23  ]

Computing DFT-D3 correction:
# coordination-number Pt 7.100 9.385 5.899 7.131 9.389 9.531 9.572 9.255 9.546 9.572 9.552 9.389 9.573 9.572 9.331 7.137 7.534 9.327 9.570 7.524 9.382 9.547 9.571 9.264 9.570 9.572 9.535 9.395 7.131 9.550 9.390 7.101 7.136 5.901
# diagonal-C6 Pt 336.87 336.87 336.87 336.87 336.87 336.87 336.87 336.87 336.87 336.87 336.87 336.87 336.87 336.87 336.87 336.87 336.87 336.87 336.87 336.87 336.87 336.87 336.87 336.87 336.87 336.87 336.87 336.87 336.87 336.87 336.87 336.87 336.87 336.87
EvdW_6 =   -0.316129
EvdW_8 =   -0.498956

---------- Allocating electronic variables ----------
Initializing wave functions:  reading from 'jdft.wfns'
----- createFluidSolver() ----- (Fluid-side solver setup)
   Initializing fluid molecule 'H2O'
     Initializing site 'O'
       Electron density: proportional to exp(-r/0.36935)*erfc((r-0.51523)/0.36823) with norm 6.826
       Charge density: gaussian nuclear width 0.478731 with net site charge 0.826
       Polarizability: cuspless exponential with width 0.32 and norm 3.73
       Hard sphere radius: 2.57003 bohrs
       Positions in reference frame:
         [ +0.000000 +0.000000 +0.000000 ]
     Initializing site 'H'
       Electron density: proportional to exp(-r/0.34641)*erfc((r-0)/0.390882) with norm 0.587
       Charge density: gaussian nuclear width 0.377945 with net site charge -0.413
       Polarizability: cuspless exponential with width 0.39 and norm 3.3
       Positions in reference frame:
         [ +0.000000 -1.441945 +1.122523 ]
         [ +0.000000 +1.441945 +1.122523 ]
     Net charge: 0   dipole magnitude: 0.927204
     Initializing spherical shell mfKernel with radius 2.61727 Bohr
     deltaS corrections:
       site 'O': -7.54299
       site 'H': -6.83917
   Initializing fluid molecule 'Na+'
     Initializing site 'Na'
       Electron density: proportional to exp(-r/0.19682)*erfc((r-0.71491)/0.41314) with norm 8.1383
       Charge density: gaussian nuclear width 0.365347 with net site charge -1
       Hard sphere radius: 1.86327 bohrs
       Positions in reference frame:
         [ +0.000000 +0.000000 +0.000000 ]
     Net charge: -1   dipole magnitude: 0
     Initializing gaussian mfKernel with width: 1.55004 Bohr
     deltaS corrections:
       site 'Na': -22.3555
   Initializing fluid molecule 'F-'
     Initializing site 'F'
       Electron density: proportional to exp(-r/0.38886)*erfc((r-0)/0.438782) with norm 8
       Charge density: gaussian nuclear width 0.374796 with net site charge 1
       Hard sphere radius: 2.39995 bohrs
       Positions in reference frame:
         [ +0.000000 +0.000000 +0.000000 ]
     Net charge: 1   dipole magnitude: 0
     Initializing gaussian mfKernel with width: 1.59012 Bohr
     deltaS corrections:
       site 'F': -9.04335

Correction to mu due to finite nuclear width = -0.0783795
   Cavity determined by nc: 0.00142 and sigma: 0.707107
   Nonlocal vdW cavity from gaussian model electron density with norm = 8 and sigma = 0.993594 bohr
   Charge asymmetry in cavity with sensitivity pCavity = 36.5 e-bohr/Eh
   Electrostatic cavity expanded by eta = 1.46 bohrs
   Weighted density cavitation model constrained by Nbulk: 0.0049383 bohr^-3, Pvap: 3.14029 kPa, Rvdw: 2.61727 bohr and sigmaBulk: 4.62e-05 Eh/bohr^2 at T: 298 K.
   Weighted density dispersion model using vdW pair potentials with single solvent site with sqrtC6eff: 0.77 SI.
Reading fluid state from 'jdft.fluidState'


---- Citations for features of the code used in this run ----

   Software package:
      R. Sundararaman, K. Letchworth-Weaver, K.A. Schwarz, D. Gunceler, Y. Ozhabes and T.A. Arias, 'JDFTx: software for joint density-functional theory', SoftwareX 6, 278 (2017)

   gga-PBE exchange-correlation functional:
      J.P. Perdew, K. Burke and M. Ernzerhof, Phys. Rev. Lett. 77, 3865 (1996)

   Pseudopotentials:
      KF Garrity, JW Bennett, KM Rabe and D Vanderbilt, Comput. Mater. Sci. 81, 446 (2014)

   DFT-D3 dispersion correction:
      S. Grimme, J. Antony, S. Ehrlich and H. Krieg, J. Chem. Phys. 132, 154104 (2010)

   DFT-D2 dispersion correction:
      S. Grimme, J. Comput. Chem. 27, 1787 (2006)

   Charge-asymmetric nonlocally-determined local-electric (CANDLE) solvation model:
      R. Sundararaman and W.A. Goddard III, J. Chem. Phys. 142, 064107 (2015)

   Total energy minimization with Auxiliary Hamiltonian:
      C. Freysoldt, S. Boeck, and J. Neugebauer, Phys. Rev. B 79, 241103(R) (2009)

   Linear-tetrahedron sampling for density of states:
      G. Lehmann and M. Taut, Phys. status solidi (b) 54, 469 (1972)

This list may not be complete. Please suggest additional citations or
report any other bugs at https://github.com/shankar1729/jdftx/issues

Initialization completed successfully at t[s]:     21.46


Computing DFT-D3 correction:
# coordination-number Pt 7.100 9.385 5.899 7.131 9.389 9.531 9.572 9.255 9.546 9.572 9.552 9.389 9.573 9.572 9.331 7.137 7.534 9.327 9.570 7.524 9.382 9.547 9.571 9.264 9.570 9.572 9.535 9.395 7.131 9.550 9.390 7.101 7.136 5.901
# diagonal-C6 Pt 336.87 336.87 336.87 336.87 336.87 336.87 336.87 336.87 336.87 336.87 336.87 336.87 336.87 336.87 336.87 336.87 336.87 336.87 336.87 336.87 336.87 336.87 336.87 336.87 336.87 336.87 336.87 336.87 336.87 336.87 336.87 336.87 336.87 336.87
EvdW_6 =   -0.316129
EvdW_8 =   -0.498956

-------- Electronic minimization -----------
	Linear fluid (dielectric constant: 78.4, screening length: 8.12261 Bohr) occupying 0.365458 of unit cell:	Completed after 17 iterations at t[s]:     36.19
	FillingsUpdate:  mu: -0.195063802  nElectrons: 544.000000  magneticMoment: [ Abs: 0.00000  Tot: -0.00000 ]
ElecMinimize: Iter:   0  F: -3025.087483884985431  |grad|_K:  1.966e-06  alpha:  1.000e+00
	Linear fluid (dielectric constant: 78.4, screening length: 8.12261 Bohr) occupying 0.379746 of unit cell:	Completed after 33 iterations at t[s]:    127.24
	Linear fluid (dielectric constant: 78.4, screening length: 8.12261 Bohr) occupying 0.365455 of unit cell:	Completed after 29 iterations at t[s]:    158.53
	FillingsUpdate:  mu: -0.196207400  nElectrons: 544.000000  magneticMoment: [ Abs: 0.00000  Tot: -0.00000 ]
	SubspaceRotationAdjust: set factor to 0.458
ElecMinimize: Iter:   1  F: -3025.087494169683396  |grad|_K:  4.583e-07  alpha:  6.714e-03  linmin:  1.896e-02  t[s]:    200.29
	Linear fluid (dielectric constant: 78.4, screening length: 8.12261 Bohr) occupying 0.365455 of unit cell:	Completed after 10 iterations at t[s]:    239.18
	Linear fluid (dielectric constant: 78.4, screening length: 8.12261 Bohr) occupying 0.365455 of unit cell:	Completed after 6 iterations at t[s]:    267.97
	FillingsUpdate:  mu: -0.196491030  nElectrons: 544.000000  magneticMoment: [ Abs: 0.00000  Tot: -0.00000 ]
	SubspaceRotationAdjust: set factor to 0.266
ElecMinimize: Iter:   2  F: -3025.087494945043090  |grad|_K:  1.776e-07  alpha:  9.269e-03  linmin: -8.021e-04  t[s]:    309.45
	Linear fluid (dielectric constant: 78.4, screening length: 8.12261 Bohr) occupying 0.365455 of unit cell:	Completed after 2 iterations at t[s]:    347.04
ElecMinimize: 	Predicted alpha/alphaT>3.000000, increasing alphaT to 2.780691e-02.
	Linear fluid (dielectric constant: 78.4, screening length: 8.12261 Bohr) occupying 0.365455 of unit cell:	Completed after 4 iterations at t[s]:    374.88
ElecMinimize: 	Predicted alpha/alphaT>3.000000, increasing alphaT to 8.342073e-02.
	Linear fluid (dielectric constant: 78.4, screening length: 8.12261 Bohr) occupying 0.365455 of unit cell:	Completed after 10 iterations at t[s]:    403.54
	Linear fluid (dielectric constant: 78.4, screening length: 8.12261 Bohr) occupying 0.365455 of unit cell:	Completed after 2 iterations at t[s]:    430.99
	FillingsUpdate:  mu: -0.196222699  nElectrons: 544.000000  magneticMoment: [ Abs: 0.00000  Tot: -0.00000 ]
	SubspaceRotationAdjust: set factor to 0.154
ElecMinimize: Iter:   3  F: -3025.087496185854434  |grad|_K:  7.065e-08  alpha:  9.165e-02  linmin: -5.614e-04  t[s]:    472.70
	Linear fluid (dielectric constant: 78.4, screening length: 8.12261 Bohr) occupying 0.365455 of unit cell:	Completed after 11 iterations at t[s]:    511.46
	Linear fluid (dielectric constant: 78.4, screening length: 8.12261 Bohr) occupying 0.365455 of unit cell:	Completed after 5 iterations at t[s]:    539.49
	FillingsUpdate:  mu: -0.196386484  nElectrons: 544.000000  magneticMoment: [ Abs: 0.00000  Tot: -0.00000 ]
	SubspaceRotationAdjust: set factor to 0.0904
	SubspaceRotationAdjust: resetting CG because factor has changed by 0.0903969
	Linear fluid (dielectric constant: 78.4, screening length: 8.12261 Bohr) occupying 0.365455 of unit cell:	Completed after 0 iterations at t[s]:    592.74
ElecMinimize: 	State modified externally: resetting search direction.
ElecMinimize: Iter:   4  F: -3025.087496311858104  |grad|_K:  4.028e-08  alpha:  5.737e-02
	Linear fluid (dielectric constant: 78.4, screening length: 8.12261 Bohr) occupying 0.365455 of unit cell:	Completed after 6 iterations at t[s]:    672.12
	Linear fluid (dielectric constant: 78.4, screening length: 8.12261 Bohr) occupying 0.365455 of unit cell:	Completed after 2 iterations at t[s]:    699.70
	FillingsUpdate:  mu: -0.196342672  nElectrons: 544.000000  magneticMoment: [ Abs: 0.00000  Tot: -0.00000 ]
	SubspaceRotationAdjust: set factor to 0.0735
ElecMinimize: Iter:   5  F: -3025.087496368129905  |grad|_K:  2.018e-08  alpha:  7.890e-02  linmin: -2.316e-02  t[s]:    741.30
	Linear fluid (dielectric constant: 78.4, screening length: 8.12261 Bohr) occupying 0.365455 of unit cell:	Completed after 2 iterations at t[s]:    778.87
	Linear fluid (dielectric constant: 78.4, screening length: 8.12261 Bohr) occupying 0.365455 of unit cell:	Completed after 2 iterations at t[s]:    806.60
	FillingsUpdate:  mu: -0.196330429  nElectrons: 544.000000  magneticMoment: [ Abs: 0.00000  Tot: -0.00000 ]
	SubspaceRotationAdjust: set factor to 0.0571
ElecMinimize: Iter:   6  F: -3025.087496409720188  |grad|_K:  1.395e-08  alpha:  2.079e-01  linmin: -4.765e-03  t[s]:    848.73
ElecMinimize: Converged (|Delta F|<1.000000e-07 for 2 iters).
Setting wave functions to eigenvectors of Hamiltonian
Converging empty states (this may take a while): |deigs|: 3.413e-09

Computing DFT-D3 correction:
# coordination-number Pt 7.100 9.385 5.899 7.131 9.389 9.531 9.572 9.255 9.546 9.572 9.552 9.389 9.573 9.572 9.331 7.137 7.534 9.327 9.570 7.524 9.382 9.547 9.571 9.264 9.570 9.572 9.535 9.395 7.131 9.550 9.390 7.101 7.136 5.901
# diagonal-C6 Pt 336.87 336.87 336.87 336.87 336.87 336.87 336.87 336.87 336.87 336.87 336.87 336.87 336.87 336.87 336.87 336.87 336.87 336.87 336.87 336.87 336.87 336.87 336.87 336.87 336.87 336.87 336.87 336.87 336.87 336.87 336.87 336.87 336.87 336.87
EvdW_6 =   -0.316129
EvdW_8 =   -0.498956

# Ionic positions in cartesian coordinates:
ion Pt  -0.000550982388480  12.479926064755119   1.390029642364273 1
ion Pt   5.231469548816095  16.586110588932865   5.102732303373008 1
ion Pt   5.232582185389081  21.861518343482306  29.787995851493406 1
ion Pt   5.231298739150441   3.792145743078733   2.916409191412356 1
ion Pt   5.231550625770061   7.593370197719611   6.753041560105276 1
ion Pt   5.231681367510352  11.443356549213595  10.392273057301695 1
ion Pt   0.000130479437328  18.994012222918812  17.494373770416907 1
ion Pt   5.231512298200995  20.416214922060121   8.472155197907854 1
ion Pt   5.231832248253779   2.549376998985533  12.046007860855514 1
ion Pt   5.232074479154583   6.331336327120672  15.664815186967438 1
ion Pt   0.000204429793677  10.163853932571259  19.295656935843134 1
ion Pt   0.000543745015339  13.965194643933170  23.022479515224020 1
ion Pt   5.231771794740981  15.255773461548246  13.945143181023665 1
ion Pt   5.232414507748213   1.184077477018311  21.016861028483238 1
ion Pt   0.000506227062122   5.079694100501452  24.554450993026343 1
ion Pt   0.000673890935739   8.972890865408564  28.330969795569686 1
ion Pt   5.232576047388849  17.700547493901546  26.862918356112711 1
ion Pt   2.615518780137006  12.050712244336035   5.951988420047034 1
ion Pt   2.615582924681495  15.948307045068640   9.492225719072534 1
ion Pt   2.615386992069445  21.000882650514928   3.639863885537193 1
ion Pt   2.615498304148713   3.164673600669306   7.484637624913970 1
ion Pt   2.615800105056727   6.968835512726085  11.212976875975547 1
ion Pt   2.615882050133309  10.802035260494327  14.844461961035288 1
ion Pt   2.616480992743443  18.286556811722868  22.035838264673092 1
ion Pt   2.615783011492458  19.710970193060383  13.016256832800636 1
ion Pt   2.616180750376259   1.878167838561368  16.564677465000191 1
ion Pt   2.616321450318882   5.690048521146320  20.116217522317882 1
ion Pt   2.616526742029627   9.538287031809020  23.753965117774712 1
ion Pt   2.616626518113821  13.337565409865155  27.590561072339874 1
ion Pt   2.616132485072343  14.583414178024965  18.462745133372994 1
ion Pt   2.616530803587159   0.543862784744994  25.404328984052324 1
ion Pt   2.616588486921485   4.646902185174858  29.115250277970070 1
ion Pt   2.615374546944402   8.155130831224955   2.174551244641909 1
ion Pt   2.615435424194268  16.835445967706040   0.718839170994283 1

# Forces in Cartesian coordinates:
force Pt  -0.000002594046299  -0.000158581430841   0.000141724527977 1
force Pt  -0.000000715544384  -0.000201419092364  -0.000109310857710 1
force Pt   0.000002045143230   0.000010213764386  -0.000149150744019 1
force Pt  -0.000001254027738  -0.000335828830305  -0.000166216187847 1
force Pt  -0.000001639275826  -0.000109687656354   0.000074458863425 1
force Pt  -0.000000870231656  -0.000039986598849   0.000154642768697 1
force Pt   0.000001158712432   0.000074127549062  -0.000097727638242 1
force Pt  -0.000002155466555   0.000022938717862   0.000063449732424 1
force Pt   0.000000660303396  -0.000214605618527   0.000122833368133 1
force Pt   0.000000351239320  -0.000022787482278   0.000062446766599 1
force Pt  -0.000000268900690   0.000191399846550  -0.000232279811198 1
force Pt   0.000000762745856   0.000199295938503  -0.000168366325916 1
force Pt  -0.000000758660903  -0.000068821442290  -0.000233732180695 1
force Pt   0.000000891691892  -0.000096842902706  -0.000328564704894 1
force Pt   0.000001395318636   0.000094157147708  -0.000005969768364 1
force Pt   0.000000941015197   0.000356253658850   0.000151378988897 1
force Pt  -0.000000378865616   0.000111651418926   0.000093136634370 1
force Pt  -0.000001025132309  -0.000113783030000  -0.000017740016852 1
force Pt  -0.000001277524983   0.000114371750798   0.000116788765876 1
force Pt  -0.000003418390308  -0.000148582653253   0.000064750027531 1
force Pt  -0.000000319115776  -0.000167440812504   0.000143609614837 1
force Pt  -0.000000177231400  -0.000247842742190   0.000087390052358 1
force Pt   0.000000143281101  -0.000051268870306  -0.000178039120443 1
force Pt   0.000000626768803  -0.000051056899435  -0.000163559043300 1
force Pt  -0.000000559006658  -0.000022458637095  -0.000011970718049 1
force Pt  -0.000000042147085   0.000074838648019   0.000156315845946 1
force Pt   0.000000780066765   0.000007852652253  -0.000307931661864 1
force Pt   0.000001375123247   0.000083490334883  -0.000071892790191 1
force Pt   0.000003793638729   0.000343294663533   0.000242058890393 1
force Pt  -0.000000443208514   0.000240323404288  -0.000195047459304 1
force Pt   0.000001472503478   0.000154120482478   0.000121379848237 1
force Pt   0.000002484324466   0.000136972864183   0.000023859678909 1
force Pt  -0.000003187132132  -0.000314121800561  -0.000006924416872 1
force Pt  -0.000001494568125  -0.000036969451236   0.000254318568358 1

# Energy components:
   A_diel =       -0.0069413680166089
   Eewald =    18280.1650275012179918
       EH =    21113.9102500148364925
     Eloc =   -42943.6512447342829546
      Enl =      -35.8738249019496394
     EvdW =       -0.8150850043584121
      Exc =     -967.3604244215442804
 Exc_core =      557.3069491994240252
       KE =      971.2436895218759219
  MuShift =        0.0000000000024683
-------------------------------------
     Etot =    -3025.0816041927996594
       TS =        0.0058922169205955
-------------------------------------
        F =    -3025.0874964097201882


Dumping 'jdft.fillings' ... done
Dumping 'jdft.wfns' ... done
Dumping 'jdft.fluidState' ... done
Dumping 'jdft.ionpos' ... done
Dumping 'jdft.lattice' ... done
Dumping 'jdft.eigenvals' ... done
Dumping 'jdft.eigStats' ... 
	eMin: -2.147275 at state 23 ( [ +0.000000 +0.500000 +0.000000 ] spin -1 )
	HOMO: -0.196649 at state 4 ( [ +0.181818 +0.000000 +0.000000 ] spin 1 )
	mu  : -0.196330
	LUMO: -0.196304 at state 25 ( [ +0.090909 +0.500000 +0.000000 ] spin -1 )
	eMax: +0.115182 at state 8 ( [ +0.363636 +0.000000 +0.000000 ] spin 1 )
	HOMO-LUMO gap: +0.000345
	Optical gap  : +0.000640 at state 12 ( [ -0.454545 +0.000000 +0.000000 ] spin 1 )
Dumping 'jdft.Ecomponents' ... done
IonicMinimize: Iter:   0  F: -3025.087496409720188  |grad|_K:  1.321e-04  t[s]:    960.82

#--- Lowdin population analysis ---
# oxidation-state Pt -0.003 -0.010 +0.051 +0.016 +0.015 +0.013 +0.015 +0.016 +0.015 +0.007 +0.012 +0.010 +0.009 +0.012 +0.009 +0.001 -0.014 +0.010 +0.013 -0.013 +0.011 +0.012 +0.007 +0.015 +0.015 +0.009 +0.012 +0.014 +0.015 +0.015 -0.011 -0.004 +0.002 +0.053
# magnetic-moments Pt -0.000 -0.000 -0.000 -0.000 -0.000 -0.000 -0.000 -0.000 -0.000 -0.000 -0.000 -0.000 -0.000 -0.000 -0.000 -0.000 -0.000 -0.000 -0.000 -0.000 -0.000 -0.000 -0.000 -0.000 -0.000 -0.000 -0.000 -0.000 -0.000 -0.000 -0.000 -0.000 -0.000 -0.000


Computing DFT-D3 correction:
# coordination-number Pt 7.100 9.385 5.899 7.131 9.389 9.531 9.573 9.256 9.546 9.572 9.552 9.389 9.573 9.572 9.331 7.136 7.534 9.327 9.570 7.524 9.382 9.547 9.571 9.264 9.570 9.573 9.535 9.394 7.130 9.550 9.389 7.101 7.136 5.901
# diagonal-C6 Pt 336.87 336.87 336.87 336.87 336.87 336.87 336.87 336.87 336.87 336.87 336.87 336.87 336.87 336.87 336.87 336.87 336.87 336.87 336.87 336.87 336.87 336.87 336.87 336.87 336.87 336.87 336.87 336.87 336.87 336.87 336.87 336.87 336.87 336.87
EvdW_6 =   -0.316129
EvdW_8 =   -0.498958

-------- Electronic minimization -----------
	Linear fluid (dielectric constant: 78.4, screening length: 8.12261 Bohr) occupying 0.365451 of unit cell:	Completed after 19 iterations at t[s]:   1006.88
	FillingsUpdate:  mu: -0.200689597  nElectrons: 544.000000  magneticMoment: [ Abs: 0.00000  Tot: -0.00000 ]
ElecMinimize: Iter:   0  F: -3025.087419134632455  |grad|_K:  1.296e-06  alpha:  1.000e+00
	Linear fluid (dielectric constant: 78.4, screening length: 8.12261 Bohr) occupying 0.365612 of unit cell:	Completed after 25 iterations at t[s]:   1095.55
	Linear fluid (dielectric constant: 78.4, screening length: 8.12261 Bohr) occupying 0.365455 of unit cell:	Completed after 25 iterations at t[s]:   1126.59
	FillingsUpdate:  mu: -0.196767943  nElectrons: 544.000000  magneticMoment: [ Abs: 0.00000  Tot: -0.00000 ]
	SubspaceRotationAdjust: set factor to 0.0405
ElecMinimize: Iter:   1  F: -3025.087493825070851  |grad|_K:  1.934e-07  alpha:  1.043e-01  linmin: -8.299e-04  t[s]:   1168.44
	Linear fluid (dielectric constant: 78.4, screening length: 8.12261 Bohr) occupying 0.365456 of unit cell:	Completed after 13 iterations at t[s]:   1207.58
	Linear fluid (dielectric constant: 78.4, screening length: 8.12261 Bohr) occupying 0.365456 of unit cell:	Completed after 6 iterations at t[s]:   1235.87
	FillingsUpdate:  mu: -0.196330322  nElectrons: 544.000000  magneticMoment: [ Abs: 0.00000  Tot: -0.00000 ]
	SubspaceRotationAdjust: set factor to 0.0247
ElecMinimize: Iter:   2  F: -3025.087495763919833  |grad|_K:  8.473e-08  alpha:  1.216e-01  linmin: -2.558e-04  t[s]:   1278.46
	Linear fluid (dielectric constant: 78.4, screening length: 8.12261 Bohr) occupying 0.365456 of unit cell:	Completed after 3 iterations at t[s]:   1316.34
	Linear fluid (dielectric constant: 78.4, screening length: 8.12261 Bohr) occupying 0.365456 of unit cell:	Completed after 7 iterations at t[s]:   1344.98
	FillingsUpdate:  mu: -0.196416048  nElectrons: 544.000000  magneticMoment: [ Abs: 0.00000  Tot: -0.00000 ]
	SubspaceRotationAdjust: set factor to 0.0392
ElecMinimize: Iter:   3  F: -3025.087496831321005  |grad|_K:  4.574e-08  alpha:  3.524e-01  linmin:  2.796e-03  t[s]:   1386.67
	Linear fluid (dielectric constant: 78.4, screening length: 8.12261 Bohr) occupying 0.365456 of unit cell:	Completed after 9 iterations at t[s]:   1425.53
	Linear fluid (dielectric constant: 78.4, screening length: 8.12261 Bohr) occupying 0.365456 of unit cell:	Completed after 2 iterations at t[s]:   1453.30
	FillingsUpdate:  mu: -0.196411315  nElectrons: 544.000000  magneticMoment: [ Abs: 0.00000  Tot: -0.00000 ]
	SubspaceRotationAdjust: set factor to 0.0327
ElecMinimize: Iter:   4  F: -3025.087497102211728  |grad|_K:  3.705e-08  alpha:  3.098e-01  linmin: -4.244e-05  t[s]:   1494.98
	Linear fluid (dielectric constant: 78.4, screening length: 8.12261 Bohr) occupying 0.365456 of unit cell:	Completed after 8 iterations at t[s]:   1533.52
	Linear fluid (dielectric constant: 78.4, screening length: 8.12261 Bohr) occupying 0.365456 of unit cell:	Completed after 2 iterations at t[s]:   1561.33
	FillingsUpdate:  mu: -0.196343327  nElectrons: 544.000000  magneticMoment: [ Abs: 0.00000  Tot: -0.00000 ]
	SubspaceRotationAdjust: set factor to 0.0247
ElecMinimize: Iter:   5  F: -3025.087497257146424  |grad|_K:  2.392e-08  alpha:  2.663e-01  linmin:  5.326e-04  t[s]:   1602.75
	Linear fluid (dielectric constant: 78.4, screening length: 8.12261 Bohr) occupying 0.365456 of unit cell:	Completed after 2 iterations at t[s]:   1640.38
	Linear fluid (dielectric constant: 78.4, screening length: 8.12261 Bohr) occupying 0.365457 of unit cell:	Completed after 2 iterations at t[s]:   1668.01
	FillingsUpdate:  mu: -0.196370486  nElectrons: 544.000000  magneticMoment: [ Abs: 0.00000  Tot: -0.00000 ]
	SubspaceRotationAdjust: set factor to 0.0313
ElecMinimize: Iter:   6  F: -3025.087497377875025  |grad|_K:  1.624e-08  alpha:  4.899e-01  linmin: -4.566e-03  t[s]:   1709.87
	Linear fluid (dielectric constant: 78.4, screening length: 8.12261 Bohr) occupying 0.365457 of unit cell:	Completed after 3 iterations at t[s]:   1747.62
	Linear fluid (dielectric constant: 78.4, screening length: 8.12261 Bohr) occupying 0.365457 of unit cell:	Completed after 0 iterations at t[s]:   1775.10
	FillingsUpdate:  mu: -0.196371345  nElectrons: 544.000000  magneticMoment: [ Abs: 0.00000  Tot: -0.00000 ]
	SubspaceRotationAdjust: set factor to 0.0351
ElecMinimize: Iter:   7  F: -3025.087497444819746  |grad|_K:  1.406e-08  alpha:  5.736e-01  linmin: -3.758e-03  t[s]:   1816.71
	Linear fluid (dielectric constant: 78.4, screening length: 8.12261 Bohr) occupying 0.365457 of unit cell:	Completed after 4 iterations at t[s]:   1855.87
	Linear fluid (dielectric constant: 78.4, screening length: 8.12261 Bohr) occupying 0.365457 of unit cell:	Completed after 0 iterations at t[s]:   1883.23
	FillingsUpdate:  mu: -0.196331534  nElectrons: 544.000000  magneticMoment: [ Abs: 0.00000  Tot: -0.00000 ]
	SubspaceRotationAdjust: set factor to 0.0323
ElecMinimize: Iter:   8  F: -3025.087497488308145  |grad|_K:  1.581e-08  alpha:  4.942e-01  linmin:  4.779e-03  t[s]:   1925.00
ElecMinimize: Converged (|Delta F|<1.000000e-07 for 2 iters).
Setting wave functions to eigenvectors of Hamiltonian
Converging empty states (this may take a while): |deigs|: 4.949e-09

Computing DFT-D3 correction:
# coordination-number Pt 7.100 9.385 5.899 7.131 9.389 9.531 9.573 9.256 9.546 9.572 9.552 9.389 9.573 9.572 9.331 7.136 7.534 9.327 9.570 7.524 9.382 9.547 9.571 9.264 9.570 9.573 9.535 9.394 7.130 9.550 9.389 7.101 7.136 5.901
# diagonal-C6 Pt 336.87 336.87 336.87 336.87 336.87 336.87 336.87 336.87 336.87 336.87 336.87 336.87 336.87 336.87 336.87 336.87 336.87 336.87 336.87 336.87 336.87 336.87 336.87 336.87 336.87 336.87 336.87 336.87 336.87 336.87 336.87 336.87 336.87 336.87
EvdW_6 =   -0.316129
EvdW_8 =   -0.498958

# Ionic positions in cartesian coordinates:
ion Pt  -0.000553467711238  12.479772976945126   1.390182245730568 1
ion Pt   5.231468941995253  16.585914663461349   5.102633871353615 1
ion Pt   5.232584339255852  21.861534050867544  29.787857579587705 1
ion Pt   5.231297593846244   3.791815407869275   2.916253854062826 1
ion Pt   5.231549095217777   7.593266003684104   6.753126897807018 1
ion Pt   5.231680606002238  11.443322056235594  10.392438578908710 1
ion Pt   0.000131746873302  18.994091844088722  17.494286921616983 1
ion Pt   5.231510251457982  20.416243354398830   8.472229526478596 1
ion Pt   5.231833017280716   2.549167886987853  12.046141573061965 1
ion Pt   5.232074939117445   6.331319033259241  15.664888512572352 1
ion Pt   0.000204269616529  10.164050826038658  19.295435534870254 1
ion Pt   0.000544616484736  13.965399433492520  23.022322027736426 1
ion Pt   5.231771144803620  15.255710133726804  13.944920327681286 1
ion Pt   5.232415508163646   1.183986127736453  21.016543342616657 1
ion Pt   0.000507731104300   5.079793751270007  24.554455902096301 1
ion Pt   0.000674940674478   8.973252612688261  28.331132053396900 1
ion Pt   5.232575777246774  17.700664638941319  26.863022371585402 1
ion Pt   2.615517863728238  12.050603954926883   5.951981558868499 1
ion Pt   2.615581755880053  15.948426910440286   9.492353386676728 1
ion Pt   2.615383682402678  21.000739561482522   3.639939514403042 1
ion Pt   2.615498093756478   3.164511653477649   7.484792113367124 1
ion Pt   2.615800036548869   6.968593163604743  11.213075144866224 1
ion Pt   2.615882302137951  10.801989485244867  14.844294800753161 1
ion Pt   2.616481728235788  18.286511248444281  22.035685584468112 1
ion Pt   2.615782561209341  19.710953228044136  13.016255740920904 1
ion Pt   2.616180816952715   1.878248170830235  16.564844659684454 1
ion Pt   2.616322339109189   5.690061867419421  20.115920469494338 1
ion Pt   2.616528225876415   9.538376015764751  23.753904103822840 1
ion Pt   2.616630420476091  13.337914198149537  27.590814010068588 1
ion Pt   2.616132150587371  14.583659995050100  18.462560964752004 1
ion Pt   2.616532384814178   0.544022398848319  25.404461242738876 1
ion Pt   2.616591079969492   4.647044651659887  29.115285016487295 1
ion Pt   2.615371468535812   8.154822203045242   2.174555199063354 1
ion Pt   2.615434038349685  16.835414491875650   0.719104368400959 1

# Forces in Cartesian coordinates:
force Pt  -0.000002569444961  -0.000193477292666   0.000025563881425 1
force Pt  -0.000000721432017  -0.000172919101519  -0.000119349282737 1
force Pt   0.000002088887020   0.000038552061126  -0.000274569840306 1
force Pt  -0.000001308965981  -0.000321417816119  -0.000247786313098 1
force Pt  -0.000001577560993  -0.000121378167717   0.000064738713332 1
force Pt  -0.000000828804477  -0.000084966787485   0.000194393943549 1
force Pt   0.000001131658743   0.000033775832845   0.000193916484805 1
force Pt  -0.000002151865053   0.000032857095323   0.000024007863296 1
force Pt   0.000000671771652  -0.000143389351475   0.000174331907951 1
force Pt   0.000000332067164   0.000060680954602   0.000291826620575 1
force Pt  -0.000000266207494   0.000190606182021   0.000063859856812 1
force Pt   0.000000755379079   0.000107340356650  -0.000122948433748 1
force Pt  -0.000000775454194  -0.000146700325806  -0.000053583340386 1
force Pt   0.000000854874768  -0.000022377901761  -0.000048399738315 1
force Pt   0.000001387237337   0.000129976260028  -0.000051510352688 1
force Pt   0.000000947501307   0.000306764697927  -0.000142155059225 1
force Pt  -0.000000358961530   0.000132227160691  -0.000122234244955 1
force Pt  -0.000001024644987  -0.000162273162742  -0.000003168143902 1
force Pt  -0.000001266264379   0.000067888861353   0.000128046686054 1
force Pt  -0.000003411875393  -0.000094259175070  -0.000081434118118 1
force Pt  -0.000000328036152  -0.000115258133173   0.000100402935362 1
force Pt  -0.000000176691645  -0.000205329193040   0.000144919706198 1
force Pt   0.000000134313327  -0.000075003616788   0.000045024801660 1
force Pt   0.000000636139350  -0.000056539680831   0.000003187566815 1
force Pt  -0.000000553425554  -0.000048761797773   0.000088301485324 1
force Pt  -0.000000008358201   0.000128048329442   0.000414509186391 1
force Pt   0.000000767721947   0.000095333153035   0.000007874851660 1
force Pt   0.000001325138868   0.000055108747198  -0.000082212409023 1
force Pt   0.000003758851102   0.000266734538482  -0.000108619713807 1
force Pt  -0.000000415596532   0.000138858918436   0.000103660397399 1
force Pt   0.000001465193768   0.000203195076545   0.000010540283838 1
force Pt   0.000002474888336   0.000108142026951  -0.000320127679752 1
force Pt  -0.000003184656476  -0.000364019553098  -0.000179066314233 1
force Pt  -0.000001477522742   0.000040964437095  -0.000027932070333 1

# Energy components:
   A_diel =       -0.0069398249810947
   Eewald =    18280.3011386962498364
       EH =    21114.0447578887760756
     Eloc =   -42943.9220291301971884
      Enl =      -35.8738503134785987
     EvdW =       -0.8150867330315533
      Exc =     -967.3604846499518999
 Exc_core =      557.3069491661165102
       KE =      971.2439393706154078
  MuShift =        0.0000000000024683
-------------------------------------
     Etot =    -3025.0816055298787433
       TS =        0.0058919584295305
-------------------------------------
        F =    -3025.0874974883081450


Dumping 'jdft.fillings' ... done
Dumping 'jdft.wfns' ... done
Dumping 'jdft.fluidState' ... done
Dumping 'jdft.ionpos' ... done
Dumping 'jdft.lattice' ... done
Dumping 'jdft.eigenvals' ... done
Dumping 'jdft.eigStats' ... 
	eMin: -2.147288 at state 23 ( [ +0.000000 +0.500000 +0.000000 ] spin -1 )
	HOMO: -0.196656 at state 4 ( [ +0.181818 +0.000000 +0.000000 ] spin 1 )
	mu  : -0.196332
	LUMO: -0.196307 at state 25 ( [ +0.090909 +0.500000 +0.000000 ] spin -1 )
	eMax: +0.115184 at state 30 ( [ +0.363636 +0.000000 +0.000000 ] spin -1 )
	HOMO-LUMO gap: +0.000349
	Optical gap  : +0.000650 at state 10 ( [ +0.454545 +0.000000 +0.000000 ] spin 1 )
Dumping 'jdft.Ecomponents' ... done
IonicMinimize: Iter:   1  F: -3025.087497488308145  |grad|_K:  1.268e-04  alpha:  1.000e+00  linmin: -6.092e-01  t[s]:   2036.81

#--- Lowdin population analysis ---
# oxidation-state Pt -0.005 -0.014 +0.055 +0.013 +0.012 +0.012 +0.015 +0.014 +0.014 +0.007 +0.013 +0.013 +0.008 +0.014 +0.011 +0.004 -0.013 +0.007 +0.010 -0.014 +0.009 +0.010 +0.007 +0.018 +0.014 +0.010 +0.015 +0.017 +0.015 +0.016 -0.010 -0.004 +0.002 +0.053
# magnetic-moments Pt -0.000 -0.000 -0.000 -0.000 -0.000 -0.000 -0.000 -0.000 -0.000 -0.000 -0.000 -0.000 -0.000 -0.000 -0.000 -0.000 -0.000 -0.000 -0.000 -0.000 -0.000 -0.000 -0.000 -0.000 -0.000 -0.000 -0.000 -0.000 -0.000 -0.000 -0.000 -0.000 -0.000 -0.000


Computing DFT-D3 correction:
# coordination-number Pt 7.100 9.385 5.900 7.129 9.387 9.530 9.574 9.256 9.547 9.573 9.552 9.388 9.574 9.572 9.329 7.135 7.534 9.326 9.570 7.524 9.381 9.547 9.572 9.264 9.571 9.575 9.535 9.392 7.129 9.551 9.389 7.101 7.134 5.902
# diagonal-C6 Pt 336.87 336.87 336.87 336.87 336.87 336.87 336.87 336.87 336.87 336.87 336.87 336.87 336.87 336.87 336.87 336.87 336.87 336.87 336.87 336.87 336.87 336.87 336.87 336.87 336.87 336.87 336.87 336.87 336.87 336.87 336.87 336.87 336.87 336.87
EvdW_6 =   -0.316132
EvdW_8 =   -0.498964

-------- Electronic minimization -----------
	Linear fluid (dielectric constant: 78.4, screening length: 8.12261 Bohr) occupying 0.365461 of unit cell:	Completed after 21 iterations at t[s]:   2083.30
	FillingsUpdate:  mu: -0.199854994  nElectrons: 544.000000  magneticMoment: [ Abs: 0.00000  Tot: -0.00000 ]
ElecMinimize: Iter:   0  F: -3025.087313619628731  |grad|_K:  1.688e-06  alpha:  1.000e+00
	Linear fluid (dielectric constant: 78.4, screening length: 8.12261 Bohr) occupying 0.365731 of unit cell:	Completed after 25 iterations at t[s]:   2172.03
	Linear fluid (dielectric constant: 78.4, screening length: 8.12261 Bohr) occupying 0.365457 of unit cell:	Completed after 25 iterations at t[s]:   2203.27
	FillingsUpdate:  mu: -0.197095227  nElectrons: 544.000000  magneticMoment: [ Abs: 0.00000  Tot: -0.00000 ]
	SubspaceRotationAdjust: set factor to 0.0411
ElecMinimize: Iter:   1  F: -3025.087488763961574  |grad|_K:  2.357e-07  alpha:  1.444e-01  linmin:  8.522e-05  t[s]:   2245.08
	Linear fluid (dielectric constant: 78.4, screening length: 8.12261 Bohr) occupying 0.365458 of unit cell:	Completed after 13 iterations at t[s]:   2284.36
	Linear fluid (dielectric constant: 78.4, screening length: 8.12261 Bohr) occupying 0.365459 of unit cell:	Completed after 12 iterations at t[s]:   2313.44
	FillingsUpdate:  mu: -0.196069448  nElectrons: 544.000000  magneticMoment: [ Abs: 0.00000  Tot: -0.00000 ]
	SubspaceRotationAdjust: set factor to 0.0309
ElecMinimize: Iter:   2  F: -3025.087495041127113  |grad|_K:  1.325e-07  alpha:  2.660e-01  linmin:  5.072e-04  t[s]:   2355.12
	Linear fluid (dielectric constant: 78.4, screening length: 8.12261 Bohr) occupying 0.365459 of unit cell:	Completed after 12 iterations at t[s]:   2394.48
	Linear fluid (dielectric constant: 78.4, screening length: 8.12261 Bohr) occupying 0.365460 of unit cell:	Completed after 6 iterations at t[s]:   2422.76
	FillingsUpdate:  mu: -0.196465482  nElectrons: 544.000000  magneticMoment: [ Abs: 0.00000  Tot: -0.00000 ]
	SubspaceRotationAdjust: set factor to 0.0212
ElecMinimize: Iter:   3  F: -3025.087497302315114  |grad|_K:  7.163e-08  alpha:  3.034e-01  linmin: -2.727e-04  t[s]:   2464.42
	Linear fluid (dielectric constant: 78.4, screening length: 8.12261 Bohr) occupying 0.365460 of unit cell:	Completed after 7 iterations at t[s]:   2502.93
	Linear fluid (dielectric constant: 78.4, screening length: 8.12261 Bohr) occupying 0.365460 of unit cell:	Completed after 7 iterations at t[s]:   2531.22
	FillingsUpdate:  mu: -0.196441305  nElectrons: 544.000000  magneticMoment: [ Abs: 0.00000  Tot: -0.00000 ]
	SubspaceRotationAdjust: set factor to 0.0208
ElecMinimize: Iter:   4  F: -3025.087498304862038  |grad|_K:  5.337e-08  alpha:  4.592e-01  linmin:  2.320e-04  t[s]:   2572.78
	Linear fluid (dielectric constant: 78.4, screening length: 8.12261 Bohr) occupying 0.365461 of unit cell:	Completed after 9 iterations at t[s]:   2611.55
	Linear fluid (dielectric constant: 78.4, screening length: 8.12261 Bohr) occupying 0.365461 of unit cell:	Completed after 0 iterations at t[s]:   2638.81
	FillingsUpdate:  mu: -0.196293987  nElectrons: 544.000000  magneticMoment: [ Abs: 0.00000  Tot: -0.00000 ]
	SubspaceRotationAdjust: set factor to 0.0187
ElecMinimize: Iter:   5  F: -3025.087498832296205  |grad|_K:  3.827e-08  alpha:  4.353e-01  linmin:  2.290e-03  t[s]:   2680.45
	Linear fluid (dielectric constant: 78.4, screening length: 8.12261 Bohr) occupying 0.365461 of unit cell:	Completed after 5 iterations at t[s]:   2718.86
	Linear fluid (dielectric constant: 78.4, screening length: 8.12261 Bohr) occupying 0.365461 of unit cell:	Completed after 0 iterations at t[s]:   2746.37
	FillingsUpdate:  mu: -0.196360970  nElectrons: 544.000000  magneticMoment: [ Abs: 0.00000  Tot: -0.00000 ]
	SubspaceRotationAdjust: set factor to 0.0211
ElecMinimize: Iter:   6  F: -3025.087499118668347  |grad|_K:  2.738e-08  alpha:  4.659e-01  linmin: -4.152e-03  t[s]:   2787.99
	Linear fluid (dielectric constant: 78.4, screening length: 8.12261 Bohr) occupying 0.365461 of unit cell:	Completed after 2 iterations at t[s]:   2825.71
	Linear fluid (dielectric constant: 78.4, screening length: 8.12261 Bohr) occupying 0.365461 of unit cell:	Completed after 0 iterations at t[s]:   2852.78
	FillingsUpdate:  mu: -0.196355182  nElectrons: 544.000000  magneticMoment: [ Abs: 0.00000  Tot: -0.00000 ]
	SubspaceRotationAdjust: set factor to 0.0257
ElecMinimize: Iter:   7  F: -3025.087499297185332  |grad|_K:  2.310e-08  alpha:  5.419e-01  linmin: -6.745e-04  t[s]:   2894.13
	Linear fluid (dielectric constant: 78.4, screening length: 8.12261 Bohr) occupying 0.365461 of unit cell:	Completed after 2 iterations at t[s]:   2931.79
	Linear fluid (dielectric constant: 78.4, screening length: 8.12261 Bohr) occupying 0.365461 of unit cell:	Completed after 2 iterations at t[s]:   2959.47
	FillingsUpdate:  mu: -0.196298310  nElectrons: 544.000000  magneticMoment: [ Abs: 0.00000  Tot: -0.00000 ]
	SubspaceRotationAdjust: set factor to 0.0291
ElecMinimize: Iter:   8  F: -3025.087499447168739  |grad|_K:  2.405e-08  alpha:  6.593e-01  linmin: -9.105e-04  t[s]:   3001.21
	Linear fluid (dielectric constant: 78.4, screening length: 8.12261 Bohr) occupying 0.365461 of unit cell:	Completed after 5 iterations at t[s]:   3040.69
	Linear fluid (dielectric constant: 78.4, screening length: 8.12261 Bohr) occupying 0.365461 of unit cell:	Completed after 0 iterations at t[s]:   3067.86
	FillingsUpdate:  mu: -0.196365713  nElectrons: 544.000000  magneticMoment: [ Abs: 0.00000  Tot: -0.00000 ]
	SubspaceRotationAdjust: set factor to 0.0296
ElecMinimize: Iter:   9  F: -3025.087499602318076  |grad|_K:  2.739e-08  alpha:  6.195e-01  linmin:  1.193e-03  t[s]:   3109.45
	Linear fluid (dielectric constant: 78.4, screening length: 8.12261 Bohr) occupying 0.365461 of unit cell:	Completed after 3 iterations at t[s]:   3147.31
	Linear fluid (dielectric constant: 78.4, screening length: 8.12261 Bohr) occupying 0.365461 of unit cell:	Completed after 0 iterations at t[s]:   3174.63
	FillingsUpdate:  mu: -0.196357603  nElectrons: 544.000000  magneticMoment: [ Abs: 0.00000  Tot: -0.00000 ]
	SubspaceRotationAdjust: set factor to 0.0318
ElecMinimize: Iter:  10  F: -3025.087499785734508  |grad|_K:  2.666e-08  alpha:  5.949e-01  linmin: -1.711e-04  t[s]:   3216.38
	Linear fluid (dielectric constant: 78.4, screening length: 8.12261 Bohr) occupying 0.365460 of unit cell:	Completed after 2 iterations at t[s]:   3254.06
	Linear fluid (dielectric constant: 78.4, screening length: 8.12261 Bohr) occupying 0.365460 of unit cell:	Completed after 2 iterations at t[s]:   3281.86
	FillingsUpdate:  mu: -0.196327154  nElectrons: 544.000000  magneticMoment: [ Abs: 0.00000  Tot: -0.00000 ]
	SubspaceRotationAdjust: set factor to 0.0354
ElecMinimize: Iter:  11  F: -3025.087499997260238  |grad|_K:  2.718e-08  alpha:  6.985e-01  linmin:  5.569e-05  t[s]:   3323.48
	Linear fluid (dielectric constant: 78.4, screening length: 8.12261 Bohr) occupying 0.365459 of unit cell:	Completed after 5 iterations at t[s]:   3361.78
	Linear fluid (dielectric constant: 78.4, screening length: 8.12261 Bohr) occupying 0.365459 of unit cell:	Completed after 0 iterations at t[s]:   3389.07
	FillingsUpdate:  mu: -0.196409042  nElectrons: 544.000000  magneticMoment: [ Abs: 0.00000  Tot: -0.00000 ]
	SubspaceRotationAdjust: set factor to 0.0355
ElecMinimize: Iter:  12  F: -3025.087500200873819  |grad|_K:  2.852e-08  alpha:  6.480e-01  linmin:  4.508e-04  t[s]:   3430.60
	Linear fluid (dielectric constant: 78.4, screening length: 8.12261 Bohr) occupying 0.365458 of unit cell:	Completed after 6 iterations at t[s]:   3468.88
	Linear fluid (dielectric constant: 78.4, screening length: 8.12261 Bohr) occupying 0.365458 of unit cell:	Completed after 3 iterations at t[s]:   3496.66
	FillingsUpdate:  mu: -0.196323371  nElectrons: 544.000000  magneticMoment: [ Abs: 0.00000  Tot: -0.00000 ]
	SubspaceRotationAdjust: set factor to 0.0335
ElecMinimize: Iter:  13  F: -3025.087500352940424  |grad|_K:  2.651e-08  alpha:  4.525e-01  linmin:  5.997e-05  t[s]:   3538.34
	Linear fluid (dielectric constant: 78.4, screening length: 8.12261 Bohr) occupying 0.365458 of unit cell:	Completed after 5 iterations at t[s]:   3576.35
	Linear fluid (dielectric constant: 78.4, screening length: 8.12261 Bohr) occupying 0.365458 of unit cell:	Completed after 0 iterations at t[s]:   3603.54
	FillingsUpdate:  mu: -0.196387250  nElectrons: 544.000000  magneticMoment: [ Abs: 0.00000  Tot: -0.00000 ]
	SubspaceRotationAdjust: set factor to 0.0315
ElecMinimize: Iter:  14  F: -3025.087500493498737  |grad|_K:  2.287e-08  alpha:  4.710e-01  linmin: -5.516e-04  t[s]:   3645.87
	Linear fluid (dielectric constant: 78.4, screening length: 8.12261 Bohr) occupying 0.365458 of unit cell:	Completed after 6 iterations at t[s]:   3684.36
	Linear fluid (dielectric constant: 78.4, screening length: 8.12261 Bohr) occupying 0.365458 of unit cell:	Completed after 0 iterations at t[s]:   3711.62
	FillingsUpdate:  mu: -0.196410710  nElectrons: 544.000000  magneticMoment: [ Abs: 0.00000  Tot: -0.00000 ]
	SubspaceRotationAdjust: set factor to 0.0311
ElecMinimize: Iter:  15  F: -3025.087500605065543  |grad|_K:  2.118e-08  alpha:  4.909e-01  linmin: -6.634e-05  t[s]:   3753.23
	Linear fluid (dielectric constant: 78.4, screening length: 8.12261 Bohr) occupying 0.365458 of unit cell:	Completed after 4 iterations at t[s]:   3791.44
	Linear fluid (dielectric constant: 78.4, screening length: 8.12261 Bohr) occupying 0.365458 of unit cell:	Completed after 0 iterations at t[s]:   3818.68
	FillingsUpdate:  mu: -0.196357938  nElectrons: 544.000000  magneticMoment: [ Abs: 0.00000  Tot: -0.00000 ]
	SubspaceRotationAdjust: set factor to 0.0326
ElecMinimize: Iter:  16  F: -3025.087500694496157  |grad|_K:  1.767e-08  alpha:  4.653e-01  linmin:  1.581e-04  t[s]:   3860.63
	Linear fluid (dielectric constant: 78.4, screening length: 8.12261 Bohr) occupying 0.365458 of unit cell:	Completed after 2 iterations at t[s]:   3898.41
	Linear fluid (dielectric constant: 78.4, screening length: 8.12261 Bohr) occupying 0.365458 of unit cell:	Completed after 0 iterations at t[s]:   3925.73
	FillingsUpdate:  mu: -0.196362882  nElectrons: 544.000000  magneticMoment: [ Abs: 0.00000  Tot: -0.00000 ]
	SubspaceRotationAdjust: set factor to 0.0397
ElecMinimize: Iter:  17  F: -3025.087500773603551  |grad|_K:  1.541e-08  alpha:  5.894e-01  linmin: -1.119e-03  t[s]:   3967.47
ElecMinimize: Converged (|Delta F|<1.000000e-07 for 2 iters).
Setting wave functions to eigenvectors of Hamiltonian
Converging empty states (this may take a while): |deigs|: 3.733e-09

Computing DFT-D3 correction:
# coordination-number Pt 7.100 9.385 5.900 7.129 9.387 9.530 9.574 9.256 9.547 9.573 9.552 9.388 9.574 9.572 9.329 7.135 7.534 9.326 9.570 7.524 9.381 9.547 9.572 9.264 9.571 9.575 9.535 9.392 7.129 9.551 9.389 7.101 7.134 5.902
# diagonal-C6 Pt 336.87 336.87 336.87 336.87 336.87 336.87 336.87 336.87 336.87 336.87 336.87 336.87 336.87 336.87 336.87 336.87 336.87 336.87 336.87 336.87 336.87 336.87 336.87 336.87 336.87 336.87 336.87 336.87 336.87 336.87 336.87 336.87 336.87 336.87
EvdW_6 =   -0.316132
EvdW_8 =   -0.498964

# Ionic positions in cartesian coordinates:
ion Pt  -0.000562932831420  12.479141735119979   1.390592687239629 1
ion Pt   5.231466614486440  16.585204070267732   5.102226234204728 1
ion Pt   5.232592626977011  21.861631938751952  29.787144204720551 1
ion Pt   5.231293143416653   3.790572461430520   2.915533604332163 1
ion Pt   5.231543327863044   7.592852467879188   6.753421909044135 1
ion Pt   5.231677750345860  11.443130575596067  10.393105806557012 1
ion Pt   0.000136553157453  18.994342576624806  17.494324900308779 1
ion Pt   5.231502434310646  20.416365361584344   8.472442928064602 1
ion Pt   5.231835970282138   2.548463734217801  12.046702878431415 1
ion Pt   5.232076670352797   6.331364160327293  15.665455717855030 1
ion Pt   0.000203660248365  10.164802309512613  19.294965340600452 1
ion Pt   0.000547935883735  13.966059809287945  23.021762504739499 1
ion Pt   5.231768638028283  15.255364700826728  13.944290271186146 1
ion Pt   5.232419281113829   1.183736294548364  21.015683969868046 1
ion Pt   0.000513466753929   5.080222357844439  24.554395922701143 1
ion Pt   0.000678959709927   8.974569255760112  28.331343411924315 1
ion Pt   5.232574770575283  17.701139815471375  26.863115160196180 1
ion Pt   2.615514361696280  12.050125812143166   5.951956575418297 1
ion Pt   2.615577303732186  15.948823268200028   9.492838058780794 1
ion Pt   2.615371043218882  21.000265223235857   3.640015876436186 1
ion Pt   2.615497277054791   3.163962405926565   7.485306815038719 1
ion Pt   2.615799774604536   6.967723818745461  11.213509037147338 1
ion Pt   2.615883252294467  10.801783157144770  14.843934653381641 1
ion Pt   2.616484550303316  18.286330012463342  22.035305845011784 1
ion Pt   2.615780847123811  19.710853573271471  13.016366817634713 1
ion Pt   2.616181115429706   1.878626093266170  16.565808892602792 1
ion Pt   2.616325718072525   5.690229414840670  20.115187357151434 1
ion Pt   2.616533828607765   9.538678450460273  23.753639075332408 1
ion Pt   2.616645285110276  13.339145306962401  27.591295852427177 1
ion Pt   2.616130908301829  14.584464495414593  18.462236460254264 1
ion Pt   2.616538416430757   0.544697773542622  25.404801021789048 1
ion Pt   2.616600975150046   4.647550857314835  29.114941973080647 1
ion Pt   2.615359707667150   8.153576648606716   2.174323143320241 1
ion Pt   2.615428764527703  16.835398063409976   0.719724093218749 1

# Forces in Cartesian coordinates:
force Pt  -0.000002526414268  -0.000185678473061   0.000208430140210 1
force Pt  -0.000000973059958  -0.000140286022787   0.000108630833554 1
force Pt   0.000001983959418   0.000018441345076  -0.000003370399918 1
force Pt  -0.000001585549498  -0.000240681161454  -0.000001868459398 1
force Pt  -0.000001267462240  -0.000119301589780   0.000014812713623 1
force Pt  -0.000000686398127  -0.000081281161747  -0.000142486393917 1
force Pt   0.000000845626356  -0.000004097917072  -0.000067244336197 1
force Pt  -0.000001848920602  -0.000056856510243  -0.000117190367000 1
force Pt   0.000000384981019  -0.000120223948641  -0.000006965225501 1
force Pt   0.000000252079636   0.000033875884779  -0.000016870802114 1
force Pt  -0.000000133987549   0.000176689526700  -0.000005692779468 1
force Pt   0.000000776198597   0.000068901849047   0.000036662885114 1
force Pt  -0.000000773637704  -0.000052190297290  -0.000194393663277 1
force Pt   0.000000806021617  -0.000016154310278   0.000128531547373 1
force Pt   0.000001341991182   0.000116419325684  -0.000030430451853 1
force Pt   0.000001350804124   0.000288870122215   0.000044285966884 1
force Pt   0.000000149289768   0.000137836744494   0.000029329857670 1
force Pt  -0.000001112061297  -0.000154849186930   0.000100285613703 1
force Pt  -0.000001177437396   0.000005677689187  -0.000164214226116 1
force Pt  -0.000003060419065  -0.000124623873456   0.000095151947404 1
force Pt  -0.000000517083167  -0.000068999893128  -0.000032325622737 1
force Pt  -0.000000172460000  -0.000171547911831  -0.000099072276333 1
force Pt  -0.000000018820286  -0.000033038855308  -0.000145152699910 1
force Pt   0.000000656793815   0.000056941530487   0.000109434077679 1
force Pt  -0.000000457362404  -0.000028029810066  -0.000078747944923 1
force Pt   0.000000217221082   0.000032151534570   0.000050722070966 1
force Pt   0.000000699204370   0.000097795739030   0.000089016609054 1
force Pt   0.000001077466279   0.000098184579410   0.000015665597537 1
force Pt   0.000003167428848   0.000242659297668   0.000041882150671 1
force Pt  -0.000000303677174   0.000098843730789  -0.000102979927801 1
force Pt   0.000001399598926   0.000109515808211  -0.000061964210297 1
force Pt   0.000002242216144   0.000137028848511  -0.000120937475895 1
force Pt  -0.000002969532765  -0.000307047580944   0.000030187438019 1
force Pt  -0.000001573527197  -0.000018515582513   0.000067449347504 1

# Energy components:
   A_diel =       -0.0069397536379618
   Eewald =    18280.8395570169450366
       EH =    21114.5695303825050360
     Eloc =   -42944.9850726087097428
      Enl =      -35.8736991575311350
     EvdW =       -0.8150952556996506
      Exc =     -967.3604805338163715
 Exc_core =      557.3069490416364715
       KE =      971.2436395105687552
  MuShift =        0.0000000000024683
-------------------------------------
     Etot =    -3025.0816113577343458
       TS =        0.0058894158690004
-------------------------------------
        F =    -3025.0875007736035514


Dumping 'jdft.fillings' ... done
Dumping 'jdft.wfns' ... done
Dumping 'jdft.fluidState' ... done
Dumping 'jdft.ionpos' ... done
Dumping 'jdft.lattice' ... done
Dumping 'jdft.eigenvals' ... done
Dumping 'jdft.eigStats' ... 
	eMin: -2.147339 at state 23 ( [ +0.000000 +0.500000 +0.000000 ] spin -1 )
	HOMO: -0.196700 at state 4 ( [ +0.181818 +0.000000 +0.000000 ] spin 1 )
	mu  : -0.196363
	LUMO: -0.196336 at state 43 ( [ -0.090909 +0.500000 +0.000000 ] spin -1 )
	eMax: +0.115160 at state 8 ( [ +0.363636 +0.000000 +0.000000 ] spin 1 )
	HOMO-LUMO gap: +0.000364
	Optical gap  : +0.000660 at state 10 ( [ +0.454545 +0.000000 +0.000000 ] spin 1 )
Dumping 'jdft.Ecomponents' ... done
IonicMinimize: Iter:   2  F: -3025.087500773603551  |grad|_K:  9.365e-05  alpha:  1.000e+00  linmin: -5.825e-01  t[s]:   4079.70
IonicMinimize: Converged (|grad|_K<1.000000e-04).

#--- Lowdin population analysis ---
# oxidation-state Pt -0.004 -0.012 +0.055 +0.015 +0.015 +0.014 +0.013 +0.016 +0.014 +0.005 +0.011 +0.012 +0.008 +0.012 +0.010 +0.003 -0.013 +0.009 +0.013 -0.013 +0.012 +0.011 +0.006 +0.016 +0.014 +0.008 +0.013 +0.015 +0.014 +0.014 -0.012 -0.004 +0.004 +0.055
# magnetic-moments Pt -0.000 -0.000 -0.000 -0.000 -0.000 -0.000 -0.000 -0.000 -0.000 -0.000 -0.000 -0.000 -0.000 -0.000 -0.000 -0.000 -0.000 -0.000 -0.000 -0.000 -0.000 -0.000 -0.000 -0.000 -0.000 -0.000 -0.000 -0.000 -0.000 -0.000 -0.000 -0.000 -0.000 -0.000


Dumping 'jdft.n_up' ... done
Dumping 'jdft.n_dn' ... done
Dumping 'jdft.tau_up' ... done
Dumping 'jdft.tau_dn' ... done
Dumping 'jdft.eigenvals' ... done
Dumping 'jdft.eigStats' ... 
	eMin: -2.147339 at state 23 ( [ +0.000000 +0.500000 +0.000000 ] spin -1 )
	HOMO: -0.196700 at state 4 ( [ +0.181818 +0.000000 +0.000000 ] spin 1 )
	mu  : -0.196363
	LUMO: -0.196336 at state 43 ( [ -0.090909 +0.500000 +0.000000 ] spin -1 )
	eMax: +0.115160 at state 8 ( [ +0.363636 +0.000000 +0.000000 ] spin 1 )
	HOMO-LUMO gap: +0.000364
	Optical gap  : +0.000660 at state 10 ( [ +0.454545 +0.000000 +0.000000 ] spin 1 )
Dumping 'jdft.kPts' ... done
Dumping 'jdft.dosUp' ... done.
Dumping 'jdft.dosDn' ... done.
End date and time: Thu Dec  9 06:55:40 2021  (Duration: 0-1:09:04.66)
Done!
