
*************** JDFTx 1.6.0  ***************

Start date and time: Mon Mar  7 21:31:11 2022
Executable /projects/musgravc/apps/jdftx-1.6.1/build/jdftx with command-line: -i in
Running on hosts (process indices):  shas0914.rc.int.colorado.edu (0-23)
Divided in process groups (process indices):  0 (0)  1 (1)  2 (2)  3 (3)  4 (4)  5 (5)  6 (6)  7 (7)  8 (8)  9 (9)  10 (10)  11 (11)  12 (12)  13 (13)  14 (14)  15 (15)  16 (16)  17 (17)  18 (18)  19 (19)  20 (20)  21 (21)  22 (22)  23 (23)
Resource initialization completed at t[s]:      0.00
Run totals: 24 processes, 24 threads, 0 GPUs


Input parsed successfully to the following command list (including defaults):

basis kpoint-dependent
converge-empty-states yes
coords-type Cartesian
core-overlap-check none
coulomb-interaction Periodic
davidson-band-ratio 1.1
density-of-states Etol 1.000000e-06 Esigma 1.000000e-03 \
		Complete \
	Total \
	OrthoOrbital Ag 1   s \
	OrthoOrbital Ag 1   p \
	OrthoOrbital Ag 1   px \
	OrthoOrbital Ag 1   py \
	OrthoOrbital Ag 1   pz \
	OrthoOrbital Ag 1   d \
	OrthoOrbital Ag 1   dxy \
	OrthoOrbital Ag 1   dyz \
	OrthoOrbital Ag 1   dz2 \
	OrthoOrbital Ag 1   dxz \
	OrthoOrbital Ag 1   dx2-y2 \
	OrthoOrbital Ag 2   s \
	OrthoOrbital Ag 2   p \
	OrthoOrbital Ag 2   px \
	OrthoOrbital Ag 2   py \
	OrthoOrbital Ag 2   pz \
	OrthoOrbital Ag 2   d \
	OrthoOrbital Ag 2   dxy \
	OrthoOrbital Ag 2   dyz \
	OrthoOrbital Ag 2   dz2 \
	OrthoOrbital Ag 2   dxz \
	OrthoOrbital Ag 2   dx2-y2 \
	OrthoOrbital Ag 3   s \
	OrthoOrbital Ag 3   p \
	OrthoOrbital Ag 3   px \
	OrthoOrbital Ag 3   py \
	OrthoOrbital Ag 3   pz \
	OrthoOrbital Ag 3   d \
	OrthoOrbital Ag 3   dxy \
	OrthoOrbital Ag 3   dyz \
	OrthoOrbital Ag 3   dz2 \
	OrthoOrbital Ag 3   dxz \
	OrthoOrbital Ag 3   dx2-y2 \
	OrthoOrbital Ag 4   s \
	OrthoOrbital Ag 4   p \
	OrthoOrbital Ag 4   px \
	OrthoOrbital Ag 4   py \
	OrthoOrbital Ag 4   pz \
	OrthoOrbital Ag 4   d \
	OrthoOrbital Ag 4   dxy \
	OrthoOrbital Ag 4   dyz \
	OrthoOrbital Ag 4   dz2 \
	OrthoOrbital Ag 4   dxz \
	OrthoOrbital Ag 4   dx2-y2 \
	OrthoOrbital Ag 5   s \
	OrthoOrbital Ag 5   p \
	OrthoOrbital Ag 5   px \
	OrthoOrbital Ag 5   py \
	OrthoOrbital Ag 5   pz \
	OrthoOrbital Ag 5   d \
	OrthoOrbital Ag 5   dxy \
	OrthoOrbital Ag 5   dyz \
	OrthoOrbital Ag 5   dz2 \
	OrthoOrbital Ag 5   dxz \
	OrthoOrbital Ag 5   dx2-y2 \
	OrthoOrbital Ag 6   s \
	OrthoOrbital Ag 6   p \
	OrthoOrbital Ag 6   px \
	OrthoOrbital Ag 6   py \
	OrthoOrbital Ag 6   pz \
	OrthoOrbital Ag 6   d \
	OrthoOrbital Ag 6   dxy \
	OrthoOrbital Ag 6   dyz \
	OrthoOrbital Ag 6   dz2 \
	OrthoOrbital Ag 6   dxz \
	OrthoOrbital Ag 6   dx2-y2 \
	OrthoOrbital Ag 7   s \
	OrthoOrbital Ag 7   p \
	OrthoOrbital Ag 7   px \
	OrthoOrbital Ag 7   py \
	OrthoOrbital Ag 7   pz \
	OrthoOrbital Ag 7   d \
	OrthoOrbital Ag 7   dxy \
	OrthoOrbital Ag 7   dyz \
	OrthoOrbital Ag 7   dz2 \
	OrthoOrbital Ag 7   dxz \
	OrthoOrbital Ag 7   dx2-y2 \
	OrthoOrbital Ag 8   s \
	OrthoOrbital Ag 8   p \
	OrthoOrbital Ag 8   px \
	OrthoOrbital Ag 8   py \
	OrthoOrbital Ag 8   pz \
	OrthoOrbital Ag 8   d \
	OrthoOrbital Ag 8   dxy \
	OrthoOrbital Ag 8   dyz \
	OrthoOrbital Ag 8   dz2 \
	OrthoOrbital Ag 8   dxz \
	OrthoOrbital Ag 8   dx2-y2 \
	OrthoOrbital Ag 9   s \
	OrthoOrbital Ag 9   p \
	OrthoOrbital Ag 9   px \
	OrthoOrbital Ag 9   py \
	OrthoOrbital Ag 9   pz \
	OrthoOrbital Ag 9   d \
	OrthoOrbital Ag 9   dxy \
	OrthoOrbital Ag 9   dyz \
	OrthoOrbital Ag 9   dz2 \
	OrthoOrbital Ag 9   dxz \
	OrthoOrbital Ag 9   dx2-y2 \
	OrthoOrbital Ag 10   s \
	OrthoOrbital Ag 10   p \
	OrthoOrbital Ag 10   px \
	OrthoOrbital Ag 10   py \
	OrthoOrbital Ag 10   pz \
	OrthoOrbital Ag 10   d \
	OrthoOrbital Ag 10   dxy \
	OrthoOrbital Ag 10   dyz \
	OrthoOrbital Ag 10   dz2 \
	OrthoOrbital Ag 10   dxz \
	OrthoOrbital Ag 10   dx2-y2 \
	OrthoOrbital Ag 11   s \
	OrthoOrbital Ag 11   p \
	OrthoOrbital Ag 11   px \
	OrthoOrbital Ag 11   py \
	OrthoOrbital Ag 11   pz \
	OrthoOrbital Ag 11   d \
	OrthoOrbital Ag 11   dxy \
	OrthoOrbital Ag 11   dyz \
	OrthoOrbital Ag 11   dz2 \
	OrthoOrbital Ag 11   dxz \
	OrthoOrbital Ag 11   dx2-y2 \
	OrthoOrbital Ag 12   s \
	OrthoOrbital Ag 12   p \
	OrthoOrbital Ag 12   px \
	OrthoOrbital Ag 12   py \
	OrthoOrbital Ag 12   pz \
	OrthoOrbital Ag 12   d \
	OrthoOrbital Ag 12   dxy \
	OrthoOrbital Ag 12   dyz \
	OrthoOrbital Ag 12   dz2 \
	OrthoOrbital Ag 12   dxz \
	OrthoOrbital Ag 12   dx2-y2 \
	OrthoOrbital Ag 13   s \
	OrthoOrbital Ag 13   p \
	OrthoOrbital Ag 13   px \
	OrthoOrbital Ag 13   py \
	OrthoOrbital Ag 13   pz \
	OrthoOrbital Ag 13   d \
	OrthoOrbital Ag 13   dxy \
	OrthoOrbital Ag 13   dyz \
	OrthoOrbital Ag 13   dz2 \
	OrthoOrbital Ag 13   dxz \
	OrthoOrbital Ag 13   dx2-y2 \
	OrthoOrbital Ag 14   s \
	OrthoOrbital Ag 14   p \
	OrthoOrbital Ag 14   px \
	OrthoOrbital Ag 14   py \
	OrthoOrbital Ag 14   pz \
	OrthoOrbital Ag 14   d \
	OrthoOrbital Ag 14   dxy \
	OrthoOrbital Ag 14   dyz \
	OrthoOrbital Ag 14   dz2 \
	OrthoOrbital Ag 14   dxz \
	OrthoOrbital Ag 14   dx2-y2 \
	OrthoOrbital Ag 15   s \
	OrthoOrbital Ag 15   p \
	OrthoOrbital Ag 15   px \
	OrthoOrbital Ag 15   py \
	OrthoOrbital Ag 15   pz \
	OrthoOrbital Ag 15   d \
	OrthoOrbital Ag 15   dxy \
	OrthoOrbital Ag 15   dyz \
	OrthoOrbital Ag 15   dz2 \
	OrthoOrbital Ag 15   dxz \
	OrthoOrbital Ag 15   dx2-y2 \
	OrthoOrbital Ag 16   s \
	OrthoOrbital Ag 16   p \
	OrthoOrbital Ag 16   px \
	OrthoOrbital Ag 16   py \
	OrthoOrbital Ag 16   pz \
	OrthoOrbital Ag 16   d \
	OrthoOrbital Ag 16   dxy \
	OrthoOrbital Ag 16   dyz \
	OrthoOrbital Ag 16   dz2 \
	OrthoOrbital Ag 16   dxz \
	OrthoOrbital Ag 16   dx2-y2 \
	OrthoOrbital Ag 17   s \
	OrthoOrbital Ag 17   p \
	OrthoOrbital Ag 17   px \
	OrthoOrbital Ag 17   py \
	OrthoOrbital Ag 17   pz \
	OrthoOrbital Ag 17   d \
	OrthoOrbital Ag 17   dxy \
	OrthoOrbital Ag 17   dyz \
	OrthoOrbital Ag 17   dz2 \
	OrthoOrbital Ag 17   dxz \
	OrthoOrbital Ag 17   dx2-y2 \
	OrthoOrbital Ag 18   s \
	OrthoOrbital Ag 18   p \
	OrthoOrbital Ag 18   px \
	OrthoOrbital Ag 18   py \
	OrthoOrbital Ag 18   pz \
	OrthoOrbital Ag 18   d \
	OrthoOrbital Ag 18   dxy \
	OrthoOrbital Ag 18   dyz \
	OrthoOrbital Ag 18   dz2 \
	OrthoOrbital Ag 18   dxz \
	OrthoOrbital Ag 18   dx2-y2 \
	OrthoOrbital Ag 19   s \
	OrthoOrbital Ag 19   p \
	OrthoOrbital Ag 19   px \
	OrthoOrbital Ag 19   py \
	OrthoOrbital Ag 19   pz \
	OrthoOrbital Ag 19   d \
	OrthoOrbital Ag 19   dxy \
	OrthoOrbital Ag 19   dyz \
	OrthoOrbital Ag 19   dz2 \
	OrthoOrbital Ag 19   dxz \
	OrthoOrbital Ag 19   dx2-y2 \
	OrthoOrbital Ag 20   s \
	OrthoOrbital Ag 20   p \
	OrthoOrbital Ag 20   px \
	OrthoOrbital Ag 20   py \
	OrthoOrbital Ag 20   pz \
	OrthoOrbital Ag 20   d \
	OrthoOrbital Ag 20   dxy \
	OrthoOrbital Ag 20   dyz \
	OrthoOrbital Ag 20   dz2 \
	OrthoOrbital Ag 20   dxz \
	OrthoOrbital Ag 20   dx2-y2 \
	OrthoOrbital Ag 21   s \
	OrthoOrbital Ag 21   p \
	OrthoOrbital Ag 21   px \
	OrthoOrbital Ag 21   py \
	OrthoOrbital Ag 21   pz \
	OrthoOrbital Ag 21   d \
	OrthoOrbital Ag 21   dxy \
	OrthoOrbital Ag 21   dyz \
	OrthoOrbital Ag 21   dz2 \
	OrthoOrbital Ag 21   dxz \
	OrthoOrbital Ag 21   dx2-y2 \
	OrthoOrbital Ag 22   s \
	OrthoOrbital Ag 22   p \
	OrthoOrbital Ag 22   px \
	OrthoOrbital Ag 22   py \
	OrthoOrbital Ag 22   pz \
	OrthoOrbital Ag 22   d \
	OrthoOrbital Ag 22   dxy \
	OrthoOrbital Ag 22   dyz \
	OrthoOrbital Ag 22   dz2 \
	OrthoOrbital Ag 22   dxz \
	OrthoOrbital Ag 22   dx2-y2 \
	OrthoOrbital Ag 23   s \
	OrthoOrbital Ag 23   p \
	OrthoOrbital Ag 23   px \
	OrthoOrbital Ag 23   py \
	OrthoOrbital Ag 23   pz \
	OrthoOrbital Ag 23   d \
	OrthoOrbital Ag 23   dxy \
	OrthoOrbital Ag 23   dyz \
	OrthoOrbital Ag 23   dz2 \
	OrthoOrbital Ag 23   dxz \
	OrthoOrbital Ag 23   dx2-y2 \
	OrthoOrbital Ag 24   s \
	OrthoOrbital Ag 24   p \
	OrthoOrbital Ag 24   px \
	OrthoOrbital Ag 24   py \
	OrthoOrbital Ag 24   pz \
	OrthoOrbital Ag 24   d \
	OrthoOrbital Ag 24   dxy \
	OrthoOrbital Ag 24   dyz \
	OrthoOrbital Ag 24   dz2 \
	OrthoOrbital Ag 24   dxz \
	OrthoOrbital Ag 24   dx2-y2 \
	OrthoOrbital Ag 25   s \
	OrthoOrbital Ag 25   p \
	OrthoOrbital Ag 25   px \
	OrthoOrbital Ag 25   py \
	OrthoOrbital Ag 25   pz \
	OrthoOrbital Ag 25   d \
	OrthoOrbital Ag 25   dxy \
	OrthoOrbital Ag 25   dyz \
	OrthoOrbital Ag 25   dz2 \
	OrthoOrbital Ag 25   dxz \
	OrthoOrbital Ag 25   dx2-y2 \
	OrthoOrbital Ag 26   s \
	OrthoOrbital Ag 26   p \
	OrthoOrbital Ag 26   px \
	OrthoOrbital Ag 26   py \
	OrthoOrbital Ag 26   pz \
	OrthoOrbital Ag 26   d \
	OrthoOrbital Ag 26   dxy \
	OrthoOrbital Ag 26   dyz \
	OrthoOrbital Ag 26   dz2 \
	OrthoOrbital Ag 26   dxz \
	OrthoOrbital Ag 26   dx2-y2 \
	OrthoOrbital Ag 27   s \
	OrthoOrbital Ag 27   p \
	OrthoOrbital Ag 27   px \
	OrthoOrbital Ag 27   py \
	OrthoOrbital Ag 27   pz \
	OrthoOrbital Ag 27   d \
	OrthoOrbital Ag 27   dxy \
	OrthoOrbital Ag 27   dyz \
	OrthoOrbital Ag 27   dz2 \
	OrthoOrbital Ag 27   dxz \
	OrthoOrbital Ag 27   dx2-y2 \
	OrthoOrbital Ag 28   s \
	OrthoOrbital Ag 28   p \
	OrthoOrbital Ag 28   px \
	OrthoOrbital Ag 28   py \
	OrthoOrbital Ag 28   pz \
	OrthoOrbital Ag 28   d \
	OrthoOrbital Ag 28   dxy \
	OrthoOrbital Ag 28   dyz \
	OrthoOrbital Ag 28   dz2 \
	OrthoOrbital Ag 28   dxz \
	OrthoOrbital Ag 28   dx2-y2 \
	OrthoOrbital Ag 29   s \
	OrthoOrbital Ag 29   p \
	OrthoOrbital Ag 29   px \
	OrthoOrbital Ag 29   py \
	OrthoOrbital Ag 29   pz \
	OrthoOrbital Ag 29   d \
	OrthoOrbital Ag 29   dxy \
	OrthoOrbital Ag 29   dyz \
	OrthoOrbital Ag 29   dz2 \
	OrthoOrbital Ag 29   dxz \
	OrthoOrbital Ag 29   dx2-y2 \
	OrthoOrbital Ag 30   s \
	OrthoOrbital Ag 30   p \
	OrthoOrbital Ag 30   px \
	OrthoOrbital Ag 30   py \
	OrthoOrbital Ag 30   pz \
	OrthoOrbital Ag 30   d \
	OrthoOrbital Ag 30   dxy \
	OrthoOrbital Ag 30   dyz \
	OrthoOrbital Ag 30   dz2 \
	OrthoOrbital Ag 30   dxz \
	OrthoOrbital Ag 30   dx2-y2 \
	OrthoOrbital Ag 31   s \
	OrthoOrbital Ag 31   p \
	OrthoOrbital Ag 31   px \
	OrthoOrbital Ag 31   py \
	OrthoOrbital Ag 31   pz \
	OrthoOrbital Ag 31   d \
	OrthoOrbital Ag 31   dxy \
	OrthoOrbital Ag 31   dyz \
	OrthoOrbital Ag 31   dz2 \
	OrthoOrbital Ag 31   dxz \
	OrthoOrbital Ag 31   dx2-y2 \
	OrthoOrbital Ag 32   s \
	OrthoOrbital Ag 32   p \
	OrthoOrbital Ag 32   px \
	OrthoOrbital Ag 32   py \
	OrthoOrbital Ag 32   pz \
	OrthoOrbital Ag 32   d \
	OrthoOrbital Ag 32   dxy \
	OrthoOrbital Ag 32   dyz \
	OrthoOrbital Ag 32   dz2 \
	OrthoOrbital Ag 32   dxz \
	OrthoOrbital Ag 32   dx2-y2 \
	OrthoOrbital Ag 33   s \
	OrthoOrbital Ag 33   p \
	OrthoOrbital Ag 33   px \
	OrthoOrbital Ag 33   py \
	OrthoOrbital Ag 33   pz \
	OrthoOrbital Ag 33   d \
	OrthoOrbital Ag 33   dxy \
	OrthoOrbital Ag 33   dyz \
	OrthoOrbital Ag 33   dz2 \
	OrthoOrbital Ag 33   dxz \
	OrthoOrbital Ag 33   dx2-y2 \
	OrthoOrbital Ag 34   s \
	OrthoOrbital Ag 34   p \
	OrthoOrbital Ag 34   px \
	OrthoOrbital Ag 34   py \
	OrthoOrbital Ag 34   pz \
	OrthoOrbital Ag 34   d \
	OrthoOrbital Ag 34   dxy \
	OrthoOrbital Ag 34   dyz \
	OrthoOrbital Ag 34   dz2 \
	OrthoOrbital Ag 34   dxz \
	OrthoOrbital Ag 34   dx2-y2 \
	OrthoOrbital Ag 35   s \
	OrthoOrbital Ag 35   p \
	OrthoOrbital Ag 35   px \
	OrthoOrbital Ag 35   py \
	OrthoOrbital Ag 35   pz \
	OrthoOrbital Ag 35   d \
	OrthoOrbital Ag 35   dxy \
	OrthoOrbital Ag 35   dyz \
	OrthoOrbital Ag 35   dz2 \
	OrthoOrbital Ag 35   dxz \
	OrthoOrbital Ag 35   dx2-y2 \
	OrthoOrbital Ag 36   s \
	OrthoOrbital Ag 36   p \
	OrthoOrbital Ag 36   px \
	OrthoOrbital Ag 36   py \
	OrthoOrbital Ag 36   pz \
	OrthoOrbital Ag 36   d \
	OrthoOrbital Ag 36   dxy \
	OrthoOrbital Ag 36   dyz \
	OrthoOrbital Ag 36   dz2 \
	OrthoOrbital Ag 36   dxz \
	OrthoOrbital Ag 36   dx2-y2 \
	OrthoOrbital Ag 37   s \
	OrthoOrbital Ag 37   p \
	OrthoOrbital Ag 37   px \
	OrthoOrbital Ag 37   py \
	OrthoOrbital Ag 37   pz \
	OrthoOrbital Ag 37   d \
	OrthoOrbital Ag 37   dxy \
	OrthoOrbital Ag 37   dyz \
	OrthoOrbital Ag 37   dz2 \
	OrthoOrbital Ag 37   dxz \
	OrthoOrbital Ag 37   dx2-y2 \
	OrthoOrbital Ag 38   s \
	OrthoOrbital Ag 38   p \
	OrthoOrbital Ag 38   px \
	OrthoOrbital Ag 38   py \
	OrthoOrbital Ag 38   pz \
	OrthoOrbital Ag 38   d \
	OrthoOrbital Ag 38   dxy \
	OrthoOrbital Ag 38   dyz \
	OrthoOrbital Ag 38   dz2 \
	OrthoOrbital Ag 38   dxz \
	OrthoOrbital Ag 38   dx2-y2 \
	OrthoOrbital Ag 39   s \
	OrthoOrbital Ag 39   p \
	OrthoOrbital Ag 39   px \
	OrthoOrbital Ag 39   py \
	OrthoOrbital Ag 39   pz \
	OrthoOrbital Ag 39   d \
	OrthoOrbital Ag 39   dxy \
	OrthoOrbital Ag 39   dyz \
	OrthoOrbital Ag 39   dz2 \
	OrthoOrbital Ag 39   dxz \
	OrthoOrbital Ag 39   dx2-y2 \
	OrthoOrbital Ag 40   s \
	OrthoOrbital Ag 40   p \
	OrthoOrbital Ag 40   px \
	OrthoOrbital Ag 40   py \
	OrthoOrbital Ag 40   pz \
	OrthoOrbital Ag 40   d \
	OrthoOrbital Ag 40   dxy \
	OrthoOrbital Ag 40   dyz \
	OrthoOrbital Ag 40   dz2 \
	OrthoOrbital Ag 40   dxz \
	OrthoOrbital Ag 40   dx2-y2 \
	OrthoOrbital Ag 41   s \
	OrthoOrbital Ag 41   p \
	OrthoOrbital Ag 41   px \
	OrthoOrbital Ag 41   py \
	OrthoOrbital Ag 41   pz \
	OrthoOrbital Ag 41   d \
	OrthoOrbital Ag 41   dxy \
	OrthoOrbital Ag 41   dyz \
	OrthoOrbital Ag 41   dz2 \
	OrthoOrbital Ag 41   dxz \
	OrthoOrbital Ag 41   dx2-y2 \
	OrthoOrbital Ag 42   s \
	OrthoOrbital Ag 42   p \
	OrthoOrbital Ag 42   px \
	OrthoOrbital Ag 42   py \
	OrthoOrbital Ag 42   pz \
	OrthoOrbital Ag 42   d \
	OrthoOrbital Ag 42   dxy \
	OrthoOrbital Ag 42   dyz \
	OrthoOrbital Ag 42   dz2 \
	OrthoOrbital Ag 42   dxz \
	OrthoOrbital Ag 42   dx2-y2 \
	OrthoOrbital Ag 43   s \
	OrthoOrbital Ag 43   p \
	OrthoOrbital Ag 43   px \
	OrthoOrbital Ag 43   py \
	OrthoOrbital Ag 43   pz \
	OrthoOrbital Ag 43   d \
	OrthoOrbital Ag 43   dxy \
	OrthoOrbital Ag 43   dyz \
	OrthoOrbital Ag 43   dz2 \
	OrthoOrbital Ag 43   dxz \
	OrthoOrbital Ag 43   dx2-y2 \
	OrthoOrbital Ag 44   s \
	OrthoOrbital Ag 44   p \
	OrthoOrbital Ag 44   px \
	OrthoOrbital Ag 44   py \
	OrthoOrbital Ag 44   pz \
	OrthoOrbital Ag 44   d \
	OrthoOrbital Ag 44   dxy \
	OrthoOrbital Ag 44   dyz \
	OrthoOrbital Ag 44   dz2 \
	OrthoOrbital Ag 44   dxz \
	OrthoOrbital Ag 44   dx2-y2 \
	OrthoOrbital Ag 45   s \
	OrthoOrbital Ag 45   p \
	OrthoOrbital Ag 45   px \
	OrthoOrbital Ag 45   py \
	OrthoOrbital Ag 45   pz \
	OrthoOrbital Ag 45   d \
	OrthoOrbital Ag 45   dxy \
	OrthoOrbital Ag 45   dyz \
	OrthoOrbital Ag 45   dz2 \
	OrthoOrbital Ag 45   dxz \
	OrthoOrbital Ag 45   dx2-y2 \
	OrthoOrbital Ag 46   s \
	OrthoOrbital Ag 46   p \
	OrthoOrbital Ag 46   px \
	OrthoOrbital Ag 46   py \
	OrthoOrbital Ag 46   pz \
	OrthoOrbital Ag 46   d \
	OrthoOrbital Ag 46   dxy \
	OrthoOrbital Ag 46   dyz \
	OrthoOrbital Ag 46   dz2 \
	OrthoOrbital Ag 46   dxz \
	OrthoOrbital Ag 46   dx2-y2 \
	OrthoOrbital Ag 47   s \
	OrthoOrbital Ag 47   p \
	OrthoOrbital Ag 47   px \
	OrthoOrbital Ag 47   py \
	OrthoOrbital Ag 47   pz \
	OrthoOrbital Ag 47   d \
	OrthoOrbital Ag 47   dxy \
	OrthoOrbital Ag 47   dyz \
	OrthoOrbital Ag 47   dz2 \
	OrthoOrbital Ag 47   dxz \
	OrthoOrbital Ag 47   dx2-y2 \
	OrthoOrbital Ag 48   s \
	OrthoOrbital Ag 48   p \
	OrthoOrbital Ag 48   px \
	OrthoOrbital Ag 48   py \
	OrthoOrbital Ag 48   pz \
	OrthoOrbital Ag 48   d \
	OrthoOrbital Ag 48   dxy \
	OrthoOrbital Ag 48   dyz \
	OrthoOrbital Ag 48   dz2 \
	OrthoOrbital Ag 48   dxz \
	OrthoOrbital Ag 48   dx2-y2 \
	OrthoOrbital Pt 1   s \
	OrthoOrbital Pt 1   p \
	OrthoOrbital Pt 1   px \
	OrthoOrbital Pt 1   py \
	OrthoOrbital Pt 1   pz \
	OrthoOrbital Pt 1   d \
	OrthoOrbital Pt 1   dxy \
	OrthoOrbital Pt 1   dyz \
	OrthoOrbital Pt 1   dz2 \
	OrthoOrbital Pt 1   dxz \
	OrthoOrbital Pt 1   dx2-y2 \
	OrthoOrbital Pt 2   s \
	OrthoOrbital Pt 2   p \
	OrthoOrbital Pt 2   px \
	OrthoOrbital Pt 2   py \
	OrthoOrbital Pt 2   pz \
	OrthoOrbital Pt 2   d \
	OrthoOrbital Pt 2   dxy \
	OrthoOrbital Pt 2   dyz \
	OrthoOrbital Pt 2   dz2 \
	OrthoOrbital Pt 2   dxz \
	OrthoOrbital Pt 2   dx2-y2 \
	OrthoOrbital Pt 3   s \
	OrthoOrbital Pt 3   p \
	OrthoOrbital Pt 3   px \
	OrthoOrbital Pt 3   py \
	OrthoOrbital Pt 3   pz \
	OrthoOrbital Pt 3   d \
	OrthoOrbital Pt 3   dxy \
	OrthoOrbital Pt 3   dyz \
	OrthoOrbital Pt 3   dz2 \
	OrthoOrbital Pt 3   dxz \
	OrthoOrbital Pt 3   dx2-y2 \
	OrthoOrbital Pt 4   s \
	OrthoOrbital Pt 4   p \
	OrthoOrbital Pt 4   px \
	OrthoOrbital Pt 4   py \
	OrthoOrbital Pt 4   pz \
	OrthoOrbital Pt 4   d \
	OrthoOrbital Pt 4   dxy \
	OrthoOrbital Pt 4   dyz \
	OrthoOrbital Pt 4   dz2 \
	OrthoOrbital Pt 4   dxz \
	OrthoOrbital Pt 4   dx2-y2 \
	OrthoOrbital Pt 5   s \
	OrthoOrbital Pt 5   p \
	OrthoOrbital Pt 5   px \
	OrthoOrbital Pt 5   py \
	OrthoOrbital Pt 5   pz \
	OrthoOrbital Pt 5   d \
	OrthoOrbital Pt 5   dxy \
	OrthoOrbital Pt 5   dyz \
	OrthoOrbital Pt 5   dz2 \
	OrthoOrbital Pt 5   dxz \
	OrthoOrbital Pt 5   dx2-y2 \
	OrthoOrbital Pt 6   s \
	OrthoOrbital Pt 6   p \
	OrthoOrbital Pt 6   px \
	OrthoOrbital Pt 6   py \
	OrthoOrbital Pt 6   pz \
	OrthoOrbital Pt 6   d \
	OrthoOrbital Pt 6   dxy \
	OrthoOrbital Pt 6   dyz \
	OrthoOrbital Pt 6   dz2 \
	OrthoOrbital Pt 6   dxz \
	OrthoOrbital Pt 6   dx2-y2 \
	OrthoOrbital Pt 7   s \
	OrthoOrbital Pt 7   p \
	OrthoOrbital Pt 7   px \
	OrthoOrbital Pt 7   py \
	OrthoOrbital Pt 7   pz \
	OrthoOrbital Pt 7   d \
	OrthoOrbital Pt 7   dxy \
	OrthoOrbital Pt 7   dyz \
	OrthoOrbital Pt 7   dz2 \
	OrthoOrbital Pt 7   dxz \
	OrthoOrbital Pt 7   dx2-y2 \
	OrthoOrbital Pt 8   s \
	OrthoOrbital Pt 8   p \
	OrthoOrbital Pt 8   px \
	OrthoOrbital Pt 8   py \
	OrthoOrbital Pt 8   pz \
	OrthoOrbital Pt 8   d \
	OrthoOrbital Pt 8   dxy \
	OrthoOrbital Pt 8   dyz \
	OrthoOrbital Pt 8   dz2 \
	OrthoOrbital Pt 8   dxz \
	OrthoOrbital Pt 8   dx2-y2 \
	OrthoOrbital Pt 9   s \
	OrthoOrbital Pt 9   p \
	OrthoOrbital Pt 9   px \
	OrthoOrbital Pt 9   py \
	OrthoOrbital Pt 9   pz \
	OrthoOrbital Pt 9   d \
	OrthoOrbital Pt 9   dxy \
	OrthoOrbital Pt 9   dyz \
	OrthoOrbital Pt 9   dz2 \
	OrthoOrbital Pt 9   dxz \
	OrthoOrbital Pt 9   dx2-y2 \
	OrthoOrbital Pt 10   s \
	OrthoOrbital Pt 10   p \
	OrthoOrbital Pt 10   px \
	OrthoOrbital Pt 10   py \
	OrthoOrbital Pt 10   pz \
	OrthoOrbital Pt 10   d \
	OrthoOrbital Pt 10   dxy \
	OrthoOrbital Pt 10   dyz \
	OrthoOrbital Pt 10   dz2 \
	OrthoOrbital Pt 10   dxz \
	OrthoOrbital Pt 10   dx2-y2 \
	OrthoOrbital Pt 11   s \
	OrthoOrbital Pt 11   p \
	OrthoOrbital Pt 11   px \
	OrthoOrbital Pt 11   py \
	OrthoOrbital Pt 11   pz \
	OrthoOrbital Pt 11   d \
	OrthoOrbital Pt 11   dxy \
	OrthoOrbital Pt 11   dyz \
	OrthoOrbital Pt 11   dz2 \
	OrthoOrbital Pt 11   dxz \
	OrthoOrbital Pt 11   dx2-y2 \
	OrthoOrbital Pt 12   s \
	OrthoOrbital Pt 12   p \
	OrthoOrbital Pt 12   px \
	OrthoOrbital Pt 12   py \
	OrthoOrbital Pt 12   pz \
	OrthoOrbital Pt 12   d \
	OrthoOrbital Pt 12   dxy \
	OrthoOrbital Pt 12   dyz \
	OrthoOrbital Pt 12   dz2 \
	OrthoOrbital Pt 12   dxz \
	OrthoOrbital Pt 12   dx2-y2 \
	OrthoOrbital Pt 13   s \
	OrthoOrbital Pt 13   p \
	OrthoOrbital Pt 13   px \
	OrthoOrbital Pt 13   py \
	OrthoOrbital Pt 13   pz \
	OrthoOrbital Pt 13   d \
	OrthoOrbital Pt 13   dxy \
	OrthoOrbital Pt 13   dyz \
	OrthoOrbital Pt 13   dz2 \
	OrthoOrbital Pt 13   dxz \
	OrthoOrbital Pt 13   dx2-y2 \
	OrthoOrbital Pt 14   s \
	OrthoOrbital Pt 14   p \
	OrthoOrbital Pt 14   px \
	OrthoOrbital Pt 14   py \
	OrthoOrbital Pt 14   pz \
	OrthoOrbital Pt 14   d \
	OrthoOrbital Pt 14   dxy \
	OrthoOrbital Pt 14   dyz \
	OrthoOrbital Pt 14   dz2 \
	OrthoOrbital Pt 14   dxz \
	OrthoOrbital Pt 14   dx2-y2 \
	OrthoOrbital Pt 15   s \
	OrthoOrbital Pt 15   p \
	OrthoOrbital Pt 15   px \
	OrthoOrbital Pt 15   py \
	OrthoOrbital Pt 15   pz \
	OrthoOrbital Pt 15   d \
	OrthoOrbital Pt 15   dxy \
	OrthoOrbital Pt 15   dyz \
	OrthoOrbital Pt 15   dz2 \
	OrthoOrbital Pt 15   dxz \
	OrthoOrbital Pt 15   dx2-y2 \
	OrthoOrbital Pt 16   s \
	OrthoOrbital Pt 16   p \
	OrthoOrbital Pt 16   px \
	OrthoOrbital Pt 16   py \
	OrthoOrbital Pt 16   pz \
	OrthoOrbital Pt 16   d \
	OrthoOrbital Pt 16   dxy \
	OrthoOrbital Pt 16   dyz \
	OrthoOrbital Pt 16   dz2 \
	OrthoOrbital Pt 16   dxz \
	OrthoOrbital Pt 16   dx2-y2 \
	OrthoOrbital C 1   s \
	OrthoOrbital C 1   p \
	OrthoOrbital C 1   px \
	OrthoOrbital C 1   py \
	OrthoOrbital C 1   pz \
	OrthoOrbital O 1   s \
	OrthoOrbital O 1   p \
	OrthoOrbital O 1   px \
	OrthoOrbital O 1   py \
	OrthoOrbital O 1   pz
dump End ElecDensity KEdensity BandEigs EigStats RhoAtom DOS Kpoints
dump Ionic State IonicPositions Lattice EigStats Ecomponents
dump 
dump 
dump 
dump 
dump 
dump 
dump 
dump 
dump-name jdft.$VAR
elec-cutoff 20
elec-eigen-algo Davidson
elec-ex-corr gga-PBE
elec-initial-magnetization 0.000000 no
elec-n-bands 707
elec-smearing Fermi 0.001
electronic-minimize  \
	dirUpdateScheme      FletcherReeves \
	linminMethod         DirUpdateRecommended \
	nIterations          100 \
	history              15 \
	knormThreshold       0 \
	energyDiffThreshold  1e-07 \
	nEnergyDiff          2 \
	alphaTstart          1 \
	alphaTmin            1e-10 \
	updateTestStepSize   yes \
	alphaTreduceFactor   0.1 \
	alphaTincreaseFactor 3 \
	nAlphaAdjustMax      3 \
	wolfeEnergy          0.0001 \
	wolfeGradient        0.9 \
	fdTest               no
exchange-regularization WignerSeitzTruncated
fluid LinearPCM 298.000000 1.013250
fluid-anion F- 0.5 MeanFieldLJ \
	epsBulk 1 \
	pMol 0 \
	epsInf 1 \
	Pvap 0 \
	sigmaBulk 0 \
	Rvdw 2.24877 \
	Res 0 \
	tauNuc 343133
fluid-cation Na+ 0.5 MeanFieldLJ \
	epsBulk 1 \
	pMol 0 \
	epsInf 1 \
	Pvap 0 \
	sigmaBulk 0 \
	Rvdw 2.19208 \
	Res 0 \
	tauNuc 343133
fluid-ex-corr lda-TF lda-PZ
fluid-gummel-loop 10 1.000000e-05
fluid-minimize  \
	dirUpdateScheme      PolakRibiere \
	linminMethod         DirUpdateRecommended \
	nIterations          400 \
	history              15 \
	knormThreshold       1e-11 \
	energyDiffThreshold  0 \
	nEnergyDiff          2 \
	alphaTstart          1 \
	alphaTmin            1e-10 \
	updateTestStepSize   yes \
	alphaTreduceFactor   0.1 \
	alphaTincreaseFactor 3 \
	nAlphaAdjustMax      6 \
	wolfeEnergy          0.0001 \
	wolfeGradient        0.9 \
	fdTest               no
fluid-solvent H2O 55.338 ScalarEOS \
	epsBulk 78.4 \
	pMol 0.92466 \
	epsInf 1.77 \
	Pvap 1.06736e-10 \
	sigmaBulk 4.62e-05 \
	Rvdw 2.61727 \
	Res 1.42 \
	tauNuc 343133 \
	poleEl 15 7 1
forces-output-coords Positions
initial-state jdft.$VAR
ion Ag   3.787148999999999   2.725241287878786   1.237413000000000 0
ion Ag   3.787148999999999  13.436915787878785   1.237413000000000 0
ion Ag  11.361447000000000   2.725241287878786   1.237413000000000 0
ion Ag  11.361447000000000  13.436915787878785   1.237413000000000 0
ion Ag   3.787148999999999   8.038574787878785   6.660413000000000 0
ion Ag   3.787148999999999  18.750227787878785   6.660413000000000 0
ion Ag  11.361447000000000   8.038574787878785   6.660413000000000 0
ion Ag  11.361447000000000  18.750227787878785   6.660413000000000 0
ion Ag   0.000000000000000   5.355835787878784   9.413526999999998 0
ion Ag   0.000000000000000  16.067510287878783   9.413526999999998 0
ion Ag   7.574297999999998   5.355835787878784   9.413526999999998 0
ion Ag   7.574297999999998  16.067510287878783   9.413526999999998 0
ion Ag   0.000000000000000  -0.000001212121213   3.864076000000000 0
ion Ag   0.000000000000000  10.711672787878783   3.864076000000000 0
ion Ag   7.574297999999998  -0.000001212121213   3.864076000000000 0
ion Ag   7.574297999999998  10.711672787878783   3.864076000000000 0
ion Ag   3.787148999999999   7.986430287878783   1.237413000000000 0
ion Ag   3.787148999999999  18.698104787878783   1.237413000000000 0
ion Ag  11.361447000000000   7.986430287878783   1.237413000000000 0
ion Ag  11.361447000000000  18.698104787878783   1.237413000000000 0
ion Ag   3.787148999999999   2.673096787878785   6.660413000000000 0
ion Ag   3.787148999999999  13.384792787878785   6.660413000000000 0
ion Ag  11.361447000000000   2.673096787878785   6.660413000000000 0
ion Ag  11.361447000000000  13.384792787878785   6.660413000000000 0
ion Ag   3.787148999999999   2.682694787878785  12.076021000000001 0
ion Ag   3.787148999999999  13.394368787878786  12.076021000000001 0
ion Ag  11.361447000000000   2.682694787878785  12.076021000000001 0
ion Ag  11.361447000000000  13.394368787878786  12.076021000000001 0
ion Ag   3.787148999999999   8.000323287878782  17.563452000000002 0
ion Ag   3.787148999999999  18.711997787878783  17.563452000000002 0
ion Ag  11.361447000000000   8.000323287878782  17.563452000000002 0
ion Ag  11.361447000000000  18.711997787878783  17.563452000000002 0
ion Ag   0.000000000000000   5.355835787878784  20.280093000000001 0
ion Ag   0.000000000000000  16.067510287878783  20.280093000000001 0
ion Ag   7.574297999999998   5.355835787878784  20.280093000000001 0
ion Ag   7.574297999999998  16.067510287878783  20.280093000000001 0
ion Ag   0.000000000000000  -0.000001212121213  14.712647000000000 0
ion Ag   0.000000000000000  10.711672787878783  14.712647000000000 0
ion Ag   7.574297999999998  -0.000001212121213  14.712647000000000 0
ion Ag   7.574297999999998  10.711672787878783  14.712647000000000 0
ion Ag   3.787148999999999   8.028976787878783  12.076021000000001 0
ion Ag   3.787148999999999  18.740651787878782  12.076021000000001 0
ion Ag  11.361447000000000   8.028976787878783  12.076021000000001 0
ion Ag  11.361447000000000  18.740651787878782  12.076021000000001 0
ion Ag   3.787148999999999   2.711348287878785  17.563452000000002 0
ion Ag   3.787148999999999  13.423022787878782  17.563452000000002 0
ion Ag  11.361447000000000   2.711348287878785  17.563452000000002 0
ion Ag  11.361447000000000  13.423022787878782  17.563452000000002 0
ion Pt   0.000000000000000   5.355835787878784   3.956249999999998 0
ion Pt   0.000000000000000  16.067510287878783   3.956249999999998 0
ion Pt   7.574297999999998   5.355835787878784   3.956249999999998 0
ion Pt   7.574297999999998  16.067510287878783   3.956249999999998 0
ion Pt   0.000000000000000  -0.000001212121213   9.374912000000000 0
ion Pt   0.000000000000000  10.711672787878783   9.374912000000000 0
ion Pt   7.574297999999998  -0.000001212121213   9.374912000000000 0
ion Pt   7.574297999999998  10.711672787878783   9.374912000000000 0
ion Pt   0.000000000000000   5.355835787878784  14.805410000000000 0
ion Pt   0.000000000000000  16.067510287878783  14.805410000000000 0
ion Pt   7.574297999999998   5.355835787878784  14.805410000000000 0
ion Pt   7.574297999999998  16.067510287878783  14.805410000000000 0
ion Pt   0.000000000000000  -0.000001212121213  19.905184999999999 0
ion Pt   0.000000000000000  10.711672787878783  19.905184999999999 0
ion Pt   7.574297999999998  -0.000001212121213  19.905184999999999 0
ion Pt   7.574297999999998  10.711672787878783  19.905184999999999 0
ion C   3.787148999999999   5.355835787878784  20.268479510207353 1  Linear 0 0 1
ion O   3.847243999999999   5.355835787878784  22.605121932920955 1  Linear 0 0 1
ion-species /projects/musgravc/apps/jdftx-1.6.0/build/pseudopotentials/GBRV_v1.5/$ID_pbe_v1.uspp
ion-species /projects/musgravc/apps/jdftx-1.6.0/build/pseudopotentials/GBRV_v1.5/$ID_pbe_v1.2.uspp
ion-species /projects/musgravc/apps/jdftx-1.6.0/build/pseudopotentials/GBRV_v1.5/$ID_pbe_v1.4.uspp
ion-species /projects/musgravc/apps/jdftx-1.6.0/build/pseudopotentials/GBRV_v1.5/$ID_pbe_v1.5.uspp
ion-width Ecut
ionic-minimize  \
	dirUpdateScheme      L-BFGS \
	linminMethod         DirUpdateRecommended \
	nIterations          100 \
	history              15 \
	knormThreshold       0.0001 \
	energyDiffThreshold  1e-06 \
	nEnergyDiff          2 \
	alphaTstart          1 \
	alphaTmin            1e-10 \
	updateTestStepSize   yes \
	alphaTreduceFactor   0.1 \
	alphaTincreaseFactor 3 \
	nAlphaAdjustMax      3 \
	wolfeEnergy          0.0001 \
	wolfeGradient        0.9 \
	fdTest               no
kpoint   0.000000000000   0.000000000000   0.000000000000  1.00000000000000
kpoint-folding 4 3 1 
latt-move-scale 0 0 0
latt-scale 1 1 1 
lattice  \
	  15.148596000000000    0.000000000000000    0.000000000000000  \
	   0.000000000000000   21.423349000000002    0.000000000000000  \
	   0.000000000000000    0.000000000000000   53.558376000000003 
lattice-minimize  \
	dirUpdateScheme      L-BFGS \
	linminMethod         DirUpdateRecommended \
	nIterations          0 \
	history              15 \
	knormThreshold       0 \
	energyDiffThreshold  1e-06 \
	nEnergyDiff          2 \
	alphaTstart          1 \
	alphaTmin            1e-10 \
	updateTestStepSize   yes \
	alphaTreduceFactor   0.1 \
	alphaTincreaseFactor 3 \
	nAlphaAdjustMax      3 \
	wolfeEnergy          0.0001 \
	wolfeGradient        0.9 \
	fdTest               no
lcao-params 30 1e-06 0.001
pcm-variant CANDLE
spintype z-spin
subspace-rotation-factor 1 yes
symmetries automatic
symmetry-threshold 0.0001
van-der-waals D3



---------- Setting up symmetries ----------

Found 8 point-group symmetries of the bravais lattice
Found 2 space-group symmetries with basis
Applied RMS atom displacement 1.19419e-15 bohrs to make symmetries exact.

---------- Initializing the Grid ----------
R = 
[      15.1486            0            0  ]
[            0      21.4233            0  ]
[            0            0      53.5584  ]
unit cell volume = 17381.5
G =
[    0.41477          0          0  ]
[          0   0.293287          0  ]
[          0          0   0.117315  ]
Minimum fftbox size, Smin = [  64  88  216  ]
Chosen fftbox size, S = [  64  90  216  ]

---------- Exchange Correlation functional ----------
Initalized PBE GGA exchange.
Initalized PBE GGA correlation.

---------- Setting up pseudopotentials ----------
Width of ionic core gaussian charges (only for fluid interactions / plotting) set to 0.397384

Reading pseudopotential file '/projects/musgravc/apps/jdftx-1.6.0/build/pseudopotentials/GBRV_v1.5/ag_pbe_v1.4.uspp':
  Title: Ag.  Created by USPP 7.3.6 on 1-4-15
  Reference state energy: -147.606242.  19 valence electrons in orbitals:
    |400>  occupation: 2  eigenvalue: -3.637437
    |410>  occupation: 6  eigenvalue: -2.297267
    |420>  occupation: 10  eigenvalue: -0.417763
    |500>  occupation: 0.5  eigenvalue: -0.283525
    |510>  occupation: 0  eigenvalue: -0.122889
  lMax: 2  lLocal: 0  QijEcut: 5.5
  6 projectors sampled on a log grid with 717 points:
    l: 0  eig: -0.283528  rCut: 1.5
    l: 0  eig: -3.637440  rCut: 1.5
    l: 1  eig: -0.122892  rCut: 1.5
    l: 1  eig: -2.297267  rCut: 1.5
    l: 2  eig: -0.417762  rCut: 1.7
    l: 2  eig: -1.000000  rCut: 1.7
  Partial core density with radius 1.2
  Transforming core density to a uniform radial grid of dG=0.02 with 1136 points.
  Transforming local potential to a uniform radial grid of dG=0.02 with 1136 points.
  Transforming nonlocal projectors to a uniform radial grid of dG=0.02 with 432 points.
  Transforming density augmentations to a uniform radial grid of dG=0.02 with 1136 points.
  Transforming atomic orbitals to a uniform radial grid of dG=0.02 with 432 points.
  Core radius for overlap checks: 1.70 bohrs.

Reading pseudopotential file '/projects/musgravc/apps/jdftx-1.6.0/build/pseudopotentials/GBRV_v1.5/pt_pbe_v1.4.uspp':
  Title: Pt.  Created by USPP 7.3.6 on 31-3-15
  Reference state energy: -105.002503.  16 valence electrons in orbitals:
    |510>  occupation: 6  eigenvalue: -2.158104
    |520>  occupation: 9.5  eigenvalue: -0.335376
    |600>  occupation: 0  eigenvalue: -0.319640
    |610>  occupation: 0  eigenvalue: -0.122947
  lMax: 2  lLocal: 3  QijEcut: 5.5
  6 projectors sampled on a log grid with 745 points:
    l: 0  eig: -0.319640  rCut: 2.45
    l: 0  eig: 1.500000  rCut: 2.45
    l: 1  eig: -2.158104  rCut: 1.6
    l: 1  eig: -0.122947  rCut: 1.6
    l: 2  eig: -0.500000  rCut: 1.6
    l: 2  eig: -0.335375  rCut: 1.6
  Partial core density with radius 1.1
  Transforming core density to a uniform radial grid of dG=0.02 with 1136 points.
  Transforming local potential to a uniform radial grid of dG=0.02 with 1136 points.
  Transforming nonlocal projectors to a uniform radial grid of dG=0.02 with 432 points.
  Transforming density augmentations to a uniform radial grid of dG=0.02 with 1136 points.
  Transforming atomic orbitals to a uniform radial grid of dG=0.02 with 432 points.
  Core radius for overlap checks: 2.45 bohrs.

Reading pseudopotential file '/projects/musgravc/apps/jdftx-1.6.0/build/pseudopotentials/GBRV_v1.5/c_pbe_v1.2.uspp':
  Title: C.  Created by USPP 7.3.6 on 3-2-2014
  Reference state energy: -5.406344.  4 valence electrons in orbitals:
    |200>  occupation: 2  eigenvalue: -0.504890
    |210>  occupation: 2  eigenvalue: -0.194356
  lMax: 1  lLocal: 2  QijEcut: 5
  4 projectors sampled on a log grid with 503 points:
    l: 0  eig: -0.504890  rCut: 1.3
    l: 0  eig: 0.000000  rCut: 1.3
    l: 1  eig: -0.194357  rCut: 1.3
    l: 1  eig: 0.000000  rCut: 1.3
  Partial core density with radius 1.1
  Transforming core density to a uniform radial grid of dG=0.02 with 1136 points.
  Transforming local potential to a uniform radial grid of dG=0.02 with 1136 points.
  Transforming nonlocal projectors to a uniform radial grid of dG=0.02 with 432 points.
  Transforming density augmentations to a uniform radial grid of dG=0.02 with 1136 points.
  Transforming atomic orbitals to a uniform radial grid of dG=0.02 with 432 points.
  Core radius for overlap checks: 1.30 bohrs.

Reading pseudopotential file '/projects/musgravc/apps/jdftx-1.6.0/build/pseudopotentials/GBRV_v1.5/o_pbe_v1.2.uspp':
  Title: O.  Created by USPP 7.3.6 on 3-2-2014
  Reference state energy: -15.894388.  6 valence electrons in orbitals:
    |200>  occupation: 2  eigenvalue: -0.878823
    |210>  occupation: 4  eigenvalue: -0.332131
  lMax: 2  lLocal: 2  QijEcut: 6
  5 projectors sampled on a log grid with 511 points:
    l: 0  eig: -0.878823  rCut: 1.25
    l: 0  eig: 0.000000  rCut: 1.25
    l: 1  eig: -0.332132  rCut: 1.25
    l: 1  eig: 0.000000  rCut: 1.25
    l: 2  eig: 1.000000  rCut: 1.25
  Partial core density with radius 0.7
  Transforming core density to a uniform radial grid of dG=0.02 with 1136 points.
  Transforming local potential to a uniform radial grid of dG=0.02 with 1136 points.
  Transforming nonlocal projectors to a uniform radial grid of dG=0.02 with 432 points.
  Transforming density augmentations to a uniform radial grid of dG=0.02 with 1136 points.
  Transforming atomic orbitals to a uniform radial grid of dG=0.02 with 432 points.
  Core radius for overlap checks: 1.25 bohrs.

Initialized 4 species with 66 total atoms.

Folded 1 k-points by 4x3x1 to 12 k-points.

---------- Setting up k-points, bands, fillings ----------
Adding inversion symmetry to k-mesh for non-inversion-symmetric unit cell.
Reduced to 6 k-points under symmetry. 
Computing the number of bands and number of electrons
Reading initial fillings from file jdft.fillings.
nElectrons: 1178.000000   nBands: 707   nStates: 12

----- Setting up reduced wavefunction bases (one per k-point) -----
average nbasis = 74243.917 , ideal nbasis = 74255.074

----- Initializing Supercell corresponding to k-point mesh -----
Lattice vector linear combinations in supercell:
[   4   0   0  ]
[   0   3   0  ]
[   0   0   1  ]
Supercell lattice vectors:
[  60.5944  0  0  ]
[  0  64.27  0  ]
[  0  0  53.5584  ]

Initializing DFT-D3 calculator:
	Parameters set for gga-PBE functional
	s6:  1.000  s_r6:  1.217
	s8:  0.722  s_r8:  1.000
	Per-atom parameters loaded for:
	Ag:  sqrtQ[a0]:  5.443  Rcov[a0]:  2.173  CN: [ 0.00 0.97 ]
	Pt:  sqrtQ[a0]:  5.888  Rcov[a0]:  2.116  CN: [ 0.00 1.92 6.67 ]
	 C:  sqrtQ[a0]:  3.105  Rcov[a0]:  1.417  CN: [ 0.00 0.99 2.00 3.00 3.98 ]
	 O:  sqrtQ[a0]:  2.594  Rcov[a0]:  1.191  CN: [ 0.00 0.99 1.99 ]

Initializing DFT-D2 calculator for fluid / solvation:
	Ag:  C6:  427.91 Eh-a0^6  R0: 3.097 a0
	Pt:  C6:  815.23 Eh-a0^6  R0: 3.326 a0 (WARNING: beyond Grimme's data set)
	 C:  C6:   30.35 Eh-a0^6  R0: 2.744 a0
	 O:  C6:   12.14 Eh-a0^6  R0: 2.536 a0

---------- Setting up ewald sum ----------
Optimum gaussian width for ewald sums = 5.140616 bohr.
Real space sum over 495 unit cells with max indices [  5  4  2  ]
Reciprocal space sum over 7735 terms with max indices [  6  8  17  ]

Computing DFT-D3 correction:
# coordination-number Ag 5.530 5.530 5.530 5.530 9.271 9.271 9.271 9.271 9.346 9.346 9.346 9.346 8.458 8.458 8.458 8.458 5.530 5.530 5.530 5.530 9.271 9.271 9.271 9.271 9.372 9.372 9.372 9.371 9.588 8.570 8.572 8.569 6.900 5.424 6.993 5.424 9.385 9.385 9.385 9.385 9.372 9.372 9.372 9.371 9.588 8.570 8.572 8.569
# coordination-number Pt 8.246 8.246 8.246 8.246 8.973 8.973 8.973 8.973 8.935 8.926 8.935 8.926 5.756 5.756 5.756 5.756
# coordination-number C 5.020
# coordination-number O 2.154
# diagonal-C6 Ag 268.61 268.61 268.61 268.61 268.61 268.61 268.61 268.61 268.61 268.61 268.61 268.61 268.61 268.61 268.61 268.61 268.61 268.61 268.61 268.61 268.61 268.61 268.61 268.61 268.61 268.61 268.61 268.61 268.61 268.61 268.61 268.61 268.61 268.61 268.61 268.61 268.61 268.61 268.61 268.61 268.61 268.61 268.61 268.61 268.61 268.61 268.61 268.61
# diagonal-C6 Pt 336.87 336.87 336.87 336.87 336.87 336.87 336.87 336.87 336.87 336.87 336.87 336.87 336.87 336.87 336.87 336.87
# diagonal-C6 C 18.21
# diagonal-C6 O 10.38
EvdW_6 =   -0.427097
EvdW_8 =   -0.617829

---------- Allocating electronic variables ----------
Initializing wave functions:  reading from 'jdft.wfns'
----- createFluidSolver() ----- (Fluid-side solver setup)
   Initializing fluid molecule 'H2O'
     Initializing site 'O'
       Electron density: proportional to exp(-r/0.36935)*erfc((r-0.51523)/0.36823) with norm 6.826
       Charge density: gaussian nuclear width 0.478731 with net site charge 0.826
       Polarizability: cuspless exponential with width 0.32 and norm 3.73
       Hard sphere radius: 2.57003 bohrs
       Positions in reference frame:
         [ +0.000000 +0.000000 +0.000000 ]
     Initializing site 'H'
       Electron density: proportional to exp(-r/0.34641)*erfc((r-0)/0.390882) with norm 0.587
       Charge density: gaussian nuclear width 0.377945 with net site charge -0.413
       Polarizability: cuspless exponential with width 0.39 and norm 3.3
       Positions in reference frame:
         [ +0.000000 -1.441945 +1.122523 ]
         [ +0.000000 +1.441945 +1.122523 ]
     Net charge: 0   dipole magnitude: 0.927204
     Initializing spherical shell mfKernel with radius 2.61727 Bohr
     deltaS corrections:
       site 'O': -7.54299
       site 'H': -6.83917
   Initializing fluid molecule 'Na+'
     Initializing site 'Na'
       Electron density: proportional to exp(-r/0.19682)*erfc((r-0.71491)/0.41314) with norm 8.1383
       Charge density: gaussian nuclear width 0.365347 with net site charge -1
       Hard sphere radius: 1.86327 bohrs
       Positions in reference frame:
         [ +0.000000 +0.000000 +0.000000 ]
     Net charge: -1   dipole magnitude: 0
     Initializing gaussian mfKernel with width: 1.55004 Bohr
     deltaS corrections:
       site 'Na': -22.3555
   Initializing fluid molecule 'F-'
     Initializing site 'F'
       Electron density: proportional to exp(-r/0.38886)*erfc((r-0)/0.438782) with norm 8
       Charge density: gaussian nuclear width 0.374796 with net site charge 1
       Hard sphere radius: 2.39995 bohrs
       Positions in reference frame:
         [ +0.000000 +0.000000 +0.000000 ]
     Net charge: 1   dipole magnitude: 0
     Initializing gaussian mfKernel with width: 1.59012 Bohr
     deltaS corrections:
       site 'F': -9.04335

Correction to mu due to finite nuclear width = -0.0672447
   Cavity determined by nc: 0.00142 and sigma: 0.707107
   Nonlocal vdW cavity from gaussian model electron density with norm = 8 and sigma = 0.993594 bohr
   Charge asymmetry in cavity with sensitivity pCavity = 36.5 e-bohr/Eh
   Electrostatic cavity expanded by eta = 1.46 bohrs
   Weighted density cavitation model constrained by Nbulk: 0.0049383 bohr^-3, Pvap: 3.14029 kPa, Rvdw: 2.61727 bohr and sigmaBulk: 4.62e-05 Eh/bohr^2 at T: 298 K.
   Weighted density dispersion model using vdW pair potentials with single solvent site with sqrtC6eff: 0.77 SI.
Reading fluid state from 'jdft.fluidState'


---- Citations for features of the code used in this run ----

   Software package:
      R. Sundararaman, K. Letchworth-Weaver, K.A. Schwarz, D. Gunceler, Y. Ozhabes and T.A. Arias, 'JDFTx: software for joint density-functional theory', SoftwareX 6, 278 (2017)

   gga-PBE exchange-correlation functional:
      J.P. Perdew, K. Burke and M. Ernzerhof, Phys. Rev. Lett. 77, 3865 (1996)

   Pseudopotentials:
      KF Garrity, JW Bennett, KM Rabe and D Vanderbilt, Comput. Mater. Sci. 81, 446 (2014)

   DFT-D3 dispersion correction:
      S. Grimme, J. Antony, S. Ehrlich and H. Krieg, J. Chem. Phys. 132, 154104 (2010)

   DFT-D2 dispersion correction:
      S. Grimme, J. Comput. Chem. 27, 1787 (2006)

   Charge-asymmetric nonlocally-determined local-electric (CANDLE) solvation model:
      R. Sundararaman and W.A. Goddard III, J. Chem. Phys. 142, 064107 (2015)

   Total energy minimization with Auxiliary Hamiltonian:
      C. Freysoldt, S. Boeck, and J. Neugebauer, Phys. Rev. B 79, 241103(R) (2009)

   Linear-tetrahedron sampling for density of states:
      G. Lehmann and M. Taut, Phys. status solidi (b) 54, 469 (1972)

This list may not be complete. Please suggest additional citations or
report any other bugs at https://github.com/shankar1729/jdftx/issues

Initialization completed successfully at t[s]:     72.81


Computing DFT-D3 correction:
# coordination-number Ag 5.530 5.530 5.530 5.530 9.271 9.271 9.271 9.271 9.346 9.346 9.346 9.346 8.458 8.458 8.458 8.458 5.530 5.530 5.530 5.530 9.271 9.271 9.271 9.271 9.372 9.372 9.372 9.371 9.588 8.570 8.572 8.569 6.900 5.424 6.993 5.424 9.385 9.385 9.385 9.385 9.372 9.372 9.372 9.371 9.588 8.570 8.572 8.569
# coordination-number Pt 8.246 8.246 8.246 8.246 8.973 8.973 8.973 8.973 8.935 8.926 8.935 8.926 5.756 5.756 5.756 5.756
# coordination-number C 5.020
# coordination-number O 2.154
# diagonal-C6 Ag 268.61 268.61 268.61 268.61 268.61 268.61 268.61 268.61 268.61 268.61 268.61 268.61 268.61 268.61 268.61 268.61 268.61 268.61 268.61 268.61 268.61 268.61 268.61 268.61 268.61 268.61 268.61 268.61 268.61 268.61 268.61 268.61 268.61 268.61 268.61 268.61 268.61 268.61 268.61 268.61 268.61 268.61 268.61 268.61 268.61 268.61 268.61 268.61
# diagonal-C6 Pt 336.87 336.87 336.87 336.87 336.87 336.87 336.87 336.87 336.87 336.87 336.87 336.87 336.87 336.87 336.87 336.87
# diagonal-C6 C 18.21
# diagonal-C6 O 10.38
EvdW_6 =   -0.427097
EvdW_8 =   -0.617829

-------- Electronic minimization -----------
	Linear fluid (dielectric constant: 78.4, screening length: 8.12261 Bohr) occupying 0.439813 of unit cell:	Completed after 3 iterations at t[s]:    101.71
	FillingsUpdate:  mu: -0.155409217  nElectrons: 1178.000000  magneticMoment: [ Abs: 0.00000  Tot: +0.00000 ]
ElecMinimize: Iter:   0  F: -8530.401133295277759  |grad|_K:  9.265e-08  alpha:  1.000e+00
	Linear fluid (dielectric constant: 78.4, screening length: 8.12261 Bohr) occupying 0.439834 of unit cell:	Completed after 11 iterations at t[s]:    393.11
	Linear fluid (dielectric constant: 78.4, screening length: 8.12261 Bohr) occupying 0.439815 of unit cell:	Completed after 11 iterations at t[s]:    488.52
	FillingsUpdate:  mu: -0.155308229  nElectrons: 1178.000000  magneticMoment: [ Abs: 0.00000  Tot: +0.00000 ]
	SubspaceRotationAdjust: set factor to 0.712
ElecMinimize: Iter:   1  F: -8530.401133683901207  |grad|_K:  8.343e-09  alpha:  6.529e-02  linmin: -3.427e-03  t[s]:    630.93
	Linear fluid (dielectric constant: 78.4, screening length: 8.12261 Bohr) occupying 0.439815 of unit cell:	Completed after 1 iterations at t[s]:    770.53
	Linear fluid (dielectric constant: 78.4, screening length: 8.12261 Bohr) occupying 0.439815 of unit cell:	Completed after 0 iterations at t[s]:    862.93
ElecMinimize: 	Step increased F by 3.818059e-09, reducing alpha to 2.521049e-03.
	Linear fluid (dielectric constant: 78.4, screening length: 8.12261 Bohr) occupying 0.439815 of unit cell:	Completed after 0 iterations at t[s]:   1077.80
ElecMinimize: 	Step increased F by 4.887625e-09, reducing alpha to 2.521049e-04.
	Linear fluid (dielectric constant: 78.4, screening length: 8.12261 Bohr) occupying 0.439815 of unit cell:	Completed after 0 iterations at t[s]:   1294.63
ElecMinimize: 	Step increased F by 5.687980e-09, reducing alpha to 2.521049e-05.
ElecMinimize: 	Step failed to reduce F after 3 attempts. Quitting step.
ElecMinimize: 	Undoing step.
	Linear fluid (dielectric constant: 78.4, screening length: 8.12261 Bohr) occupying 0.439815 of unit cell:	Completed after 0 iterations at t[s]:   1510.32
ElecMinimize: 	Step failed: resetting search direction.
	FillingsUpdate:  mu: -0.155310755  nElectrons: 1178.000000  magneticMoment: [ Abs: 0.00000  Tot: +0.00000 ]
	SubspaceRotationAdjust: set factor to 0.646
ElecMinimize: Iter:   2  F: -8530.401133678473343  |grad|_K:  5.297e-09  alpha:  2.521e-05
	Linear fluid (dielectric constant: 78.4, screening length: 8.12261 Bohr) occupying 0.439815 of unit cell:	Completed after 0 iterations at t[s]:   1776.35
ElecMinimize: 	Wrong curvature in test step, increasing alphaT to 1.958561e-01.
	Linear fluid (dielectric constant: 78.4, screening length: 8.12261 Bohr) occupying 0.439815 of unit cell:	Completed after 0 iterations at t[s]:   1808.04
	FillingsUpdate:  mu: -0.155310734  nElectrons: 1178.000000  magneticMoment: [ Abs: 0.00000  Tot: +0.00000 ]
	SubspaceRotationAdjust: set factor to 0.582
ElecMinimize: Iter:   3  F: -8530.401133681089050  |grad|_K:  4.862e-09  alpha: -2.553e-01  linmin: -6.815e-03  t[s]:   1938.09
	Linear fluid (dielectric constant: 78.4, screening length: 8.12261 Bohr) occupying 0.439813 of unit cell:	Completed after 2 iterations at t[s]:   2076.96
	Linear fluid (dielectric constant: 78.4, screening length: 8.12261 Bohr) occupying 0.439815 of unit cell:	Completed after 2 iterations at t[s]:   2170.28
	FillingsUpdate:  mu: -0.155299156  nElectrons: 1178.000000  magneticMoment: [ Abs: 0.00000  Tot: +0.00000 ]
	SubspaceRotationAdjust: set factor to 0.367
ElecMinimize: Iter:   4  F: -8530.401133684606975  |grad|_K:  5.074e-09  alpha:  1.068e-01  linmin:  2.138e-03  t[s]:   2299.78
ElecMinimize: Converged (|Delta F|<1.000000e-07 for 2 iters).
Setting wave functions to eigenvectors of Hamiltonian
Converging empty states (this may take a while): |deigs|: 4.084e-09

Computing DFT-D3 correction:
# coordination-number Ag 5.530 5.530 5.530 5.530 9.271 9.271 9.271 9.271 9.346 9.346 9.346 9.346 8.458 8.458 8.458 8.458 5.530 5.530 5.530 5.530 9.271 9.271 9.271 9.271 9.372 9.372 9.372 9.371 9.588 8.570 8.572 8.569 6.900 5.424 6.993 5.424 9.385 9.385 9.385 9.385 9.372 9.372 9.372 9.371 9.588 8.570 8.572 8.569
# coordination-number Pt 8.246 8.246 8.246 8.246 8.973 8.973 8.973 8.973 8.935 8.926 8.935 8.926 5.756 5.756 5.756 5.756
# coordination-number C 5.020
# coordination-number O 2.154
# diagonal-C6 Ag 268.61 268.61 268.61 268.61 268.61 268.61 268.61 268.61 268.61 268.61 268.61 268.61 268.61 268.61 268.61 268.61 268.61 268.61 268.61 268.61 268.61 268.61 268.61 268.61 268.61 268.61 268.61 268.61 268.61 268.61 268.61 268.61 268.61 268.61 268.61 268.61 268.61 268.61 268.61 268.61 268.61 268.61 268.61 268.61 268.61 268.61 268.61 268.61
# diagonal-C6 Pt 336.87 336.87 336.87 336.87 336.87 336.87 336.87 336.87 336.87 336.87 336.87 336.87 336.87 336.87 336.87 336.87
# diagonal-C6 C 18.21
# diagonal-C6 O 10.38
EvdW_6 =   -0.427097
EvdW_8 =   -0.617829

# Ionic positions in cartesian coordinates:
ion Ag   3.787148999999999   2.725241287878785   1.237413000000000 0
ion Ag   3.787148999999999  13.436915787878785   1.237413000000000 0
ion Ag  11.361447000000000   2.725241287878785   1.237413000000000 0
ion Ag  11.361447000000000  13.436915787878785   1.237413000000000 0
ion Ag   3.787148999999999   8.038574787878783   6.660413000000000 0
ion Ag   3.787148999999999  18.750227787878785   6.660413000000000 0
ion Ag  11.361447000000000   8.038574787878783   6.660413000000000 0
ion Ag  11.361447000000000  18.750227787878785   6.660413000000000 0
ion Ag   0.000000000000000   5.355835787878783   9.413526999999998 0
ion Ag   0.000000000000000  16.067510287878786   9.413526999999998 0
ion Ag   7.574297999999998   5.355835787878783   9.413526999999998 0
ion Ag   7.574297999999998  16.067510287878786   9.413526999999998 0
ion Ag   0.000000000000000  -0.000001212121214   3.864076000000000 0
ion Ag   0.000000000000000  10.711672787878783   3.864076000000000 0
ion Ag   7.574297999999998  -0.000001212121214   3.864076000000000 0
ion Ag   7.574297999999998  10.711672787878783   3.864076000000000 0
ion Ag   3.787148999999999   7.986430287878782   1.237413000000000 0
ion Ag   3.787148999999999  18.698104787878783   1.237413000000000 0
ion Ag  11.361447000000000   7.986430287878782   1.237413000000000 0
ion Ag  11.361447000000000  18.698104787878783   1.237413000000000 0
ion Ag   3.787148999999999   2.673096787878784   6.660413000000000 0
ion Ag   3.787148999999999  13.384792787878785   6.660413000000000 0
ion Ag  11.361447000000000   2.673096787878784   6.660413000000000 0
ion Ag  11.361447000000000  13.384792787878785   6.660413000000000 0
ion Ag   3.787148999999999   2.682694787878785  12.076021000000001 0
ion Ag   3.787148999999999  13.394368787878786  12.076021000000001 0
ion Ag  11.361447000000000   2.682694787878785  12.076021000000001 0
ion Ag  11.361447000000000  13.394368787878786  12.076021000000001 0
ion Ag   3.787148999999999   8.000323287878784  17.563452000000002 0
ion Ag   3.787148999999999  18.711997787878786  17.563452000000002 0
ion Ag  11.361447000000000   8.000323287878784  17.563452000000002 0
ion Ag  11.361447000000000  18.711997787878786  17.563452000000002 0
ion Ag   0.000000000000000   5.355835787878783  20.280093000000001 0
ion Ag   0.000000000000000  16.067510287878786  20.280093000000001 0
ion Ag   7.574297999999998   5.355835787878783  20.280093000000001 0
ion Ag   7.574297999999998  16.067510287878786  20.280093000000001 0
ion Ag   0.000000000000000  -0.000001212121214  14.712647000000000 0
ion Ag   0.000000000000000  10.711672787878783  14.712647000000000 0
ion Ag   7.574297999999998  -0.000001212121214  14.712647000000000 0
ion Ag   7.574297999999998  10.711672787878783  14.712647000000000 0
ion Ag   3.787148999999999   8.028976787878783  12.076021000000001 0
ion Ag   3.787148999999999  18.740651787878782  12.076021000000001 0
ion Ag  11.361447000000000   8.028976787878783  12.076021000000001 0
ion Ag  11.361447000000000  18.740651787878782  12.076021000000001 0
ion Ag   3.787148999999999   2.711348287878786  17.563452000000002 0
ion Ag   3.787148999999999  13.423022787878784  17.563452000000002 0
ion Ag  11.361447000000000   2.711348287878786  17.563452000000002 0
ion Ag  11.361447000000000  13.423022787878784  17.563452000000002 0
ion Pt   0.000000000000000   5.355835787878783   3.956249999999998 0
ion Pt   0.000000000000000  16.067510287878786   3.956249999999998 0
ion Pt   7.574297999999998   5.355835787878783   3.956249999999998 0
ion Pt   7.574297999999998  16.067510287878786   3.956249999999998 0
ion Pt   0.000000000000000  -0.000001212121214   9.374912000000000 0
ion Pt   0.000000000000000  10.711672787878783   9.374912000000000 0
ion Pt   7.574297999999998  -0.000001212121214   9.374912000000000 0
ion Pt   7.574297999999998  10.711672787878783   9.374912000000000 0
ion Pt   0.000000000000000   5.355835787878783  14.805410000000000 0
ion Pt   0.000000000000000  16.067510287878786  14.805410000000000 0
ion Pt   7.574297999999998   5.355835787878783  14.805410000000000 0
ion Pt   7.574297999999998  16.067510287878786  14.805410000000000 0
ion Pt   0.000000000000000  -0.000001212121214  19.905184999999999 0
ion Pt   0.000000000000000  10.711672787878783  19.905184999999999 0
ion Pt   7.574297999999998  -0.000001212121214  19.905184999999999 0
ion Pt   7.574297999999998  10.711672787878783  19.905184999999999 0
ion C   3.787148999999999   5.355835787878783  20.268479510207353 1  Linear 0 0 1
ion O   3.847243999999999   5.355835787878783  22.605121932920955 1  Linear 0 0 1

# Forces in Cartesian coordinates:
force Ag  -0.000002238880035  -0.000172200477214   0.000131176312345 0
force Ag  -0.000007218903331   0.000030627977529  -0.000018884227232 0
force Ag   0.000009030518254   0.000018417575223  -0.000042113104082 0
force Ag   0.000013155417331   0.000056374920941   0.000025351169439 0
force Ag  -0.000007289804802   0.000366821879195  -0.000194459757310 0
force Ag  -0.000003396322812   0.000402185530678  -0.000047894481995 0
force Ag   0.000002321080597   0.000133117737799  -0.000115963496894 0
force Ag  -0.000014959706230   0.000005712147232  -0.000225588056387 0
force Ag   0.000127464224689   0.000000000000000  -0.000694513531736 0
force Ag  -0.000059313602525   0.000000000000000  -0.000096377250988 0
force Ag  -0.000125929134022   0.000000000000000  -0.000665935418249 0
force Ag   0.000080541831944   0.000000000000000  -0.000148289684435 0
force Ag   0.000001787623725  -0.000005868172950  -0.000219609297164 0
force Ag   0.000001787623725   0.000005868172950  -0.000219609297164 0
force Ag  -0.000023592422021  -0.000003094090702  -0.000197285267565 0
force Ag  -0.000023592422021   0.000003094090702  -0.000197285267565 0
force Ag  -0.000002238880035   0.000172200477214   0.000131176312345 0
force Ag  -0.000007218903331  -0.000030627977529  -0.000018884227232 0
force Ag   0.000009030518254  -0.000018417575223  -0.000042113104082 0
force Ag   0.000013155417331  -0.000056374920941   0.000025351169439 0
force Ag  -0.000007289804802  -0.000366821879195  -0.000194459757310 0
force Ag  -0.000003396322812  -0.000402185530678  -0.000047894481995 0
force Ag   0.000002321080597  -0.000133117737799  -0.000115963496894 0
force Ag  -0.000014959706230  -0.000005712147232  -0.000225588056387 0
force Ag   0.000011747881551   0.000029206707877  -0.000401825931465 0
force Ag  -0.000013079669128   0.000140561649214  -0.000219909631897 0
force Ag  -0.000011662107210  -0.000454608111063  -0.000274679933040 0
force Ag   0.000000513050222   0.000123324089394  -0.000327992019713 0
force Ag   0.000069323851976   0.034105622071776  -0.026193267064071 0
force Ag  -0.000008895496554  -0.001570675263690   0.000076897525388 0
force Ag  -0.000081142420145  -0.000181941121293   0.000174106278577 0
force Ag   0.000003202192974  -0.000124971932138   0.000341686467989 0
force Ag  -0.056215725109848   0.000000000000000  -0.008554971081267 0
force Ag   0.000033184331222   0.000000000000000  -0.000194937238104 0
force Ag   0.059769341621647   0.000000000000000  -0.010407339743987 0
force Ag  -0.000060313107599   0.000000000000000  -0.000158392841806 0
force Ag  -0.000396742159641  -0.000309993798232  -0.000684463354167 0
force Ag  -0.000396742159641   0.000309993798232  -0.000684463354167 0
force Ag   0.000364359063447  -0.000328097995139  -0.000651437706295 0
force Ag   0.000364359063447   0.000328097995139  -0.000651437706295 0
force Ag   0.000011747881551  -0.000029206707877  -0.000401825931465 0
force Ag  -0.000013079669128  -0.000140561649214  -0.000219909631897 0
force Ag  -0.000011662107210   0.000454608111063  -0.000274679933040 0
force Ag   0.000000513050222  -0.000123324089394  -0.000327992019713 0
force Ag   0.000069323851976  -0.034105622071776  -0.026193267064071 0
force Ag  -0.000008895496554   0.001570675263690   0.000076897525388 0
force Ag  -0.000081142420145   0.000181941121293   0.000174106278577 0
force Ag   0.000003202192974   0.000124971932138   0.000341686467989 0
force Pt   0.000109687335485   0.000000000000000  -0.000463478450019 0
force Pt   0.000103731677513   0.000000000000000  -0.000550847761766 0
force Pt  -0.000115891035842   0.000000000000000  -0.000523430425296 0
force Pt  -0.000102564728512   0.000000000000000  -0.000534616869573 0
force Pt   0.000179889864590  -0.000095469453335   0.000115436725670 0
force Pt   0.000179889864590   0.000095469453335   0.000115436725670 0
force Pt  -0.000158209477153  -0.000055913691737   0.000143563641351 0
force Pt  -0.000158209477153   0.000055913691737   0.000143563641351 0
force Pt  -0.003809217386496   0.000000000000000  -0.004895057587790 0
force Pt   0.000015094720622   0.000000000000000  -0.000015459602875 0
force Pt   0.003825269058074   0.000000000000000  -0.004625096046944 0
force Pt   0.000002665383690   0.000000000000000  -0.000082930266633 0
force Pt  -0.002102734594626  -0.003431667097033  -0.000645291039443 0
force Pt  -0.002102734594626   0.003431667097033  -0.000645291039443 0
force Pt   0.002081345796070  -0.003831424829668  -0.000802988596752 0
force Pt   0.002081345796070   0.003831424829668  -0.000802988596752 0
force C  -0.000886833289062   0.000000000000000   0.077664587219704 1  Linear 0 0 1
force O  -0.002867631673280   0.000000000000000   0.008046823134964 1  Linear 0 0 1

# Energy components:
   A_diel =       -0.0126872528461766
   Eewald =    36106.5736566875566496
       EH =    43900.5960439009359106
     Eloc =   -89907.9730955955019454
      Enl =      175.7508837852307124
     EvdW =       -1.0449257390424558
      Exc =    -1156.5994000068178593
 Exc_core =      272.3528716503577130
       KE =     2079.9568636864614746
  MuShift =        0.0000000000005810
-------------------------------------
     Etot =    -8530.3997888836711354
       TS =        0.0013448009356671
-------------------------------------
        F =    -8530.4011336846069753


Dumping 'jdft.fillings' ... done
Dumping 'jdft.wfns' ... done
Dumping 'jdft.fluidState' ... done
Dumping 'jdft.ionpos' ... done
Dumping 'jdft.lattice' ... done
Dumping 'jdft.eigenvals' ... done
Dumping 'jdft.eigStats' ... 
	eMin: -3.557968 at state 10 ( [ +0.500000 +0.000000 +0.000000 ] spin -1 )
	HOMO: -0.155504 at state 7 ( [ +0.000000 +0.333333 +0.000000 ] spin -1 )
	mu  : -0.155299
	LUMO: -0.154508 at state 11 ( [ +0.500000 +0.333333 +0.000000 ] spin -1 )
	eMax: +0.160197 at state 5 ( [ +0.500000 +0.333333 +0.000000 ] spin 1 )
	HOMO-LUMO gap: +0.000996
	Optical gap  : +0.002414 at state 11 ( [ +0.500000 +0.333333 +0.000000 ] spin -1 )
Dumping 'jdft.Ecomponents' ... done
IonicMinimize: Iter:   0  F: -8530.401133684606975  |grad|_K:  5.521e-02  t[s]:   2686.61

#--- Lowdin population analysis ---
# oxidation-state Ag +0.167 +0.163 +0.166 +0.166 +0.063 +0.063 +0.063 +0.063 +0.081 +0.081 +0.081 +0.081 -0.005 -0.005 -0.005 -0.005 +0.167 +0.163 +0.166 +0.166 +0.063 +0.063 +0.063 +0.063 +0.071 +0.079 +0.079 +0.078 +0.062 +0.016 +0.005 +0.019 +0.221 +0.204 +0.223 +0.204 +0.065 +0.065 +0.065 +0.065 +0.071 +0.079 +0.079 +0.078 +0.062 +0.016 +0.005 +0.019
# magnetic-moments Ag +0.000 +0.000 -0.000 +0.000 -0.000 +0.000 -0.000 -0.000 -0.000 +0.000 -0.000 +0.000 -0.000 -0.000 -0.000 -0.000 +0.000 +0.000 -0.000 +0.000 -0.000 +0.000 -0.000 -0.000 -0.000 -0.000 +0.000 +0.000 -0.000 -0.000 -0.000 +0.000 -0.000 -0.000 -0.000 +0.000 -0.000 -0.000 -0.000 -0.000 -0.000 -0.000 +0.000 +0.000 -0.000 -0.000 -0.000 +0.000
# oxidation-state Pt -0.310 -0.311 -0.310 -0.311 -0.221 -0.221 -0.221 -0.221 -0.239 -0.229 -0.239 -0.229 -0.164 -0.164 -0.163 -0.163
# magnetic-moments Pt +0.000 -0.000 +0.000 -0.000 -0.000 -0.000 -0.000 -0.000 -0.000 -0.000 -0.000 -0.000 +0.000 +0.000 +0.000 +0.000
# oxidation-state C +0.275
# magnetic-moments C +0.000
# oxidation-state O -0.165
# magnetic-moments O -0.000


Computing DFT-D3 correction:
# coordination-number Ag 5.530 5.530 5.530 5.530 9.271 9.271 9.271 9.271 9.346 9.346 9.346 9.346 8.458 8.458 8.458 8.458 5.530 5.530 5.530 5.530 9.271 9.271 9.271 9.271 9.372 9.372 9.372 9.371 9.582 8.570 8.571 8.569 6.897 5.424 6.989 5.424 9.385 9.385 9.385 9.385 9.372 9.372 9.372 9.371 9.582 8.570 8.571 8.569
# coordination-number Pt 8.246 8.246 8.246 8.246 8.973 8.973 8.973 8.973 8.934 8.926 8.934 8.926 5.756 5.756 5.756 5.756
# coordination-number C 5.008
# coordination-number O 2.145
# diagonal-C6 Ag 268.61 268.61 268.61 268.61 268.61 268.61 268.61 268.61 268.61 268.61 268.61 268.61 268.61 268.61 268.61 268.61 268.61 268.61 268.61 268.61 268.61 268.61 268.61 268.61 268.61 268.61 268.61 268.61 268.61 268.61 268.61 268.61 268.61 268.61 268.61 268.61 268.61 268.61 268.61 268.61 268.61 268.61 268.61 268.61 268.61 268.61 268.61 268.61
# diagonal-C6 Pt 336.87 336.87 336.87 336.87 336.87 336.87 336.87 336.87 336.87 336.87 336.87 336.87 336.87 336.87 336.87 336.87
# diagonal-C6 C 18.21
# diagonal-C6 O 10.38
EvdW_6 =   -0.427083
EvdW_8 =   -0.617755

-------- Electronic minimization -----------
	Linear fluid (dielectric constant: 78.4, screening length: 8.12261 Bohr) occupying 0.439754 of unit cell:	Completed after 15 iterations at t[s]:   2830.47
	FillingsUpdate:  mu: -0.150979021  nElectrons: 1178.000000  magneticMoment: [ Abs: 0.00000  Tot: +0.00000 ]
ElecMinimize: Iter:   0  F: -8530.391581476407737  |grad|_K:  6.873e-06  alpha:  1.000e+00
	Linear fluid (dielectric constant: 78.4, screening length: 8.12261 Bohr) occupying 0.439409 of unit cell:	Completed after 21 iterations at t[s]:   3124.67
	Linear fluid (dielectric constant: 78.4, screening length: 8.12261 Bohr) occupying 0.439620 of unit cell:	Completed after 20 iterations at t[s]:   3224.73
	FillingsUpdate:  mu: -0.157919948  nElectrons: 1178.000000  magneticMoment: [ Abs: 0.00000  Tot: -0.00000 ]
	SubspaceRotationAdjust: set factor to 0.316
ElecMinimize: Iter:   1  F: -8530.402718600076696  |grad|_K:  2.977e-06  alpha:  3.774e-01  linmin:  3.683e-04  t[s]:   3354.20
	Linear fluid (dielectric constant: 78.4, screening length: 8.12261 Bohr) occupying 0.439794 of unit cell:	Completed after 20 iterations at t[s]:   3499.40
	Linear fluid (dielectric constant: 78.4, screening length: 8.12261 Bohr) occupying 0.439743 of unit cell:	Completed after 18 iterations at t[s]:   3597.69
	FillingsUpdate:  mu: -0.153474588  nElectrons: 1178.000000  magneticMoment: [ Abs: 0.00000  Tot: -0.00000 ]
	SubspaceRotationAdjust: set factor to 0.226
ElecMinimize: Iter:   2  F: -8530.404236395364933  |grad|_K:  1.735e-06  alpha:  2.733e-01  linmin: -1.986e-06  t[s]:   3726.65
	Linear fluid (dielectric constant: 78.4, screening length: 8.12261 Bohr) occupying 0.439725 of unit cell:	Completed after 14 iterations at t[s]:   3869.62
	Linear fluid (dielectric constant: 78.4, screening length: 8.12261 Bohr) occupying 0.439717 of unit cell:	Completed after 11 iterations at t[s]:   3966.06
	FillingsUpdate:  mu: -0.154881925  nElectrons: 1178.000000  magneticMoment: [ Abs: 0.00000  Tot: -0.00000 ]
	SubspaceRotationAdjust: set factor to 0.247
ElecMinimize: Iter:   3  F: -8530.405003103684066  |grad|_K:  1.042e-06  alpha:  4.025e-01  linmin: -7.839e-07  t[s]:   4094.77
	Linear fluid (dielectric constant: 78.4, screening length: 8.12261 Bohr) occupying 0.439717 of unit cell:	Completed after 11 iterations at t[s]:   4235.63
	Linear fluid (dielectric constant: 78.4, screening length: 8.12261 Bohr) occupying 0.439717 of unit cell:	Completed after 2 iterations at t[s]:   4329.19
	FillingsUpdate:  mu: -0.155282892  nElectrons: 1178.000000  magneticMoment: [ Abs: 0.00000  Tot: -0.00000 ]
	SubspaceRotationAdjust: set factor to 0.319
ElecMinimize: Iter:   4  F: -8530.405295269683847  |grad|_K:  7.042e-07  alpha:  4.253e-01  linmin: -9.460e-06  t[s]:   4459.37
	Linear fluid (dielectric constant: 78.4, screening length: 8.12261 Bohr) occupying 0.439728 of unit cell:	Completed after 11 iterations at t[s]:   4600.72
	Linear fluid (dielectric constant: 78.4, screening length: 8.12261 Bohr) occupying 0.439729 of unit cell:	Completed after 7 iterations at t[s]:   4695.85
	FillingsUpdate:  mu: -0.154487545  nElectrons: 1178.000000  magneticMoment: [ Abs: 0.00000  Tot: -0.00000 ]
	SubspaceRotationAdjust: set factor to 0.363
ElecMinimize: Iter:   5  F: -8530.405448566794803  |grad|_K:  5.948e-07  alpha:  4.883e-01  linmin:  6.795e-06  t[s]:   4825.38
	Linear fluid (dielectric constant: 78.4, screening length: 8.12261 Bohr) occupying 0.439705 of unit cell:	Completed after 12 iterations at t[s]:   4966.60
	Linear fluid (dielectric constant: 78.4, screening length: 8.12261 Bohr) occupying 0.439707 of unit cell:	Completed after 6 iterations at t[s]:   5061.88
	FillingsUpdate:  mu: -0.155087117  nElectrons: 1178.000000  magneticMoment: [ Abs: 0.00000  Tot: -0.00000 ]
	SubspaceRotationAdjust: set factor to 0.382
ElecMinimize: Iter:   6  F: -8530.405546816569768  |grad|_K:  4.509e-07  alpha:  4.390e-01  linmin: -1.084e-06  t[s]:   5191.34
	Linear fluid (dielectric constant: 78.4, screening length: 8.12261 Bohr) occupying 0.439712 of unit cell:	Completed after 10 iterations at t[s]:   5332.15
	Linear fluid (dielectric constant: 78.4, screening length: 8.12261 Bohr) occupying 0.439712 of unit cell:	Completed after 0 iterations at t[s]:   5424.46
	FillingsUpdate:  mu: -0.154784007  nElectrons: 1178.000000  magneticMoment: [ Abs: 0.00000  Tot: -0.00000 ]
	SubspaceRotationAdjust: set factor to 0.396
ElecMinimize: Iter:   7  F: -8530.405603303261159  |grad|_K:  3.137e-07  alpha:  4.390e-01  linmin: -6.252e-06  t[s]:   5553.35
	Linear fluid (dielectric constant: 78.4, screening length: 8.12261 Bohr) occupying 0.439703 of unit cell:	Completed after 8 iterations at t[s]:   5693.69
	Linear fluid (dielectric constant: 78.4, screening length: 8.12261 Bohr) occupying 0.439704 of unit cell:	Completed after 2 iterations at t[s]:   5787.80
	FillingsUpdate:  mu: -0.154790782  nElectrons: 1178.000000  magneticMoment: [ Abs: 0.00000  Tot: -0.00000 ]
	SubspaceRotationAdjust: set factor to 0.399
ElecMinimize: Iter:   8  F: -8530.405627307145551  |grad|_K:  2.212e-07  alpha:  3.851e-01  linmin:  9.832e-06  t[s]:   5916.75
	Linear fluid (dielectric constant: 78.4, screening length: 8.12261 Bohr) occupying 0.439701 of unit cell:	Completed after 8 iterations at t[s]:   6056.88
	Linear fluid (dielectric constant: 78.4, screening length: 8.12261 Bohr) occupying 0.439701 of unit cell:	Completed after 2 iterations at t[s]:   6151.20
	FillingsUpdate:  mu: -0.154928011  nElectrons: 1178.000000  magneticMoment: [ Abs: 0.00000  Tot: -0.00000 ]
	SubspaceRotationAdjust: set factor to 0.372
ElecMinimize: Iter:   9  F: -8530.405638282241853  |grad|_K:  1.369e-07  alpha:  3.550e-01  linmin: -1.430e-06  t[s]:   6280.24
	Linear fluid (dielectric constant: 78.4, screening length: 8.12261 Bohr) occupying 0.439699 of unit cell:	Completed after 8 iterations at t[s]:   6421.39
	Linear fluid (dielectric constant: 78.4, screening length: 8.12261 Bohr) occupying 0.439699 of unit cell:	Completed after 1 iterations at t[s]:   6514.61
	FillingsUpdate:  mu: -0.154807696  nElectrons: 1178.000000  magneticMoment: [ Abs: 0.00000  Tot: -0.00000 ]
	SubspaceRotationAdjust: set factor to 0.284
ElecMinimize: Iter:  10  F: -8530.405642092204289  |grad|_K:  8.736e-08  alpha:  3.214e-01  linmin:  8.810e-05  t[s]:   6643.48
	Linear fluid (dielectric constant: 78.4, screening length: 8.12261 Bohr) occupying 0.439699 of unit cell:	Completed after 6 iterations at t[s]:   6782.66
	Linear fluid (dielectric constant: 78.4, screening length: 8.12261 Bohr) occupying 0.439699 of unit cell:	Completed after 0 iterations at t[s]:   6875.33
	FillingsUpdate:  mu: -0.154902259  nElectrons: 1178.000000  magneticMoment: [ Abs: 0.00000  Tot: -0.00000 ]
	SubspaceRotationAdjust: set factor to 0.217
ElecMinimize: Iter:  11  F: -8530.405643603722638  |grad|_K:  5.550e-08  alpha:  3.155e-01  linmin: -1.400e-04  t[s]:   7003.79
	Linear fluid (dielectric constant: 78.4, screening length: 8.12261 Bohr) occupying 0.439699 of unit cell:	Completed after 2 iterations at t[s]:   7141.37
	Linear fluid (dielectric constant: 78.4, screening length: 8.12261 Bohr) occupying 0.439699 of unit cell:	Completed after 0 iterations at t[s]:   7233.81
	FillingsUpdate:  mu: -0.154872879  nElectrons: 1178.000000  magneticMoment: [ Abs: 0.00000  Tot: -0.00000 ]
	SubspaceRotationAdjust: set factor to 0.257
ElecMinimize: Iter:  12  F: -8530.405644281647255  |grad|_K:  3.280e-08  alpha:  3.424e-01  linmin: -7.148e-04  t[s]:   7362.37
	Linear fluid (dielectric constant: 78.4, screening length: 8.12261 Bohr) occupying 0.439699 of unit cell:	Completed after 2 iterations at t[s]:   7500.05
	Linear fluid (dielectric constant: 78.4, screening length: 8.12261 Bohr) occupying 0.439698 of unit cell:	Completed after 0 iterations at t[s]:   7592.23
	FillingsUpdate:  mu: -0.154849168  nElectrons: 1178.000000  magneticMoment: [ Abs: 0.00000  Tot: -0.00000 ]
	SubspaceRotationAdjust: set factor to 0.256
ElecMinimize: Iter:  13  F: -8530.405644551285150  |grad|_K:  2.160e-08  alpha:  3.798e-01  linmin: -1.226e-03  t[s]:   7722.26
	Linear fluid (dielectric constant: 78.4, screening length: 8.12261 Bohr) occupying 0.439698 of unit cell:	Completed after 2 iterations at t[s]:   7860.32
	Linear fluid (dielectric constant: 78.4, screening length: 8.12261 Bohr) occupying 0.439698 of unit cell:	Completed after 0 iterations at t[s]:   7952.77
	FillingsUpdate:  mu: -0.154862971  nElectrons: 1178.000000  magneticMoment: [ Abs: 0.00000  Tot: -0.00000 ]
	SubspaceRotationAdjust: set factor to 0.296
ElecMinimize: Iter:  14  F: -8530.405644677057353  |grad|_K:  1.548e-08  alpha:  4.021e-01  linmin: -3.676e-04  t[s]:   8082.02
	Linear fluid (dielectric constant: 78.4, screening length: 8.12261 Bohr) occupying 0.439698 of unit cell:	Completed after 1 iterations at t[s]:   8220.46
	Linear fluid (dielectric constant: 78.4, screening length: 8.12261 Bohr) occupying 0.439698 of unit cell:	Completed after 0 iterations at t[s]:   8312.67
	FillingsUpdate:  mu: -0.154874674  nElectrons: 1178.000000  magneticMoment: [ Abs: 0.00000  Tot: -0.00000 ]
	SubspaceRotationAdjust: set factor to 0.327
ElecMinimize: Iter:  15  F: -8530.405644729751657  |grad|_K:  1.222e-08  alpha:  3.357e-01  linmin:  1.148e-04  t[s]:   8441.36
	Linear fluid (dielectric constant: 78.4, screening length: 8.12261 Bohr) occupying 0.439698 of unit cell:	Completed after 0 iterations at t[s]:   8579.36
	Linear fluid (dielectric constant: 78.4, screening length: 8.12261 Bohr) occupying 0.439698 of unit cell:	Completed after 0 iterations at t[s]:   8671.46
	FillingsUpdate:  mu: -0.154876565  nElectrons: 1178.000000  magneticMoment: [ Abs: 0.00000  Tot: -0.00000 ]
	SubspaceRotationAdjust: set factor to 0.442
ElecMinimize: Iter:  16  F: -8530.405644767695776  |grad|_K:  1.039e-08  alpha:  4.018e-01  linmin: -9.422e-04  t[s]:   8800.91
ElecMinimize: Converged (|Delta F|<1.000000e-07 for 2 iters).
Setting wave functions to eigenvectors of Hamiltonian
Converging empty states (this may take a while): |deigs|: 7.057e-07

Computing DFT-D3 correction:
# coordination-number Ag 5.530 5.530 5.530 5.530 9.271 9.271 9.271 9.271 9.346 9.346 9.346 9.346 8.458 8.458 8.458 8.458 5.530 5.530 5.530 5.530 9.271 9.271 9.271 9.271 9.372 9.372 9.372 9.371 9.582 8.570 8.571 8.569 6.897 5.424 6.989 5.424 9.385 9.385 9.385 9.385 9.372 9.372 9.372 9.371 9.582 8.570 8.571 8.569
# coordination-number Pt 8.246 8.246 8.246 8.246 8.973 8.973 8.973 8.973 8.934 8.926 8.934 8.926 5.756 5.756 5.756 5.756
# coordination-number C 5.008
# coordination-number O 2.145
# diagonal-C6 Ag 268.61 268.61 268.61 268.61 268.61 268.61 268.61 268.61 268.61 268.61 268.61 268.61 268.61 268.61 268.61 268.61 268.61 268.61 268.61 268.61 268.61 268.61 268.61 268.61 268.61 268.61 268.61 268.61 268.61 268.61 268.61 268.61 268.61 268.61 268.61 268.61 268.61 268.61 268.61 268.61 268.61 268.61 268.61 268.61 268.61 268.61 268.61 268.61
# diagonal-C6 Pt 336.87 336.87 336.87 336.87 336.87 336.87 336.87 336.87 336.87 336.87 336.87 336.87 336.87 336.87 336.87 336.87
# diagonal-C6 C 18.21
# diagonal-C6 O 10.38
EvdW_6 =   -0.427083
EvdW_8 =   -0.617755

# Ionic positions in cartesian coordinates:
ion Ag   3.787148999999999   2.725241287878785   1.237413000000000 0
ion Ag   3.787148999999999  13.436915787878785   1.237413000000000 0
ion Ag  11.361447000000000   2.725241287878785   1.237413000000000 0
ion Ag  11.361447000000000  13.436915787878785   1.237413000000000 0
ion Ag   3.787148999999999   8.038574787878783   6.660413000000000 0
ion Ag   3.787148999999999  18.750227787878785   6.660413000000000 0
ion Ag  11.361447000000000   8.038574787878783   6.660413000000000 0
ion Ag  11.361447000000000  18.750227787878785   6.660413000000000 0
ion Ag   0.000000000000000   5.355835787878783   9.413526999999998 0
ion Ag   0.000000000000000  16.067510287878786   9.413526999999998 0
ion Ag   7.574297999999998   5.355835787878783   9.413526999999998 0
ion Ag   7.574297999999998  16.067510287878786   9.413526999999998 0
ion Ag   0.000000000000000  -0.000001212121214   3.864076000000000 0
ion Ag   0.000000000000000  10.711672787878783   3.864076000000000 0
ion Ag   7.574297999999998  -0.000001212121214   3.864076000000000 0
ion Ag   7.574297999999998  10.711672787878783   3.864076000000000 0
ion Ag   3.787148999999999   7.986430287878782   1.237413000000000 0
ion Ag   3.787148999999999  18.698104787878783   1.237413000000000 0
ion Ag  11.361447000000000   7.986430287878782   1.237413000000000 0
ion Ag  11.361447000000000  18.698104787878783   1.237413000000000 0
ion Ag   3.787148999999999   2.673096787878784   6.660413000000000 0
ion Ag   3.787148999999999  13.384792787878785   6.660413000000000 0
ion Ag  11.361447000000000   2.673096787878784   6.660413000000000 0
ion Ag  11.361447000000000  13.384792787878785   6.660413000000000 0
ion Ag   3.787148999999999   2.682694787878785  12.076021000000001 0
ion Ag   3.787148999999999  13.394368787878786  12.076021000000001 0
ion Ag  11.361447000000000   2.682694787878785  12.076021000000001 0
ion Ag  11.361447000000000  13.394368787878786  12.076021000000001 0
ion Ag   3.787148999999999   8.000323287878784  17.563452000000002 0
ion Ag   3.787148999999999  18.711997787878786  17.563452000000002 0
ion Ag  11.361447000000000   8.000323287878784  17.563452000000002 0
ion Ag  11.361447000000000  18.711997787878786  17.563452000000002 0
ion Ag   0.000000000000000   5.355835787878783  20.280093000000001 0
ion Ag   0.000000000000000  16.067510287878786  20.280093000000001 0
ion Ag   7.574297999999998   5.355835787878783  20.280093000000001 0
ion Ag   7.574297999999998  16.067510287878786  20.280093000000001 0
ion Ag   0.000000000000000  -0.000001212121214  14.712647000000000 0
ion Ag   0.000000000000000  10.711672787878783  14.712647000000000 0
ion Ag   7.574297999999998  -0.000001212121214  14.712647000000000 0
ion Ag   7.574297999999998  10.711672787878783  14.712647000000000 0
ion Ag   3.787148999999999   8.028976787878783  12.076021000000001 0
ion Ag   3.787148999999999  18.740651787878782  12.076021000000001 0
ion Ag  11.361447000000000   8.028976787878783  12.076021000000001 0
ion Ag  11.361447000000000  18.740651787878782  12.076021000000001 0
ion Ag   3.787148999999999   2.711348287878786  17.563452000000002 0
ion Ag   3.787148999999999  13.423022787878784  17.563452000000002 0
ion Ag  11.361447000000000   2.711348287878786  17.563452000000002 0
ion Ag  11.361447000000000  13.423022787878784  17.563452000000002 0
ion Pt   0.000000000000000   5.355835787878783   3.956249999999998 0
ion Pt   0.000000000000000  16.067510287878786   3.956249999999998 0
ion Pt   7.574297999999998   5.355835787878783   3.956249999999998 0
ion Pt   7.574297999999998  16.067510287878786   3.956249999999998 0
ion Pt   0.000000000000000  -0.000001212121214   9.374912000000000 0
ion Pt   0.000000000000000  10.711672787878783   9.374912000000000 0
ion Pt   7.574297999999998  -0.000001212121214   9.374912000000000 0
ion Pt   7.574297999999998  10.711672787878783   9.374912000000000 0
ion Pt   0.000000000000000   5.355835787878783  14.805410000000000 0
ion Pt   0.000000000000000  16.067510287878786  14.805410000000000 0
ion Pt   7.574297999999998   5.355835787878783  14.805410000000000 0
ion Pt   7.574297999999998  16.067510287878786  14.805410000000000 0
ion Pt   0.000000000000000  -0.000001212121214  19.905184999999999 0
ion Pt   0.000000000000000  10.711672787878783  19.905184999999999 0
ion Pt   7.574297999999998  -0.000001212121214  19.905184999999999 0
ion Pt   7.574297999999998  10.711672787878783  19.905184999999999 0
ion C   3.787148999999999   5.355835787878783  20.346144097427057 1  Linear 0 0 1
ion O   3.847243999999999   5.355835787878783  22.613168756055916 1  Linear 0 0 1

# Forces in Cartesian coordinates:
force Ag  -0.000002088542849  -0.000161223495822   0.000082616330304 0
force Ag  -0.000007342711871   0.000016979974581  -0.000116060498892 0
force Ag   0.000008545494255   0.000013434316553  -0.000103590277317 0
force Ag   0.000013405446264   0.000032867972179  -0.000062848516507 0
force Ag  -0.000007112968838   0.000368336842566  -0.000182099098634 0
force Ag  -0.000003960947455   0.000425837054276  -0.000055708347307 0
force Ag   0.000002414687322   0.000124952496095  -0.000130141624769 0
force Ag  -0.000014879450511   0.000037973486521  -0.000224059149981 0
force Ag   0.000124884756988   0.000000000000000  -0.000706094385840 0
force Ag  -0.000066182513545   0.000000000000000  -0.000054174447541 0
force Ag  -0.000123262886433   0.000000000000000  -0.000672996127595 0
force Ag   0.000088157298334   0.000000000000000  -0.000108199376840 0
force Ag   0.000000563271550   0.000022422448687  -0.000322981136810 0
force Ag   0.000000563271550  -0.000022422448687  -0.000322981136810 0
force Ag  -0.000022286204477   0.000025918880161  -0.000300876485317 0
force Ag  -0.000022286204477  -0.000025918880161  -0.000300876485317 0
force Ag  -0.000002088542849   0.000161223495822   0.000082616330304 0
force Ag  -0.000007342711871  -0.000016979974581  -0.000116060498892 0
force Ag   0.000008545494255  -0.000013434316553  -0.000103590277317 0
force Ag   0.000013405446264  -0.000032867972179  -0.000062848516507 0
force Ag  -0.000007112968838  -0.000368336842566  -0.000182099098634 0
force Ag  -0.000003960947455  -0.000425837054276  -0.000055708347307 0
force Ag   0.000002414687322  -0.000124952496095  -0.000130141624769 0
force Ag  -0.000014879450511  -0.000037973486521  -0.000224059149981 0
force Ag   0.000011086281174   0.000081470831318  -0.000191977807780 0
force Ag  -0.000013454779201   0.000146301190677  -0.000166873451191 0
force Ag  -0.000012374501781  -0.000488179927670  -0.000227165504913 0
force Ag   0.000001014224421   0.000103178152444  -0.000252296979766 0
force Ag   0.000069123216395   0.030048050492629  -0.023433169755218 0
force Ag  -0.000009452577461  -0.001508301265634   0.000174392892050 0
force Ag  -0.000079841409179  -0.000203585460150   0.000211576545511 0
force Ag   0.000006161598219  -0.000154501454750   0.000333435439975 0
force Ag  -0.057239710100363   0.000000000000000  -0.010226201779098 0
force Ag   0.000069593442276   0.000000000000000  -0.000203695906174 0
force Ag   0.060885754246481   0.000000000000000  -0.012194171080073 0
force Ag  -0.000096114452668   0.000000000000000  -0.000164587599810 0
force Ag  -0.000361977147142  -0.000216261657177  -0.000548435009625 0
force Ag  -0.000361977147142   0.000216261657177  -0.000548435009625 0
force Ag   0.000330128539929  -0.000235026808981  -0.000516245378669 0
force Ag   0.000330128539929   0.000235026808981  -0.000516245378669 0
force Ag   0.000011086281174  -0.000081470831318  -0.000191977807780 0
force Ag  -0.000013454779201  -0.000146301190677  -0.000166873451191 0
force Ag  -0.000012374501781   0.000488179927670  -0.000227165504913 0
force Ag   0.000001014224421  -0.000103178152444  -0.000252296979766 0
force Ag   0.000069123216395  -0.030048050492629  -0.023433169755218 0
force Ag  -0.000009452577461   0.001508301265634   0.000174392892050 0
force Ag  -0.000079841409179   0.000203585460150   0.000211576545511 0
force Ag   0.000006161598219   0.000154501454750   0.000333435439975 0
force Pt   0.000099035536011   0.000000000000000  -0.000659927113008 0
force Pt   0.000116266824348   0.000000000000000  -0.000751904110444 0
force Pt  -0.000104744767467   0.000000000000000  -0.000719063173382 0
force Pt  -0.000114465417202   0.000000000000000  -0.000734007784171 0
force Pt   0.000178285601433  -0.000086460770646   0.000103945905200 0
[...]
ion Ag   3.787148999999999   2.711348287878786  17.563452000000002 0
ion Ag   3.787148999999999  13.423022787878784  17.563452000000002 0
ion Ag  11.361447000000000   2.711348287878786  17.563452000000002 0
ion Ag  11.361447000000000  13.423022787878784  17.563452000000002 0
ion Pt   0.000000000000000   5.355835787878783   3.956249999999998 0
ion Pt   0.000000000000000  16.067510287878786   3.956249999999998 0
ion Pt   7.574297999999998   5.355835787878783   3.956249999999998 0
ion Pt   7.574297999999998  16.067510287878786   3.956249999999998 0
ion Pt   0.000000000000000  -0.000001212121214   9.374912000000000 0
ion Pt   0.000000000000000  10.711672787878783   9.374912000000000 0
ion Pt   7.574297999999998  -0.000001212121214   9.374912000000000 0
ion Pt   7.574297999999998  10.711672787878783   9.374912000000000 0
ion Pt   0.000000000000000   5.355835787878783  14.805410000000000 0
ion Pt   0.000000000000000  16.067510287878786  14.805410000000000 0
ion Pt   7.574297999999998   5.355835787878783  14.805410000000000 0
ion Pt   7.574297999999998  16.067510287878786  14.805410000000000 0
ion Pt   0.000000000000000  -0.000001212121214  19.905184999999999 0
ion Pt   0.000000000000000  10.711672787878783  19.905184999999999 0
ion Pt   7.574297999999998  -0.000001212121214  19.905184999999999 0
ion Pt   7.574297999999998  10.711672787878783  19.905184999999999 0
ion C   3.787148999999999   5.355835787878783  21.412985861384385 1  Linear 0 0 1
ion O   3.847243999999999   5.355835787878783  23.649400973214696 1  Linear 0 0 1

# Forces in Cartesian coordinates:
force Ag   0.000005361237811  -0.000031773161282   0.000173905810762 0
force Ag  -0.000002492353290   0.000121534901922  -0.000069781154821 0
force Ag  -0.000001127186403  -0.000144654948080  -0.000169483048348 0
force Ag   0.000012767484298  -0.000130408433365   0.000055177516393 0
force Ag  -0.000009487626991   0.000376814166141   0.000145711606188 0
force Ag  -0.000008522800455   0.000242608972432  -0.000092935190506 0
force Ag   0.000000444604465   0.000233519690227  -0.000048692881821 0
force Ag  -0.000007924687436   0.000162925799467  -0.000101767132571 0
force Ag  -0.000007607829307   0.000000000000000  -0.000969440165943 0
force Ag  -0.000088017556096   0.000000000000000  -0.000060117222117 0
force Ag   0.000018038584714   0.000000000000000  -0.000907677791995 0
force Ag   0.000109589721532   0.000000000000000  -0.000095846737257 0
force Ag  -0.000058455194415   0.000064047414642  -0.000341767569343 0
force Ag  -0.000058455194415  -0.000064047414642  -0.000341767569343 0
force Ag   0.000035671464531   0.000074467967404  -0.000340901376259 0
force Ag   0.000035671464531  -0.000074467967404  -0.000340901376259 0
force Ag   0.000005361237811   0.000031773161282   0.000173905810762 0
force Ag  -0.000002492353290  -0.000121534901922  -0.000069781154821 0
force Ag  -0.000001127186403   0.000144654948080  -0.000169483048348 0
force Ag   0.000012767484298   0.000130408433365   0.000055177516393 0
force Ag  -0.000009487626991  -0.000376814166141   0.000145711606188 0
force Ag  -0.000008522800455  -0.000242608972432  -0.000092935190506 0
force Ag   0.000000444604465  -0.000233519690227  -0.000048692881821 0
force Ag  -0.000007924687436  -0.000162925799467  -0.000101767132571 0
force Ag  -0.000012020749401   0.000397118065040   0.000711078611132 0
force Ag  -0.000011426212637   0.000132625135552  -0.000436497037528 0
force Ag  -0.000016983744176  -0.000407529873980  -0.000524595142683 0
force Ag   0.000004769348066  -0.000079963467174  -0.000368707347311 0
force Ag   0.000120702025495   0.008267874957873  -0.006492623784104 0
force Ag  -0.000015091830441  -0.000903628788997   0.000308031061721 0
force Ag  -0.000005167005605  -0.000533919858261   0.000190763282119 0
force Ag   0.000011652810844  -0.000292684461060   0.000125018602359 0
force Ag  -0.022217322110817   0.000000000000000  -0.008857359365683 0
force Ag   0.000129346255359   0.000000000000000  -0.000394682904258 0
force Ag   0.023256606629172   0.000000000000000  -0.010252160027142 0
force Ag  -0.000130957288204   0.000000000000000  -0.000357565790472 0
force Ag  -0.000022371229894   0.000245103053048  -0.000039183063796 0
force Ag  -0.000022371229894  -0.000245103053048  -0.000039183063796 0
force Ag   0.000007530533025   0.000224206333097  -0.000030973184239 0
force Ag   0.000007530533025  -0.000224206333097  -0.000030973184239 0
force Ag  -0.000012020749401  -0.000397118065040   0.000711078611132 0
force Ag  -0.000011426212637  -0.000132625135552  -0.000436497037528 0
force Ag  -0.000016983744176   0.000407529873980  -0.000524595142683 0
force Ag   0.000004769348066   0.000079963467174  -0.000368707347311 0
force Ag   0.000120702025495  -0.008267874957873  -0.006492623784104 0
force Ag  -0.000015091830441   0.000903628788997   0.000308031061721 0
force Ag  -0.000005167005605   0.000533919858261   0.000190763282119 0
force Ag   0.000011652810844   0.000292684461060   0.000125018602359 0
force Pt  -0.000047245579077   0.000000000000000  -0.000907795982836 0
force Pt   0.000130896491243   0.000000000000000  -0.000621208389020 0
force Pt   0.000041122803641   0.000000000000000  -0.000935392456722 0
force Pt  -0.000127852345130   0.000000000000000  -0.000594872988880 0
force Pt  -0.000110325100588  -0.000180033440371  -0.000163208929405 0
force Pt  -0.000110325100588   0.000180033440371  -0.000163208929405 0
force Pt   0.000133646143011  -0.000158870106621  -0.000151753858580 0
force Pt   0.000133646143011   0.000158870106621  -0.000151753858580 0
force Pt  -0.001432402141174   0.000000000000000  -0.003069537531850 0
force Pt  -0.000178356296420   0.000000000000000   0.000030858200721 0
force Pt   0.001378896023352   0.000000000000000  -0.002797439861226 0
force Pt   0.000192677401786   0.000000000000000   0.000024365349221 0
force Pt  -0.001815630179780  -0.001318801737899   0.000222595591854 0
force Pt  -0.001815630179780   0.001318801737899   0.000222595591854 0
force Pt   0.001790739412105  -0.001488356963837   0.000085200450611 0
force Pt   0.001790739412105   0.001488356963837   0.000085200450611 0
force C  -0.000315596755365   0.000000000000000   0.019943341401243 1  Linear 0 0 1
force O  -0.001143338846680   0.000000000000000   0.017657546028267 1  Linear 0 0 1

# Energy components:
   A_diel =       -0.0128498019332504
   Eewald =    35977.0365350349311484
       EH =    43771.4815952258577454
     Eloc =   -89649.2545763642265229
      Enl =      175.7777413648092875
     EvdW =       -1.0433405888538188
      Exc =    -1156.5085712425407110
 Exc_core =      272.3528841927260942
       KE =     2079.7090145688880511
  MuShift =        0.0000000000005810
-------------------------------------
     Etot =    -8530.4615676103348960
       TS =        0.0017287529977297
-------------------------------------
        F =    -8530.4632963633321197


Dumping 'jdft.fillings' ... done
Dumping 'jdft.wfns' ... done
Dumping 'jdft.fluidState' ... done
Dumping 'jdft.ionpos' ... done
Dumping 'jdft.lattice' ... done
Dumping 'jdft.eigenvals' ... done
Dumping 'jdft.eigStats' ... 
	eMin: -3.540376 at state 6 ( [ +0.000000 +0.000000 +0.000000 ] spin -1 )
	HOMO: -0.158056 at state 1 ( [ +0.000000 +0.333333 +0.000000 ] spin 1 )
	mu  : -0.156872
	LUMO: -0.156649 at state 3 ( [ +0.250000 +0.333333 +0.000000 ] spin 1 )
	eMax: +0.159899 at state 11 ( [ +0.500000 +0.333333 +0.000000 ] spin -1 )
	HOMO-LUMO gap: +0.001407
	Optical gap  : +0.002646 at state 11 ( [ +0.500000 +0.333333 +0.000000 ] spin -1 )
Dumping 'jdft.Ecomponents' ... done
IonicMinimize: Iter:   6  F: -8530.463296363332120  |grad|_K:  1.884e-02  alpha:  2.405e-01  linmin: -5.661e-01  t[s]:  80058.63

#--- Lowdin population analysis ---
# oxidation-state Ag +0.169 +0.166 +0.167 +0.167 +0.063 +0.064 +0.063 +0.064 +0.083 +0.081 +0.083 +0.081 -0.005 -0.005 -0.005 -0.005 +0.169 +0.166 +0.167 +0.167 +0.063 +0.064 +0.063 +0.064 +0.075 +0.079 +0.080 +0.078 +0.025 +0.021 +0.011 +0.022 +0.153 +0.210 +0.156 +0.209 +0.069 +0.069 +0.069 +0.069 +0.075 +0.079 +0.080 +0.078 +0.025 +0.021 +0.011 +0.022
# magnetic-moments Ag -0.000 -0.000 -0.000 -0.000 -0.000 -0.000 -0.000 -0.000 -0.000 -0.000 -0.000 -0.000 -0.000 -0.000 -0.000 -0.000 -0.000 -0.000 -0.000 -0.000 -0.000 -0.000 -0.000 -0.000 -0.000 -0.000 -0.000 -0.000 -0.000 -0.000 -0.000 -0.000 -0.000 -0.000 -0.000 -0.000 -0.000 -0.000 -0.000 -0.000 -0.000 -0.000 -0.000 -0.000 -0.000 -0.000 -0.000 -0.000
# oxidation-state Pt -0.309 -0.310 -0.309 -0.310 -0.221 -0.221 -0.221 -0.221 -0.234 -0.228 -0.234 -0.228 -0.162 -0.162 -0.162 -0.162
# magnetic-moments Pt -0.000 -0.000 -0.000 -0.000 +0.000 +0.000 -0.000 -0.000 -0.000 -0.000 -0.000 -0.000 -0.000 -0.000 -0.000 -0.000
# oxidation-state C +0.333
# magnetic-moments C -0.000
# oxidation-state O -0.124
# magnetic-moments O -0.000


Computing DFT-D3 correction:
# coordination-number Ag 5.530 5.530 5.530 5.530 9.271 9.271 9.271 9.271 9.346 9.346 9.346 9.346 8.458 8.458 8.458 8.458 5.530 5.530 5.530 5.530 9.271 9.271 9.271 9.271 9.372 9.371 9.372 9.371 9.103 8.570 8.571 8.569 6.491 5.424 6.516 5.424 9.385 9.385 9.385 9.385 9.372 9.371 9.372 9.371 9.103 8.570 8.571 8.569
# coordination-number Pt 8.246 8.246 8.246 8.246 8.973 8.973 8.973 8.973 8.928 8.925 8.928 8.925 5.752 5.752 5.752 5.752
# coordination-number C 4.027
# coordination-number O 1.254
# diagonal-C6 Ag 268.61 268.61 268.61 268.61 268.61 268.61 268.61 268.61 268.61 268.61 268.61 268.61 268.61 268.61 268.61 268.61 268.61 268.61 268.61 268.61 268.61 268.61 268.61 268.61 268.61 268.61 268.61 268.61 268.61 268.61 268.61 268.61 268.61 268.61 268.61 268.61 268.61 268.61 268.61 268.61 268.61 268.61 268.61 268.61 268.61 268.61 268.61 268.61
# diagonal-C6 Pt 336.87 336.87 336.87 336.87 336.87 336.87 336.87 336.87 336.87 336.87 336.87 336.87 336.87 336.87 336.87 336.87
# diagonal-C6 C 18.30
# diagonal-C6 O 12.48
EvdW_6 =   -0.426896
EvdW_8 =   -0.616313

-------- Electronic minimization -----------
	Linear fluid (dielectric constant: 78.4, screening length: 8.12261 Bohr) occupying 0.436510 of unit cell:	Completed after 22 iterations at t[s]:  80206.84
	FillingsUpdate:  mu: -0.145872488  nElectrons: 1178.000000  magneticMoment: [ Abs: 0.00000  Tot: -0.00000 ]
ElecMinimize: Iter:   0  F: -8530.387108426009945  |grad|_K:  1.721e-05  alpha:  1.000e+00
	Linear fluid (dielectric constant: 78.4, screening length: 8.12261 Bohr) occupying 0.435346 of unit cell:	Completed after 25 iterations at t[s]:  80508.47
	Linear fluid (dielectric constant: 78.4, screening length: 8.12261 Bohr) occupying 0.435932 of unit cell:	Completed after 23 iterations at t[s]:  80610.60
	FillingsUpdate:  mu: -0.158194799  nElectrons: 1178.000000  magneticMoment: [ Abs: 0.00000  Tot: -0.00000 ]
	SubspaceRotationAdjust: set factor to 0.388
ElecMinimize: Iter:   1  F: -8530.452433690410544  |grad|_K:  8.306e-06  alpha:  3.473e-01  linmin: -7.142e-06  t[s]:  80742.57
	Linear fluid (dielectric constant: 78.4, screening length: 8.12261 Bohr) occupying 0.436417 of unit cell:	Completed after 23 iterations at t[s]:  80890.11
	Linear fluid (dielectric constant: 78.4, screening length: 8.12261 Bohr) occupying 0.436080 of unit cell:	Completed after 21 iterations at t[s]:  80992.14
	FillingsUpdate:  mu: -0.156369791  nElectrons: 1178.000000  magneticMoment: [ Abs: 0.00000  Tot: -0.00000 ]
	SubspaceRotationAdjust: set factor to 0.232
ElecMinimize: Iter:   2  F: -8530.460510530172542  |grad|_K:  4.208e-06  alpha:  1.856e-01  linmin:  2.065e-05  t[s]:  81123.22
	Linear fluid (dielectric constant: 78.4, screening length: 8.12261 Bohr) occupying 0.436065 of unit cell:	Completed after 14 iterations at t[s]:  81267.67
	Linear fluid (dielectric constant: 78.4, screening length: 8.12261 Bohr) occupying 0.436061 of unit cell:	Completed after 13 iterations at t[s]:  81366.32
	FillingsUpdate:  mu: -0.155904258  nElectrons: 1178.000000  magneticMoment: [ Abs: 0.00000  Tot: -0.00000 ]
	SubspaceRotationAdjust: set factor to 0.249
ElecMinimize: Iter:   3  F: -8530.464214655816249  |grad|_K:  2.563e-06  alpha:  3.313e-01  linmin:  4.551e-05  t[s]:  81498.52
	Linear fluid (dielectric constant: 78.4, screening length: 8.12261 Bohr) occupying 0.436056 of unit cell:	Completed after 15 iterations at t[s]:  81642.89
	Linear fluid (dielectric constant: 78.4, screening length: 8.12261 Bohr) occupying 0.436056 of unit cell:	Completed after 11 iterations at t[s]:  81741.37
	FillingsUpdate:  mu: -0.158034831  nElectrons: 1178.000000  magneticMoment: [ Abs: 0.00000  Tot: -0.00000 ]
	SubspaceRotationAdjust: set factor to 0.269
ElecMinimize: Iter:   4  F: -8530.465852238561638  |grad|_K:  1.536e-06  alpha:  3.947e-01  linmin:  4.205e-05  t[s]:  81872.70
	Linear fluid (dielectric constant: 78.4, screening length: 8.12261 Bohr) occupying 0.436111 of unit cell:	Completed after 15 iterations at t[s]:  82017.41
	Linear fluid (dielectric constant: 78.4, screening length: 8.12261 Bohr) occupying 0.436104 of unit cell:	Completed after 9 iterations at t[s]:  82115.27
	FillingsUpdate:  mu: -0.157395806  nElectrons: 1178.000000  magneticMoment: [ Abs: 0.00000  Tot: -0.00000 ]
	SubspaceRotationAdjust: set factor to 0.252
ElecMinimize: Iter:   5  F: -8530.466370181589809  |grad|_K:  9.739e-07  alpha:  3.474e-01  linmin: -1.502e-06  t[s]:  82246.62
	Linear fluid (dielectric constant: 78.4, screening length: 8.12261 Bohr) occupying 0.436096 of unit cell:	Completed after 11 iterations at t[s]:  82389.58
	Linear fluid (dielectric constant: 78.4, screening length: 8.12261 Bohr) occupying 0.436095 of unit cell:	Completed after 6 iterations at t[s]:  82486.11
	FillingsUpdate:  mu: -0.157088997  nElectrons: 1178.000000  magneticMoment: [ Abs: 0.00000  Tot: -0.00000 ]
	SubspaceRotationAdjust: set factor to 0.315
ElecMinimize: Iter:   6  F: -8530.466614417680830  |grad|_K:  6.984e-07  alpha:  4.068e-01  linmin:  2.459e-06  t[s]:  82617.86
	Linear fluid (dielectric constant: 78.4, screening length: 8.12261 Bohr) occupying 0.436096 of unit cell:	Completed after 11 iterations at t[s]:  82762.10
	Linear fluid (dielectric constant: 78.4, screening length: 8.12261 Bohr) occupying 0.436096 of unit cell:	Completed after 3 iterations at t[s]:  82857.60
	FillingsUpdate:  mu: -0.157490993  nElectrons: 1178.000000  magneticMoment: [ Abs: 0.00000  Tot: -0.00000 ]
	SubspaceRotationAdjust: set factor to 0.376
ElecMinimize: Iter:   7  F: -8530.466755467919938  |grad|_K:  5.447e-07  alpha:  4.570e-01  linmin: -2.796e-06  t[s]:  82989.16
	Linear fluid (dielectric constant: 78.4, screening length: 8.12261 Bohr) occupying 0.436139 of unit cell:	Completed after 13 iterations at t[s]:  83133.33
	Linear fluid (dielectric constant: 78.4, screening length: 8.12261 Bohr) occupying 0.436135 of unit cell:	Completed after 6 iterations at t[s]:  83229.69
	FillingsUpdate:  mu: -0.156878020  nElectrons: 1178.000000  magneticMoment: [ Abs: 0.00000  Tot: -0.00000 ]
	SubspaceRotationAdjust: set factor to 0.372
ElecMinimize: Iter:   8  F: -8530.466831822857785  |grad|_K:  4.661e-07  alpha:  4.061e-01  linmin:  1.411e-05  t[s]:  83361.48
	Linear fluid (dielectric constant: 78.4, screening length: 8.12261 Bohr) occupying 0.436145 of unit cell:	Completed after 10 iterations at t[s]:  83504.42
	Linear fluid (dielectric constant: 78.4, screening length: 8.12261 Bohr) occupying 0.436144 of unit cell:	Completed after 0 iterations at t[s]:  83599.31
	FillingsUpdate:  mu: -0.156856879  nElectrons: 1178.000000  magneticMoment: [ Abs: 0.00000  Tot: -0.00000 ]
	SubspaceRotationAdjust: set factor to 0.381
ElecMinimize: Iter:   9  F: -8530.466886515632723  |grad|_K:  3.147e-07  alpha:  3.989e-01  linmin:  2.133e-05  t[s]:  83730.69
	Linear fluid (dielectric constant: 78.4, screening length: 8.12261 Bohr) occupying 0.436159 of unit cell:	Completed after 10 iterations at t[s]:  83874.33
	Linear fluid (dielectric constant: 78.4, screening length: 8.12261 Bohr) occupying 0.436158 of unit cell:	Completed after 2 iterations at t[s]:  83969.64
	FillingsUpdate:  mu: -0.157260663  nElectrons: 1178.000000  magneticMoment: [ Abs: 0.00000  Tot: -0.00000 ]
	SubspaceRotationAdjust: set factor to 0.379
ElecMinimize: Iter:  10  F: -8530.466909500182737  |grad|_K:  2.293e-07  alpha:  3.681e-01  linmin:  4.789e-06  t[s]:  84100.85
	Linear fluid (dielectric constant: 78.4, screening length: 8.12261 Bohr) occupying 0.436173 of unit cell:	Completed after 10 iterations at t[s]:  84243.89
	Linear fluid (dielectric constant: 78.4, screening length: 8.12261 Bohr) occupying 0.436171 of unit cell:	Completed after 2 iterations at t[s]:  84338.97
	FillingsUpdate:  mu: -0.156854826  nElectrons: 1178.000000  magneticMoment: [ Abs: 0.00000  Tot: -0.00000 ]
	SubspaceRotationAdjust: set factor to 0.311
ElecMinimize: Iter:  11  F: -8530.466920323129671  |grad|_K:  1.406e-07  alpha:  3.257e-01  linmin:  5.090e-06  t[s]:  84470.30
	Linear fluid (dielectric constant: 78.4, screening length: 8.12261 Bohr) occupying 0.436171 of unit cell:	Completed after 9 iterations at t[s]:  84612.76
	Linear fluid (dielectric constant: 78.4, screening length: 8.12261 Bohr) occupying 0.436171 of unit cell:	Completed after 0 iterations at t[s]:  84707.02
	FillingsUpdate:  mu: -0.157112749  nElectrons: 1178.000000  magneticMoment: [ Abs: 0.00000  Tot: -0.00000 ]
	SubspaceRotationAdjust: set factor to 0.26
ElecMinimize: Iter:  12  F: -8530.466924563901557  |grad|_K:  8.900e-08  alpha:  3.389e-01  linmin: -2.431e-04  t[s]:  84838.92
	Linear fluid (dielectric constant: 78.4, screening length: 8.12261 Bohr) occupying 0.436171 of unit cell:	Completed after 2 iterations at t[s]:  84979.23
	Linear fluid (dielectric constant: 78.4, screening length: 8.12261 Bohr) occupying 0.436171 of unit cell:	Completed after 0 iterations at t[s]:  85073.61
	FillingsUpdate:  mu: -0.157078646  nElectrons: 1178.000000  magneticMoment: [ Abs: 0.00000  Tot: -0.00000 ]
	SubspaceRotationAdjust: set factor to 0.283
ElecMinimize: Iter:  13  F: -8530.466926321969368  |grad|_K:  5.882e-08  alpha:  3.443e-01  linmin: -6.879e-06  t[s]:  85205.22
	Linear fluid (dielectric constant: 78.4, screening length: 8.12261 Bohr) occupying 0.436172 of unit cell:	Completed after 2 iterations at t[s]:  85345.72
	Linear fluid (dielectric constant: 78.4, screening length: 8.12261 Bohr) occupying 0.436172 of unit cell:	Completed after 0 iterations at t[s]:  85439.81
	FillingsUpdate:  mu: -0.157018454  nElectrons: 1178.000000  magneticMoment: [ Abs: 0.00000  Tot: -0.00000 ]
	SubspaceRotationAdjust: set factor to 0.267
ElecMinimize: Iter:  14  F: -8530.466927028686769  |grad|_K:  3.747e-08  alpha:  3.230e-01  linmin: -1.568e-04  t[s]:  85570.97
	Linear fluid (dielectric constant: 78.4, screening length: 8.12261 Bohr) occupying 0.436172 of unit cell:	Completed after 2 iterations at t[s]:  85711.24
	Linear fluid (dielectric constant: 78.4, screening length: 8.12261 Bohr) occupying 0.436172 of unit cell:	Completed after 0 iterations at t[s]:  85805.65
	FillingsUpdate:  mu: -0.157035748  nElectrons: 1178.000000  magneticMoment: [ Abs: 0.00000  Tot: -0.00000 ]
	SubspaceRotationAdjust: set factor to 0.301
ElecMinimize: Iter:  15  F: -8530.466927363377181  |grad|_K:  2.309e-08  alpha:  3.718e-01  linmin: -5.159e-04  t[s]:  85936.92
	Linear fluid (dielectric constant: 78.4, screening length: 8.12261 Bohr) occupying 0.436171 of unit cell:	Completed after 2 iterations at t[s]:  86078.16
	Linear fluid (dielectric constant: 78.4, screening length: 8.12261 Bohr) occupying 0.436171 of unit cell:	Completed after 0 iterations at t[s]:  86172.31
	FillingsUpdate:  mu: -0.157069087  nElectrons: 1178.000000  magneticMoment: [ Abs: 0.00000  Tot: -0.00000 ]
	SubspaceRotationAdjust: set factor to 0.319
ElecMinimize: Iter:  16  F: -8530.466927478537400  |grad|_K:  1.953e-08  alpha:  3.301e-01  linmin: -2.506e-04  t[s]:  86303.53
srun: Job step aborted: Waiting up to 32 seconds for job step to finish.
slurmstepd: error: *** STEP 9676531.0 ON shas0914 CANCELLED AT 2022-03-08T21:31:26 DUE TO TIME LIMIT ***
