
*************** JDFTx 1.6.0  ***************

Start date and time: Thu Feb 17 08:15:26 2022
Executable /projects/musgravc/apps/jdftx-1.6.1/build/jdftx with command-line: -i in
Running on hosts (process indices):  shas0816.rc.int.colorado.edu (0-23)
Divided in process groups (process indices):  0 (0)  1 (1)  2 (2)  3 (3)  4 (4)  5 (5)  6 (6)  7 (7)  8 (8)  9 (9)  10 (10)  11 (11)  12 (12)  13 (13)  14 (14)  15 (15)  16 (16)  17 (17)  18 (18)  19 (19)  20 (20)  21 (21)  22 (22)  23 (23)
Resource initialization completed at t[s]:      0.00
Run totals: 24 processes, 24 threads, 0 GPUs


Input parsed successfully to the following command list (including defaults):

basis kpoint-dependent
converge-empty-states yes
coords-type Cartesian
core-overlap-check none
coulomb-interaction Periodic
davidson-band-ratio 1.1
density-of-states Etol 1.000000e-06 Esigma 1.000000e-03 \
		Complete \
	Total \
	OrthoOrbital Ag 1   s \
	OrthoOrbital Ag 1   p \
	OrthoOrbital Ag 1   px \
	OrthoOrbital Ag 1   py \
	OrthoOrbital Ag 1   pz \
	OrthoOrbital Ag 1   d \
	OrthoOrbital Ag 1   dxy \
	OrthoOrbital Ag 1   dyz \
	OrthoOrbital Ag 1   dz2 \
	OrthoOrbital Ag 1   dxz \
	OrthoOrbital Ag 1   dx2-y2 \
	OrthoOrbital Ag 2   s \
	OrthoOrbital Ag 2   p \
	OrthoOrbital Ag 2   px \
	OrthoOrbital Ag 2   py \
	OrthoOrbital Ag 2   pz \
	OrthoOrbital Ag 2   d \
	OrthoOrbital Ag 2   dxy \
	OrthoOrbital Ag 2   dyz \
	OrthoOrbital Ag 2   dz2 \
	OrthoOrbital Ag 2   dxz \
	OrthoOrbital Ag 2   dx2-y2 \
	OrthoOrbital Ag 3   s \
	OrthoOrbital Ag 3   p \
	OrthoOrbital Ag 3   px \
	OrthoOrbital Ag 3   py \
	OrthoOrbital Ag 3   pz \
	OrthoOrbital Ag 3   d \
	OrthoOrbital Ag 3   dxy \
	OrthoOrbital Ag 3   dyz \
	OrthoOrbital Ag 3   dz2 \
	OrthoOrbital Ag 3   dxz \
	OrthoOrbital Ag 3   dx2-y2 \
	OrthoOrbital Ag 4   s \
	OrthoOrbital Ag 4   p \
	OrthoOrbital Ag 4   px \
	OrthoOrbital Ag 4   py \
	OrthoOrbital Ag 4   pz \
	OrthoOrbital Ag 4   d \
	OrthoOrbital Ag 4   dxy \
	OrthoOrbital Ag 4   dyz \
	OrthoOrbital Ag 4   dz2 \
	OrthoOrbital Ag 4   dxz \
	OrthoOrbital Ag 4   dx2-y2 \
	OrthoOrbital Ag 5   s \
	OrthoOrbital Ag 5   p \
	OrthoOrbital Ag 5   px \
	OrthoOrbital Ag 5   py \
	OrthoOrbital Ag 5   pz \
	OrthoOrbital Ag 5   d \
	OrthoOrbital Ag 5   dxy \
	OrthoOrbital Ag 5   dyz \
	OrthoOrbital Ag 5   dz2 \
	OrthoOrbital Ag 5   dxz \
	OrthoOrbital Ag 5   dx2-y2 \
	OrthoOrbital Ag 6   s \
	OrthoOrbital Ag 6   p \
	OrthoOrbital Ag 6   px \
	OrthoOrbital Ag 6   py \
	OrthoOrbital Ag 6   pz \
	OrthoOrbital Ag 6   d \
	OrthoOrbital Ag 6   dxy \
	OrthoOrbital Ag 6   dyz \
	OrthoOrbital Ag 6   dz2 \
	OrthoOrbital Ag 6   dxz \
	OrthoOrbital Ag 6   dx2-y2 \
	OrthoOrbital Ag 7   s \
	OrthoOrbital Ag 7   p \
	OrthoOrbital Ag 7   px \
	OrthoOrbital Ag 7   py \
	OrthoOrbital Ag 7   pz \
	OrthoOrbital Ag 7   d \
	OrthoOrbital Ag 7   dxy \
	OrthoOrbital Ag 7   dyz \
	OrthoOrbital Ag 7   dz2 \
	OrthoOrbital Ag 7   dxz \
	OrthoOrbital Ag 7   dx2-y2 \
	OrthoOrbital Ag 8   s \
	OrthoOrbital Ag 8   p \
	OrthoOrbital Ag 8   px \
	OrthoOrbital Ag 8   py \
	OrthoOrbital Ag 8   pz \
	OrthoOrbital Ag 8   d \
	OrthoOrbital Ag 8   dxy \
	OrthoOrbital Ag 8   dyz \
	OrthoOrbital Ag 8   dz2 \
	OrthoOrbital Ag 8   dxz \
	OrthoOrbital Ag 8   dx2-y2 \
	OrthoOrbital Ag 9   s \
	OrthoOrbital Ag 9   p \
	OrthoOrbital Ag 9   px \
	OrthoOrbital Ag 9   py \
	OrthoOrbital Ag 9   pz \
	OrthoOrbital Ag 9   d \
	OrthoOrbital Ag 9   dxy \
	OrthoOrbital Ag 9   dyz \
	OrthoOrbital Ag 9   dz2 \
	OrthoOrbital Ag 9   dxz \
	OrthoOrbital Ag 9   dx2-y2 \
	OrthoOrbital Ag 10   s \
	OrthoOrbital Ag 10   p \
	OrthoOrbital Ag 10   px \
	OrthoOrbital Ag 10   py \
	OrthoOrbital Ag 10   pz \
	OrthoOrbital Ag 10   d \
	OrthoOrbital Ag 10   dxy \
	OrthoOrbital Ag 10   dyz \
	OrthoOrbital Ag 10   dz2 \
	OrthoOrbital Ag 10   dxz \
	OrthoOrbital Ag 10   dx2-y2 \
	OrthoOrbital Ag 11   s \
	OrthoOrbital Ag 11   p \
	OrthoOrbital Ag 11   px \
	OrthoOrbital Ag 11   py \
	OrthoOrbital Ag 11   pz \
	OrthoOrbital Ag 11   d \
	OrthoOrbital Ag 11   dxy \
	OrthoOrbital Ag 11   dyz \
	OrthoOrbital Ag 11   dz2 \
	OrthoOrbital Ag 11   dxz \
	OrthoOrbital Ag 11   dx2-y2 \
	OrthoOrbital Ag 12   s \
	OrthoOrbital Ag 12   p \
	OrthoOrbital Ag 12   px \
	OrthoOrbital Ag 12   py \
	OrthoOrbital Ag 12   pz \
	OrthoOrbital Ag 12   d \
	OrthoOrbital Ag 12   dxy \
	OrthoOrbital Ag 12   dyz \
	OrthoOrbital Ag 12   dz2 \
	OrthoOrbital Ag 12   dxz \
	OrthoOrbital Ag 12   dx2-y2 \
	OrthoOrbital Ag 13   s \
	OrthoOrbital Ag 13   p \
	OrthoOrbital Ag 13   px \
	OrthoOrbital Ag 13   py \
	OrthoOrbital Ag 13   pz \
	OrthoOrbital Ag 13   d \
	OrthoOrbital Ag 13   dxy \
	OrthoOrbital Ag 13   dyz \
	OrthoOrbital Ag 13   dz2 \
	OrthoOrbital Ag 13   dxz \
	OrthoOrbital Ag 13   dx2-y2 \
	OrthoOrbital Ag 14   s \
	OrthoOrbital Ag 14   p \
	OrthoOrbital Ag 14   px \
	OrthoOrbital Ag 14   py \
	OrthoOrbital Ag 14   pz \
	OrthoOrbital Ag 14   d \
	OrthoOrbital Ag 14   dxy \
	OrthoOrbital Ag 14   dyz \
	OrthoOrbital Ag 14   dz2 \
	OrthoOrbital Ag 14   dxz \
	OrthoOrbital Ag 14   dx2-y2 \
	OrthoOrbital Ag 15   s \
	OrthoOrbital Ag 15   p \
	OrthoOrbital Ag 15   px \
	OrthoOrbital Ag 15   py \
	OrthoOrbital Ag 15   pz \
	OrthoOrbital Ag 15   d \
	OrthoOrbital Ag 15   dxy \
	OrthoOrbital Ag 15   dyz \
	OrthoOrbital Ag 15   dz2 \
	OrthoOrbital Ag 15   dxz \
	OrthoOrbital Ag 15   dx2-y2 \
	OrthoOrbital Ag 16   s \
	OrthoOrbital Ag 16   p \
	OrthoOrbital Ag 16   px \
	OrthoOrbital Ag 16   py \
	OrthoOrbital Ag 16   pz \
	OrthoOrbital Ag 16   d \
	OrthoOrbital Ag 16   dxy \
	OrthoOrbital Ag 16   dyz \
	OrthoOrbital Ag 16   dz2 \
	OrthoOrbital Ag 16   dxz \
	OrthoOrbital Ag 16   dx2-y2 \
	OrthoOrbital Ag 17   s \
	OrthoOrbital Ag 17   p \
	OrthoOrbital Ag 17   px \
	OrthoOrbital Ag 17   py \
	OrthoOrbital Ag 17   pz \
	OrthoOrbital Ag 17   d \
	OrthoOrbital Ag 17   dxy \
	OrthoOrbital Ag 17   dyz \
	OrthoOrbital Ag 17   dz2 \
	OrthoOrbital Ag 17   dxz \
	OrthoOrbital Ag 17   dx2-y2 \
	OrthoOrbital Ag 18   s \
	OrthoOrbital Ag 18   p \
	OrthoOrbital Ag 18   px \
	OrthoOrbital Ag 18   py \
	OrthoOrbital Ag 18   pz \
	OrthoOrbital Ag 18   d \
	OrthoOrbital Ag 18   dxy \
	OrthoOrbital Ag 18   dyz \
	OrthoOrbital Ag 18   dz2 \
	OrthoOrbital Ag 18   dxz \
	OrthoOrbital Ag 18   dx2-y2 \
	OrthoOrbital Ag 19   s \
	OrthoOrbital Ag 19   p \
	OrthoOrbital Ag 19   px \
	OrthoOrbital Ag 19   py \
	OrthoOrbital Ag 19   pz \
	OrthoOrbital Ag 19   d \
	OrthoOrbital Ag 19   dxy \
	OrthoOrbital Ag 19   dyz \
	OrthoOrbital Ag 19   dz2 \
	OrthoOrbital Ag 19   dxz \
	OrthoOrbital Ag 19   dx2-y2 \
	OrthoOrbital Ag 20   s \
	OrthoOrbital Ag 20   p \
	OrthoOrbital Ag 20   px \
	OrthoOrbital Ag 20   py \
	OrthoOrbital Ag 20   pz \
	OrthoOrbital Ag 20   d \
	OrthoOrbital Ag 20   dxy \
	OrthoOrbital Ag 20   dyz \
	OrthoOrbital Ag 20   dz2 \
	OrthoOrbital Ag 20   dxz \
	OrthoOrbital Ag 20   dx2-y2 \
	OrthoOrbital Ag 21   s \
	OrthoOrbital Ag 21   p \
	OrthoOrbital Ag 21   px \
	OrthoOrbital Ag 21   py \
	OrthoOrbital Ag 21   pz \
	OrthoOrbital Ag 21   d \
	OrthoOrbital Ag 21   dxy \
	OrthoOrbital Ag 21   dyz \
	OrthoOrbital Ag 21   dz2 \
	OrthoOrbital Ag 21   dxz \
	OrthoOrbital Ag 21   dx2-y2 \
	OrthoOrbital Ag 22   s \
	OrthoOrbital Ag 22   p \
	OrthoOrbital Ag 22   px \
	OrthoOrbital Ag 22   py \
	OrthoOrbital Ag 22   pz \
	OrthoOrbital Ag 22   d \
	OrthoOrbital Ag 22   dxy \
	OrthoOrbital Ag 22   dyz \
	OrthoOrbital Ag 22   dz2 \
	OrthoOrbital Ag 22   dxz \
	OrthoOrbital Ag 22   dx2-y2 \
	OrthoOrbital Ag 23   s \
	OrthoOrbital Ag 23   p \
	OrthoOrbital Ag 23   px \
	OrthoOrbital Ag 23   py \
	OrthoOrbital Ag 23   pz \
	OrthoOrbital Ag 23   d \
	OrthoOrbital Ag 23   dxy \
	OrthoOrbital Ag 23   dyz \
	OrthoOrbital Ag 23   dz2 \
	OrthoOrbital Ag 23   dxz \
	OrthoOrbital Ag 23   dx2-y2 \
	OrthoOrbital Ag 24   s \
	OrthoOrbital Ag 24   p \
	OrthoOrbital Ag 24   px \
	OrthoOrbital Ag 24   py \
	OrthoOrbital Ag 24   pz \
	OrthoOrbital Ag 24   d \
	OrthoOrbital Ag 24   dxy \
	OrthoOrbital Ag 24   dyz \
	OrthoOrbital Ag 24   dz2 \
	OrthoOrbital Ag 24   dxz \
	OrthoOrbital Ag 24   dx2-y2 \
	OrthoOrbital Ag 25   s \
	OrthoOrbital Ag 25   p \
	OrthoOrbital Ag 25   px \
	OrthoOrbital Ag 25   py \
	OrthoOrbital Ag 25   pz \
	OrthoOrbital Ag 25   d \
	OrthoOrbital Ag 25   dxy \
	OrthoOrbital Ag 25   dyz \
	OrthoOrbital Ag 25   dz2 \
	OrthoOrbital Ag 25   dxz \
	OrthoOrbital Ag 25   dx2-y2 \
	OrthoOrbital Ag 26   s \
	OrthoOrbital Ag 26   p \
	OrthoOrbital Ag 26   px \
	OrthoOrbital Ag 26   py \
	OrthoOrbital Ag 26   pz \
	OrthoOrbital Ag 26   d \
	OrthoOrbital Ag 26   dxy \
	OrthoOrbital Ag 26   dyz \
	OrthoOrbital Ag 26   dz2 \
	OrthoOrbital Ag 26   dxz \
	OrthoOrbital Ag 26   dx2-y2 \
	OrthoOrbital Ag 27   s \
	OrthoOrbital Ag 27   p \
	OrthoOrbital Ag 27   px \
	OrthoOrbital Ag 27   py \
	OrthoOrbital Ag 27   pz \
	OrthoOrbital Ag 27   d \
	OrthoOrbital Ag 27   dxy \
	OrthoOrbital Ag 27   dyz \
	OrthoOrbital Ag 27   dz2 \
	OrthoOrbital Ag 27   dxz \
	OrthoOrbital Ag 27   dx2-y2 \
	OrthoOrbital Ag 28   s \
	OrthoOrbital Ag 28   p \
	OrthoOrbital Ag 28   px \
	OrthoOrbital Ag 28   py \
	OrthoOrbital Ag 28   pz \
	OrthoOrbital Ag 28   d \
	OrthoOrbital Ag 28   dxy \
	OrthoOrbital Ag 28   dyz \
	OrthoOrbital Ag 28   dz2 \
	OrthoOrbital Ag 28   dxz \
	OrthoOrbital Ag 28   dx2-y2 \
	OrthoOrbital Ag 29   s \
	OrthoOrbital Ag 29   p \
	OrthoOrbital Ag 29   px \
	OrthoOrbital Ag 29   py \
	OrthoOrbital Ag 29   pz \
	OrthoOrbital Ag 29   d \
	OrthoOrbital Ag 29   dxy \
	OrthoOrbital Ag 29   dyz \
	OrthoOrbital Ag 29   dz2 \
	OrthoOrbital Ag 29   dxz \
	OrthoOrbital Ag 29   dx2-y2 \
	OrthoOrbital Ag 30   s \
	OrthoOrbital Ag 30   p \
	OrthoOrbital Ag 30   px \
	OrthoOrbital Ag 30   py \
	OrthoOrbital Ag 30   pz \
	OrthoOrbital Ag 30   d \
	OrthoOrbital Ag 30   dxy \
	OrthoOrbital Ag 30   dyz \
	OrthoOrbital Ag 30   dz2 \
	OrthoOrbital Ag 30   dxz \
	OrthoOrbital Ag 30   dx2-y2 \
	OrthoOrbital Ag 31   s \
	OrthoOrbital Ag 31   p \
	OrthoOrbital Ag 31   px \
	OrthoOrbital Ag 31   py \
	OrthoOrbital Ag 31   pz \
	OrthoOrbital Ag 31   d \
	OrthoOrbital Ag 31   dxy \
	OrthoOrbital Ag 31   dyz \
	OrthoOrbital Ag 31   dz2 \
	OrthoOrbital Ag 31   dxz \
	OrthoOrbital Ag 31   dx2-y2 \
	OrthoOrbital Ag 32   s \
	OrthoOrbital Ag 32   p \
	OrthoOrbital Ag 32   px \
	OrthoOrbital Ag 32   py \
	OrthoOrbital Ag 32   pz \
	OrthoOrbital Ag 32   d \
	OrthoOrbital Ag 32   dxy \
	OrthoOrbital Ag 32   dyz \
	OrthoOrbital Ag 32   dz2 \
	OrthoOrbital Ag 32   dxz \
	OrthoOrbital Ag 32   dx2-y2 \
	OrthoOrbital Ag 33   s \
	OrthoOrbital Ag 33   p \
	OrthoOrbital Ag 33   px \
	OrthoOrbital Ag 33   py \
	OrthoOrbital Ag 33   pz \
	OrthoOrbital Ag 33   d \
	OrthoOrbital Ag 33   dxy \
	OrthoOrbital Ag 33   dyz \
	OrthoOrbital Ag 33   dz2 \
	OrthoOrbital Ag 33   dxz \
	OrthoOrbital Ag 33   dx2-y2 \
	OrthoOrbital Ag 34   s \
	OrthoOrbital Ag 34   p \
	OrthoOrbital Ag 34   px \
	OrthoOrbital Ag 34   py \
	OrthoOrbital Ag 34   pz \
	OrthoOrbital Ag 34   d \
	OrthoOrbital Ag 34   dxy \
	OrthoOrbital Ag 34   dyz \
	OrthoOrbital Ag 34   dz2 \
	OrthoOrbital Ag 34   dxz \
	OrthoOrbital Ag 34   dx2-y2 \
	OrthoOrbital Ag 35   s \
	OrthoOrbital Ag 35   p \
	OrthoOrbital Ag 35   px \
	OrthoOrbital Ag 35   py \
	OrthoOrbital Ag 35   pz \
	OrthoOrbital Ag 35   d \
	OrthoOrbital Ag 35   dxy \
	OrthoOrbital Ag 35   dyz \
	OrthoOrbital Ag 35   dz2 \
	OrthoOrbital Ag 35   dxz \
	OrthoOrbital Ag 35   dx2-y2 \
	OrthoOrbital Ag 36   s \
	OrthoOrbital Ag 36   p \
	OrthoOrbital Ag 36   px \
	OrthoOrbital Ag 36   py \
	OrthoOrbital Ag 36   pz \
	OrthoOrbital Ag 36   d \
	OrthoOrbital Ag 36   dxy \
	OrthoOrbital Ag 36   dyz \
	OrthoOrbital Ag 36   dz2 \
	OrthoOrbital Ag 36   dxz \
	OrthoOrbital Ag 36   dx2-y2 \
	OrthoOrbital Ag 37   s \
	OrthoOrbital Ag 37   p \
	OrthoOrbital Ag 37   px \
	OrthoOrbital Ag 37   py \
	OrthoOrbital Ag 37   pz \
	OrthoOrbital Ag 37   d \
	OrthoOrbital Ag 37   dxy \
	OrthoOrbital Ag 37   dyz \
	OrthoOrbital Ag 37   dz2 \
	OrthoOrbital Ag 37   dxz \
	OrthoOrbital Ag 37   dx2-y2 \
	OrthoOrbital Ag 38   s \
	OrthoOrbital Ag 38   p \
	OrthoOrbital Ag 38   px \
	OrthoOrbital Ag 38   py \
	OrthoOrbital Ag 38   pz \
	OrthoOrbital Ag 38   d \
	OrthoOrbital Ag 38   dxy \
	OrthoOrbital Ag 38   dyz \
	OrthoOrbital Ag 38   dz2 \
	OrthoOrbital Ag 38   dxz \
	OrthoOrbital Ag 38   dx2-y2 \
	OrthoOrbital Ag 39   s \
	OrthoOrbital Ag 39   p \
	OrthoOrbital Ag 39   px \
	OrthoOrbital Ag 39   py \
	OrthoOrbital Ag 39   pz \
	OrthoOrbital Ag 39   d \
	OrthoOrbital Ag 39   dxy \
	OrthoOrbital Ag 39   dyz \
	OrthoOrbital Ag 39   dz2 \
	OrthoOrbital Ag 39   dxz \
	OrthoOrbital Ag 39   dx2-y2 \
	OrthoOrbital Ag 40   s \
	OrthoOrbital Ag 40   p \
	OrthoOrbital Ag 40   px \
	OrthoOrbital Ag 40   py \
	OrthoOrbital Ag 40   pz \
	OrthoOrbital Ag 40   d \
	OrthoOrbital Ag 40   dxy \
	OrthoOrbital Ag 40   dyz \
	OrthoOrbital Ag 40   dz2 \
	OrthoOrbital Ag 40   dxz \
	OrthoOrbital Ag 40   dx2-y2 \
	OrthoOrbital C 1   s \
	OrthoOrbital C 1   p \
	OrthoOrbital C 1   px \
	OrthoOrbital C 1   py \
	OrthoOrbital C 1   pz \
	OrthoOrbital O 1   s \
	OrthoOrbital O 1   p \
	OrthoOrbital O 1   px \
	OrthoOrbital O 1   py \
	OrthoOrbital O 1   pz
dump End ElecDensity KEdensity BandEigs EigStats RhoAtom DOS Kpoints
dump Ionic State IonicPositions Lattice EigStats Ecomponents
dump 
dump 
dump 
dump 
dump 
dump 
dump 
dump 
dump-name jdft.$VAR
elec-cutoff 20
elec-eigen-algo Davidson
elec-ex-corr gga-PBE
elec-initial-magnetization 0.000000 no
elec-n-bands 462
elec-smearing Fermi 0.001
electronic-minimize  \
	dirUpdateScheme      FletcherReeves \
	linminMethod         DirUpdateRecommended \
	nIterations          100 \
	history              15 \
	knormThreshold       0 \
	energyDiffThreshold  1e-07 \
	nEnergyDiff          2 \
	alphaTstart          1 \
	alphaTmin            1e-10 \
	updateTestStepSize   yes \
	alphaTreduceFactor   0.1 \
	alphaTincreaseFactor 3 \
	nAlphaAdjustMax      3 \
	wolfeEnergy          0.0001 \
	wolfeGradient        0.9 \
	fdTest               no
exchange-regularization WignerSeitzTruncated
fluid LinearPCM 298.000000 1.013250
fluid-anion F- 0.5 MeanFieldLJ \
	epsBulk 1 \
	pMol 0 \
	epsInf 1 \
	Pvap 0 \
	sigmaBulk 0 \
	Rvdw 2.24877 \
	Res 0 \
	tauNuc 343133
fluid-cation Na+ 0.5 MeanFieldLJ \
	epsBulk 1 \
	pMol 0 \
	epsInf 1 \
	Pvap 0 \
	sigmaBulk 0 \
	Rvdw 2.19208 \
	Res 0 \
	tauNuc 343133
fluid-ex-corr lda-TF lda-PZ
fluid-gummel-loop 10 1.000000e-05
fluid-minimize  \
	dirUpdateScheme      PolakRibiere \
	linminMethod         DirUpdateRecommended \
	nIterations          400 \
	history              15 \
	knormThreshold       1e-11 \
	energyDiffThreshold  0 \
	nEnergyDiff          2 \
	alphaTstart          1 \
	alphaTmin            1e-10 \
	updateTestStepSize   yes \
	alphaTreduceFactor   0.1 \
	alphaTincreaseFactor 3 \
	nAlphaAdjustMax      6 \
	wolfeEnergy          0.0001 \
	wolfeGradient        0.9 \
	fdTest               no
fluid-solvent H2O 55.338 ScalarEOS \
	epsBulk 78.4 \
	pMol 0.92466 \
	epsInf 1.77 \
	Pvap 1.06736e-10 \
	sigmaBulk 4.62e-05 \
	Rvdw 2.61727 \
	Res 1.42 \
	tauNuc 343133 \
	poleEl 15 7 1
forces-output-coords Positions
ion Ag   3.835417000000000   1.682334000000000  13.043153000000000 0
ion Ag   0.002582000000000  10.252812000000002  13.043153000000000 0
ion Ag  11.501085999999999   1.682334000000000  13.043153000000000 0
ion Ag   7.668251000000000  10.252812000000002  13.043153000000000 0
ion Ag  -0.000736000000000   3.395349000000000   9.424063000000000 0
ion Ag  -3.833556000000000  11.965828000000002   9.424063000000000 0
ion Ag   7.664932000000000   3.395349000000000   9.424063000000000 0
ion Ag   3.832112000000000  11.965828000000002   9.424063000000000 0
ion Ag   3.832742000000000   5.197413000000001   5.972663000000000 0
ion Ag  -0.000094000000000  13.767891000000002   5.972663000000000 0
ion Ag  11.498410000000000   5.197413000000001   5.972663000000000 0
ion Ag   7.665575000000000  13.767891000000002   5.972663000000000 0
ion Ag  -0.002722000000000   6.958834000000002   2.379593000000000 0
ion Ag  -3.835557000000001  15.529313000000004   2.379593000000000 0
ion Ag   7.662945999999999   6.958834000000002   2.379593000000000 0
ion Ag   3.830110999999999  15.529313000000004   2.379593000000000 0
ion Ag   7.669207999999998  17.005235000000003  16.291689999999999 0
ion Ag  11.502043000000000   8.434757000000001  16.291689999999999 0
ion Ag   0.003540000000000  17.005235000000003  16.291689999999999 0
ion Ag   3.836374999999999   8.434757000000001  16.291689999999999 0
ion Ag   3.833408000000000   6.801035000000001  11.168018000000000 0
ion Ag   0.000580999999999  15.371531000000001  11.168018000000000 0
ion Ag  11.499076999999998   6.801035000000001  11.168018000000000 0
ion Ag   7.666249000000000  15.371531000000001  11.168018000000000 0
ion Ag   3.833056000000000   0.031488000000000   7.715897999999999 0
ion Ag   0.000220999999999   8.601967000000002   7.715897999999999 0
ion Ag  11.498725000000000   0.031488000000000   7.715897999999999 0
ion Ag   7.665889999999999   8.601967000000002   7.715897999999999 0
ion Ag  -0.003434000000000   1.745429000000000   4.098042000000000 0
ion Ag  -3.836277000000000  10.315891000000002   4.098042000000000 0
ion Ag   7.662233999999999   1.745429000000000   4.098042000000000 0
ion Ag   3.829406000000000  10.315891000000002   4.098042000000000 0
ion Ag   3.830595000000000   3.565593000000000   0.850020000000000 0
ion Ag  -0.002240000000000  12.136072000000002   0.850020000000000 0
ion Ag  11.496263999999998   3.565593000000000   0.850020000000000 0
ion Ag   7.663429000000000  12.136072000000002   0.850020000000000 0
ion Ag   0.002330000000000   5.040161000000001  14.761654000000000 0
ion Ag  -3.830505000000001  13.610640000000002  14.761654000000000 0
ion Ag   7.667997999999999   5.040161000000001  14.761654000000000 0
ion Ag   3.835162999999999  13.610640000000002  14.761654000000000 0
ion C   7.667997999999999   5.040161000000001  18.026903000000001 1  Linear 0 0 1
ion O   7.728096999999998   5.040161000000001  20.182241000000001 1  Linear 0 0 1
ion-species /projects/musgravc/apps/jdftx-1.6.0/build/pseudopotentials/GBRV_v1.5/$ID_pbe_v1.uspp
ion-species /projects/musgravc/apps/jdftx-1.6.0/build/pseudopotentials/GBRV_v1.5/$ID_pbe_v1.2.uspp
ion-species /projects/musgravc/apps/jdftx-1.6.0/build/pseudopotentials/GBRV_v1.5/$ID_pbe_v1.4.uspp
ion-species /projects/musgravc/apps/jdftx-1.6.0/build/pseudopotentials/GBRV_v1.5/$ID_pbe_v1.5.uspp
ion-width Ecut
ionic-minimize  \
	dirUpdateScheme      L-BFGS \
	linminMethod         DirUpdateRecommended \
	nIterations          100 \
	history              15 \
	knormThreshold       0.0001 \
	energyDiffThreshold  1e-06 \
	nEnergyDiff          2 \
	alphaTstart          1 \
	alphaTmin            1e-10 \
	updateTestStepSize   yes \
	alphaTreduceFactor   0.1 \
	alphaTincreaseFactor 3 \
	nAlphaAdjustMax      3 \
	wolfeEnergy          0.0001 \
	wolfeGradient        0.9 \
	fdTest               no
kpoint   0.000000000000   0.000000000000   0.000000000000  1.00000000000000
kpoint-folding 4 3 1 
latt-move-scale 0 0 0
latt-scale 1 1 1 
lattice  \
	  15.331337000000000   -7.665670000000000    0.000000000000000  \
	   0.000000000000000   17.140957000000000    0.000000000000000  \
	   0.000000000000000    0.000000000000000   51.422865999999999 
lattice-minimize  \
	dirUpdateScheme      L-BFGS \
	linminMethod         DirUpdateRecommended \
	nIterations          0 \
	history              15 \
	knormThreshold       0 \
	energyDiffThreshold  1e-06 \
	nEnergyDiff          2 \
	alphaTstart          1 \
	alphaTmin            1e-10 \
	updateTestStepSize   yes \
	alphaTreduceFactor   0.1 \
	alphaTincreaseFactor 3 \
	nAlphaAdjustMax      3 \
	wolfeEnergy          0.0001 \
	wolfeGradient        0.9 \
	fdTest               no
lcao-params 30 1e-06 0.001
pcm-variant CANDLE
spintype z-spin
subspace-rotation-factor 1 yes
symmetries automatic
symmetry-threshold 0.0001
van-der-waals D3



---------- Setting up symmetries ----------

Found 8 point-group symmetries of the bravais lattice
Found 1 space-group symmetries with basis
Applied RMS atom displacement 0 bohrs to make symmetries exact.

---------- Initializing the Grid ----------
R = 
[      15.3313     -7.66567            0  ]
[            0       17.141            0  ]
[            0            0      51.4229  ]
unit cell volume = 13513.6
G =
[   0.409826    0.18328         -0  ]
[          0    0.36656          0  ]
[          0         -0   0.122187  ]
Minimum fftbox size, Smin = [  64  76  208  ]
Chosen fftbox size, S = [  64  80  210  ]

---------- Exchange Correlation functional ----------
Initalized PBE GGA exchange.
Initalized PBE GGA correlation.

---------- Setting up pseudopotentials ----------
Width of ionic core gaussian charges (only for fluid interactions / plotting) set to 0.397384

Reading pseudopotential file '/projects/musgravc/apps/jdftx-1.6.0/build/pseudopotentials/GBRV_v1.5/ag_pbe_v1.4.uspp':
  Title: Ag.  Created by USPP 7.3.6 on 1-4-15
  Reference state energy: -147.606242.  19 valence electrons in orbitals:
    |400>  occupation: 2  eigenvalue: -3.637437
    |410>  occupation: 6  eigenvalue: -2.297267
    |420>  occupation: 10  eigenvalue: -0.417763
    |500>  occupation: 0.5  eigenvalue: -0.283525
    |510>  occupation: 0  eigenvalue: -0.122889
  lMax: 2  lLocal: 0  QijEcut: 5.5
  6 projectors sampled on a log grid with 717 points:
    l: 0  eig: -0.283528  rCut: 1.5
    l: 0  eig: -3.637440  rCut: 1.5
    l: 1  eig: -0.122892  rCut: 1.5
    l: 1  eig: -2.297267  rCut: 1.5
    l: 2  eig: -0.417762  rCut: 1.7
    l: 2  eig: -1.000000  rCut: 1.7
  Partial core density with radius 1.2
  Transforming core density to a uniform radial grid of dG=0.02 with 1382 points.
  Transforming local potential to a uniform radial grid of dG=0.02 with 1382 points.
  Transforming nonlocal projectors to a uniform radial grid of dG=0.02 with 432 points.
  Transforming density augmentations to a uniform radial grid of dG=0.02 with 1382 points.
  Transforming atomic orbitals to a uniform radial grid of dG=0.02 with 432 points.
  Core radius for overlap checks: 1.70 bohrs.

Reading pseudopotential file '/projects/musgravc/apps/jdftx-1.6.0/build/pseudopotentials/GBRV_v1.5/c_pbe_v1.2.uspp':
  Title: C.  Created by USPP 7.3.6 on 3-2-2014
  Reference state energy: -5.406344.  4 valence electrons in orbitals:
    |200>  occupation: 2  eigenvalue: -0.504890
    |210>  occupation: 2  eigenvalue: -0.194356
  lMax: 1  lLocal: 2  QijEcut: 5
  4 projectors sampled on a log grid with 503 points:
    l: 0  eig: -0.504890  rCut: 1.3
    l: 0  eig: 0.000000  rCut: 1.3
    l: 1  eig: -0.194357  rCut: 1.3
    l: 1  eig: 0.000000  rCut: 1.3
  Partial core density with radius 1.1
  Transforming core density to a uniform radial grid of dG=0.02 with 1382 points.
  Transforming local potential to a uniform radial grid of dG=0.02 with 1382 points.
  Transforming nonlocal projectors to a uniform radial grid of dG=0.02 with 432 points.
  Transforming density augmentations to a uniform radial grid of dG=0.02 with 1382 points.
  Transforming atomic orbitals to a uniform radial grid of dG=0.02 with 432 points.
  Core radius for overlap checks: 1.30 bohrs.

Reading pseudopotential file '/projects/musgravc/apps/jdftx-1.6.0/build/pseudopotentials/GBRV_v1.5/o_pbe_v1.2.uspp':
  Title: O.  Created by USPP 7.3.6 on 3-2-2014
  Reference state energy: -15.894388.  6 valence electrons in orbitals:
    |200>  occupation: 2  eigenvalue: -0.878823
    |210>  occupation: 4  eigenvalue: -0.332131
  lMax: 2  lLocal: 2  QijEcut: 6
  5 projectors sampled on a log grid with 511 points:
    l: 0  eig: -0.878823  rCut: 1.25
    l: 0  eig: 0.000000  rCut: 1.25
    l: 1  eig: -0.332132  rCut: 1.25
    l: 1  eig: 0.000000  rCut: 1.25
    l: 2  eig: 1.000000  rCut: 1.25
  Partial core density with radius 0.7
  Transforming core density to a uniform radial grid of dG=0.02 with 1382 points.
  Transforming local potential to a uniform radial grid of dG=0.02 with 1382 points.
  Transforming nonlocal projectors to a uniform radial grid of dG=0.02 with 432 points.
  Transforming density augmentations to a uniform radial grid of dG=0.02 with 1382 points.
  Transforming atomic orbitals to a uniform radial grid of dG=0.02 with 432 points.
  Core radius for overlap checks: 1.25 bohrs.

Initialized 3 species with 42 total atoms.

Folded 1 k-points by 4x3x1 to 12 k-points.

---------- Setting up k-points, bands, fillings ----------
Adding inversion symmetry to k-mesh for non-inversion-symmetric unit cell.
Reduced to 7 k-points under symmetry. 
Computing the number of bands and number of electrons
Calculating initial fillings.
nElectrons: 770.000000   nBands: 462   nStates: 14

----- Setting up reduced wavefunction bases (one per k-point) -----
average nbasis = 57732.917 , ideal nbasis = 57731.171

----- Initializing Supercell corresponding to k-point mesh -----
Lattice vector linear combinations in supercell:
[   4   0   0  ]
[   0   3   0  ]
[   0   0   1  ]
Supercell lattice vectors:
[  61.3253  -22.997  0  ]
[  0  51.4229  0  ]
[  0  0  51.4229  ]

Initializing DFT-D3 calculator:
	Parameters set for gga-PBE functional
	s6:  1.000  s_r6:  1.217
	s8:  0.722  s_r8:  1.000
	Per-atom parameters loaded for:
	Ag:  sqrtQ[a0]:  5.443  Rcov[a0]:  2.173  CN: [ 0.00 0.97 ]
	 C:  sqrtQ[a0]:  3.105  Rcov[a0]:  1.417  CN: [ 0.00 0.99 2.00 3.00 3.98 ]
	 O:  sqrtQ[a0]:  2.594  Rcov[a0]:  1.191  CN: [ 0.00 0.99 1.99 ]

Initializing DFT-D2 calculator for fluid / solvation:
	Ag:  C6:  427.91 Eh-a0^6  R0: 3.097 a0
	 C:  C6:   30.35 Eh-a0^6  R0: 2.744 a0
	 O:  C6:   12.14 Eh-a0^6  R0: 2.536 a0

---------- Setting up ewald sum ----------
Optimum gaussian width for ewald sums = 5.096738 bohr.
Real space sum over 495 unit cells with max indices [  5  4  2  ]
Reciprocal space sum over 6825 terms with max indices [  6  7  17  ]

Computing DFT-D3 correction:
# coordination-number Ag 8.154 8.148 8.154 8.153 8.779 8.779 8.779 8.779 8.867 8.866 8.867 8.866 6.732 6.732 6.732 6.732 4.847 4.993 4.976 4.992 8.866 8.865 8.866 8.865 8.780 8.780 8.780 8.780 8.150 8.150 8.150 8.150 4.847 4.847 4.847 4.847 6.733 6.731 7.789 6.731
# coordination-number C 2.425
# coordination-number O 1.087
# diagonal-C6 Ag 268.61 268.61 268.61 268.61 268.61 268.61 268.61 268.61 268.61 268.61 268.61 268.61 268.61 268.61 268.61 268.61 268.61 268.61 268.61 268.61 268.61 268.61 268.61 268.61 268.61 268.61 268.61 268.61 268.61 268.61 268.61 268.61 268.61 268.61 268.61 268.61 268.61 268.61 268.61 268.61
# diagonal-C6 C 28.05
# diagonal-C6 O 12.74
EvdW_6 =   -0.222218
EvdW_8 =   -0.317436

---------- Allocating electronic variables ----------
Initializing wave functions:  linear combination of atomic orbitals
Ag pseudo-atom occupations:   s ( 2 1 )  p ( 6 0 )  d ( 10 )
C pseudo-atom occupations:   s ( 2 )  p ( 2 )
O pseudo-atom occupations:   s ( 2 )  p ( 4 )
	FillingsUpdate:  mu: -0.019073713  nElectrons: 770.000000  magneticMoment: [ Abs: 0.00338  Tot: -0.00004 ]
LCAOMinimize: Iter:   0  F: -5924.6260373019767940  |grad|_K:  1.848e-03  alpha:  1.000e+00
	FillingsUpdate:  mu: +0.140344893  nElectrons: 770.000000  magneticMoment: [ Abs: 0.00290  Tot: +0.00001 ]
LCAOMinimize: Iter:   1  F: -5925.1763537906135753  |grad|_K:  1.429e-03  alpha:  1.417e-01  linmin:  4.372e-02  cgtest: -4.901e-01  t[s]:    190.48
	FillingsUpdate:  mu: +0.173366367  nElectrons: 770.000000  magneticMoment: [ Abs: 0.00266  Tot: -0.00000 ]
LCAOMinimize: Iter:   2  F: -5925.3368765368386448  |grad|_K:  9.263e-04  alpha:  6.593e-02  linmin:  6.621e-03  cgtest:  5.334e-01  t[s]:    262.14
	FillingsUpdate:  mu: +0.093616305  nElectrons: 770.000000  magneticMoment: [ Abs: 0.00263  Tot: -0.00000 ]
LCAOMinimize: Iter:   3  F: -5925.5425618686940652  |grad|_K:  3.276e-04  alpha:  1.259e-01  linmin:  2.616e-02  cgtest: -1.177e-01  t[s]:    334.14
	FillingsUpdate:  mu: +0.092021430  nElectrons: 770.000000  magneticMoment: [ Abs: 0.00253  Tot: +0.00001 ]
LCAOMinimize: Iter:   4  F: -5925.5717427384570328  |grad|_K:  3.648e-04  alpha:  1.481e-01  linmin: -2.112e-03  cgtest:  7.698e-02  t[s]:    406.22
	FillingsUpdate:  mu: +0.108625221  nElectrons: 770.000000  magneticMoment: [ Abs: 0.00240  Tot: +0.00002 ]
LCAOMinimize: Iter:   5  F: -5925.6025135169711575  |grad|_K:  1.164e-04  alpha:  1.164e-01  linmin: -1.306e-03  cgtest: -3.209e-01  t[s]:    478.74
	FillingsUpdate:  mu: +0.112916982  nElectrons: 770.000000  magneticMoment: [ Abs: 0.00235  Tot: +0.00002 ]
LCAOMinimize: Iter:   6  F: -5925.6067688082821405  |grad|_K:  8.566e-05  alpha:  1.582e-01  linmin: -1.858e-03  cgtest: -4.578e-02  t[s]:    550.87
	FillingsUpdate:  mu: +0.111352973  nElectrons: 770.000000  magneticMoment: [ Abs: 0.00234  Tot: +0.00002 ]
LCAOMinimize: Iter:   7  F: -5925.6081019338389524  |grad|_K:  2.924e-05  alpha:  9.155e-02  linmin:  2.657e-04  cgtest: -7.128e-02  t[s]:    623.11
	FillingsUpdate:  mu: +0.109848346  nElectrons: 770.000000  magneticMoment: [ Abs: 0.00234  Tot: +0.00002 ]
LCAOMinimize: Iter:   8  F: -5925.6082462876729551  |grad|_K:  1.160e-05  alpha:  8.628e-02  linmin:  2.333e-04  cgtest:  8.429e-03  t[s]:    695.45
	FillingsUpdate:  mu: +0.109354449  nElectrons: 770.000000  magneticMoment: [ Abs: 0.00234  Tot: +0.00002 ]
LCAOMinimize: Iter:   9  F: -5925.6082926184053576  |grad|_K:  1.178e-05  alpha:  1.759e-01  linmin:  4.803e-06  cgtest:  1.806e-04  t[s]:    767.68
	FillingsUpdate:  mu: +0.109501120  nElectrons: 770.000000  magneticMoment: [ Abs: 0.00235  Tot: +0.00002 ]
LCAOMinimize: Iter:  10  F: -5925.6083258319995366  |grad|_K:  6.840e-06  alpha:  1.222e-01  linmin: -7.034e-06  cgtest: -1.443e-03  t[s]:    840.18
	FillingsUpdate:  mu: +0.109830420  nElectrons: 770.000000  magneticMoment: [ Abs: 0.00235  Tot: +0.00002 ]
LCAOMinimize: Iter:  11  F: -5925.6083388151964755  |grad|_K:  4.938e-06  alpha:  1.416e-01  linmin:  2.176e-05  cgtest:  4.726e-04  t[s]:    912.27
	FillingsUpdate:  mu: +0.109734077  nElectrons: 770.000000  magneticMoment: [ Abs: 0.00236  Tot: +0.00002 ]
LCAOMinimize: Iter:  12  F: -5925.6083455374082405  |grad|_K:  3.572e-06  alpha:  1.407e-01  linmin:  1.336e-05  cgtest:  4.628e-05  t[s]:    984.40
	FillingsUpdate:  mu: +0.109562924  nElectrons: 770.000000  magneticMoment: [ Abs: 0.00236  Tot: +0.00002 ]
LCAOMinimize: Iter:  13  F: -5925.6083480239858545  |grad|_K:  1.775e-06  alpha:  9.943e-02  linmin:  1.315e-05  cgtest:  2.110e-03  t[s]:   1056.84
	FillingsUpdate:  mu: +0.109519843  nElectrons: 770.000000  magneticMoment: [ Abs: 0.00236  Tot: +0.00002 ]
LCAOMinimize: Iter:  14  F: -5925.6083490461396650  |grad|_K:  1.317e-06  alpha:  1.657e-01  linmin: -5.076e-05  cgtest:  5.913e-04  t[s]:   1130.43
	FillingsUpdate:  mu: +0.109567585  nElectrons: 770.000000  magneticMoment: [ Abs: 0.00236  Tot: +0.00002 ]
LCAOMinimize: Iter:  15  F: -5925.6083493699461542  |grad|_K:  6.904e-07  alpha:  9.507e-02  linmin:  7.879e-05  cgtest: -1.467e-03  t[s]:   1202.86
	FillingsUpdate:  mu: +0.109623289  nElectrons: 770.000000  magneticMoment: [ Abs: 0.00236  Tot: +0.00002 ]
LCAOMinimize: Iter:  16  F: -5925.6083494996191803  |grad|_K:  5.116e-07  alpha:  1.393e-01  linmin:  4.612e-04  cgtest: -2.682e-03  t[s]:   1275.17
LCAOMinimize: Converged (|Delta F|<1.000000e-06 for 2 iters).
----- createFluidSolver() ----- (Fluid-side solver setup)
   Initializing fluid molecule 'H2O'
     Initializing site 'O'
       Electron density: proportional to exp(-r/0.36935)*erfc((r-0.51523)/0.36823) with norm 6.826
       Charge density: gaussian nuclear width 0.478731 with net site charge 0.826
       Polarizability: cuspless exponential with width 0.32 and norm 3.73
       Hard sphere radius: 2.57003 bohrs
       Positions in reference frame:
         [ +0.000000 +0.000000 +0.000000 ]
     Initializing site 'H'
       Electron density: proportional to exp(-r/0.34641)*erfc((r-0)/0.390882) with norm 0.587
       Charge density: gaussian nuclear width 0.377945 with net site charge -0.413
       Polarizability: cuspless exponential with width 0.39 and norm 3.3
       Positions in reference frame:
         [ +0.000000 -1.441945 +1.122523 ]
         [ +0.000000 +1.441945 +1.122523 ]
     Net charge: 0   dipole magnitude: 0.927204
     Initializing spherical shell mfKernel with radius 2.61727 Bohr
     deltaS corrections:
       site 'O': -7.54299
       site 'H': -6.83917
   Initializing fluid molecule 'Na+'
     Initializing site 'Na'
       Electron density: proportional to exp(-r/0.19682)*erfc((r-0.71491)/0.41314) with norm 8.1383
       Charge density: gaussian nuclear width 0.365347 with net site charge -1
       Hard sphere radius: 1.86327 bohrs
       Positions in reference frame:
         [ +0.000000 +0.000000 +0.000000 ]
     Net charge: -1   dipole magnitude: 0
     Initializing gaussian mfKernel with width: 1.55004 Bohr
     deltaS corrections:
       site 'Na': -22.3555
   Initializing fluid molecule 'F-'
     Initializing site 'F'
       Electron density: proportional to exp(-r/0.38886)*erfc((r-0)/0.438782) with norm 8
       Charge density: gaussian nuclear width 0.374796 with net site charge 1
       Hard sphere radius: 2.39995 bohrs
       Positions in reference frame:
         [ +0.000000 +0.000000 +0.000000 ]
     Net charge: 1   dipole magnitude: 0
     Initializing gaussian mfKernel with width: 1.59012 Bohr
     deltaS corrections:
       site 'F': -9.04335

Correction to mu due to finite nuclear width = -0.0565352
   Cavity determined by nc: 0.00142 and sigma: 0.707107
   Nonlocal vdW cavity from gaussian model electron density with norm = 8 and sigma = 0.993594 bohr
   Charge asymmetry in cavity with sensitivity pCavity = 36.5 e-bohr/Eh
   Electrostatic cavity expanded by eta = 1.46 bohrs
   Weighted density cavitation model constrained by Nbulk: 0.0049383 bohr^-3, Pvap: 3.14029 kPa, Rvdw: 2.61727 bohr and sigmaBulk: 4.62e-05 Eh/bohr^2 at T: 298 K.
   Weighted density dispersion model using vdW pair potentials with single solvent site with sqrtC6eff: 0.77 SI.


---- Citations for features of the code used in this run ----

   Software package:
      R. Sundararaman, K. Letchworth-Weaver, K.A. Schwarz, D. Gunceler, Y. Ozhabes and T.A. Arias, 'JDFTx: software for joint density-functional theory', SoftwareX 6, 278 (2017)

   gga-PBE exchange-correlation functional:
      J.P. Perdew, K. Burke and M. Ernzerhof, Phys. Rev. Lett. 77, 3865 (1996)

   Pseudopotentials:
      KF Garrity, JW Bennett, KM Rabe and D Vanderbilt, Comput. Mater. Sci. 81, 446 (2014)

   DFT-D3 dispersion correction:
      S. Grimme, J. Antony, S. Ehrlich and H. Krieg, J. Chem. Phys. 132, 154104 (2010)

   DFT-D2 dispersion correction:
      S. Grimme, J. Comput. Chem. 27, 1787 (2006)

   Charge-asymmetric nonlocally-determined local-electric (CANDLE) solvation model:
      R. Sundararaman and W.A. Goddard III, J. Chem. Phys. 142, 064107 (2015)

   Total energy minimization with Auxiliary Hamiltonian:
      C. Freysoldt, S. Boeck, and J. Neugebauer, Phys. Rev. B 79, 241103(R) (2009)

   Linear-tetrahedron sampling for density of states:
      G. Lehmann and M. Taut, Phys. status solidi (b) 54, 469 (1972)

This list may not be complete. Please suggest additional citations or
report any other bugs at https://github.com/shankar1729/jdftx/issues

Initialization completed successfully at t[s]:   1300.91


Computing DFT-D3 correction:
# coordination-number Ag 8.154 8.148 8.154 8.153 8.779 8.779 8.779 8.779 8.867 8.866 8.867 8.866 6.732 6.732 6.732 6.732 4.847 4.993 4.976 4.992 8.866 8.865 8.866 8.865 8.780 8.780 8.780 8.780 8.150 8.150 8.150 8.150 4.847 4.847 4.847 4.847 6.733 6.731 7.789 6.731
# coordination-number C 2.425
# coordination-number O 1.087
# diagonal-C6 Ag 268.61 268.61 268.61 268.61 268.61 268.61 268.61 268.61 268.61 268.61 268.61 268.61 268.61 268.61 268.61 268.61 268.61 268.61 268.61 268.61 268.61 268.61 268.61 268.61 268.61 268.61 268.61 268.61 268.61 268.61 268.61 268.61 268.61 268.61 268.61 268.61 268.61 268.61 268.61 268.61
# diagonal-C6 C 28.05
# diagonal-C6 O 12.74
EvdW_6 =   -0.222218
EvdW_8 =   -0.317436
Fluid solver invoked on fresh (random / LCAO) wavefunctions
Running a vacuum solve first:

-------- Initial electronic minimization -----------
	FillingsUpdate:  mu: +0.109623289  nElectrons: 770.000000  magneticMoment: [ Abs: 0.00236  Tot: +0.00002 ]
ElecMinimize: Iter:   0  F: -5925.608349499597352  |grad|_K:  4.354e-05  alpha:  1.000e+00
	FillingsUpdate:  mu: +0.120383764  nElectrons: 770.000000  magneticMoment: [ Abs: 0.00177  Tot: +0.00002 ]
	SubspaceRotationAdjust: set factor to 1
ElecMinimize: Iter:   1  F: -5925.907778963472992  |grad|_K:  2.649e-05  alpha:  4.280e-01  linmin:  1.732e-04  t[s]:   1513.09
	FillingsUpdate:  mu: +0.114849158  nElectrons: 770.000000  magneticMoment: [ Abs: 0.00136  Tot: -0.00002 ]
	SubspaceRotationAdjust: set factor to 0.889
ElecMinimize: Iter:   2  F: -5925.978468103173327  |grad|_K:  1.926e-05  alpha:  2.768e-01  linmin: -2.397e-05  t[s]:   1651.84
	FillingsUpdate:  mu: +0.115833803  nElectrons: 770.000000  magneticMoment: [ Abs: 0.00123  Tot: -0.00003 ]
	SubspaceRotationAdjust: set factor to 0.541
ElecMinimize: Iter:   3  F: -5925.990406435631485  |grad|_K:  1.475e-05  alpha:  8.512e-02  linmin: -3.959e-05  t[s]:   1789.81
	FillingsUpdate:  mu: +0.118843052  nElectrons: 770.000000  magneticMoment: [ Abs: 0.00087  Tot: -0.00004 ]
	SubspaceRotationAdjust: set factor to 0.83
ElecMinimize: Iter:   4  F: -5926.010477943111255  |grad|_K:  7.260e-06  alpha:  2.447e-01  linmin: -5.137e-06  t[s]:   1927.68
	FillingsUpdate:  mu: +0.116345441  nElectrons: 770.000000  magneticMoment: [ Abs: 0.00068  Tot: -0.00004 ]
	SubspaceRotationAdjust: set factor to 0.529
ElecMinimize: Iter:   5  F: -5926.015650296238164  |grad|_K:  8.634e-06  alpha:  2.617e-01  linmin:  9.074e-06  t[s]:   2066.12
	FillingsUpdate:  mu: +0.116160399  nElectrons: 770.000000  magneticMoment: [ Abs: 0.00055  Tot: -0.00004 ]
	SubspaceRotationAdjust: set factor to 0.336
ElecMinimize: Iter:   6  F: -5926.018642410263055  |grad|_K:  3.958e-06  alpha:  1.068e-01  linmin: -1.840e-05  t[s]:   2204.79
ElecMinimize: 	Predicted alpha/alphaT>3.000000, increasing alphaT to 3.204883e-01.
	FillingsUpdate:  mu: +0.119727553  nElectrons: 770.000000  magneticMoment: [ Abs: 0.00038  Tot: -0.00004 ]
	SubspaceRotationAdjust: set factor to 0.405
ElecMinimize: Iter:   7  F: -5926.021001726931900  |grad|_K:  2.892e-06  alpha:  4.010e-01  linmin:  5.463e-06  t[s]:   2378.77
	FillingsUpdate:  mu: +0.119109708  nElectrons: 770.000000  magneticMoment: [ Abs: 0.00029  Tot: -0.00004 ]
	SubspaceRotationAdjust: set factor to 0.316
ElecMinimize: Iter:   8  F: -5926.021888359799959  |grad|_K:  2.207e-06  alpha:  2.827e-01  linmin: -5.172e-07  t[s]:   2517.48
	FillingsUpdate:  mu: +0.118245533  nElectrons: 770.000000  magneticMoment: [ Abs: 0.00024  Tot: -0.00003 ]
	SubspaceRotationAdjust: set factor to 0.225
ElecMinimize: Iter:   9  F: -5926.022336655607432  |grad|_K:  1.451e-06  alpha:  2.453e-01  linmin:  7.512e-06  t[s]:   2655.98
	FillingsUpdate:  mu: +0.118565426  nElectrons: 770.000000  magneticMoment: [ Abs: 0.00018  Tot: -0.00003 ]
	SubspaceRotationAdjust: set factor to 0.277
ElecMinimize: Iter:  10  F: -5926.022637000210125  |grad|_K:  1.045e-06  alpha:  3.811e-01  linmin:  1.323e-05  t[s]:   2794.06
	FillingsUpdate:  mu: +0.119163754  nElectrons: 770.000000  magneticMoment: [ Abs: 0.00015  Tot: -0.00003 ]
	SubspaceRotationAdjust: set factor to 0.254
ElecMinimize: Iter:  11  F: -5926.022785467958784  |grad|_K:  7.578e-07  alpha:  3.635e-01  linmin:  3.089e-06  t[s]:   2932.77
	FillingsUpdate:  mu: +0.119261432  nElectrons: 770.000000  magneticMoment: [ Abs: 0.00012  Tot: -0.00002 ]
	SubspaceRotationAdjust: set factor to 0.227
ElecMinimize: Iter:  12  F: -5926.022858756488858  |grad|_K:  5.489e-07  alpha:  3.405e-01  linmin:  3.750e-06  t[s]:   3070.75
	FillingsUpdate:  mu: +0.119132150  nElectrons: 770.000000  magneticMoment: [ Abs: 0.00010  Tot: -0.00002 ]
	SubspaceRotationAdjust: set factor to 0.265
ElecMinimize: Iter:  13  F: -5926.022903139234586  |grad|_K:  3.856e-07  alpha:  3.936e-01  linmin:  5.897e-06  t[s]:   3209.54
	FillingsUpdate:  mu: +0.119253087  nElectrons: 770.000000  magneticMoment: [ Abs: 0.00008  Tot: -0.00001 ]
	SubspaceRotationAdjust: set factor to 0.282
ElecMinimize: Iter:  14  F: -5926.022925766544176  |grad|_K:  3.077e-07  alpha:  4.069e-01  linmin:  2.267e-06  t[s]:   3347.95
	FillingsUpdate:  mu: +0.119374136  nElectrons: 770.000000  magneticMoment: [ Abs: 0.00007  Tot: -0.00001 ]
	SubspaceRotationAdjust: set factor to 0.271
ElecMinimize: Iter:  15  F: -5926.022938601438000  |grad|_K:  2.399e-07  alpha:  3.620e-01  linmin:  1.517e-06  t[s]:   3486.05
	FillingsUpdate:  mu: +0.119360107  nElectrons: 770.000000  magneticMoment: [ Abs: 0.00006  Tot: -0.00001 ]
	SubspaceRotationAdjust: set factor to 0.307
ElecMinimize: Iter:  16  F: -5926.022946907781261  |grad|_K:  1.783e-07  alpha:  3.857e-01  linmin:  2.150e-06  t[s]:   3625.01
	FillingsUpdate:  mu: +0.119342390  nElectrons: 770.000000  magneticMoment: [ Abs: 0.00005  Tot: -0.00001 ]
	SubspaceRotationAdjust: set factor to 0.341
ElecMinimize: Iter:  17  F: -5926.022951613340410  |grad|_K:  1.315e-07  alpha:  3.958e-01  linmin:  1.534e-06  t[s]:   3763.38
	FillingsUpdate:  mu: +0.119376897  nElectrons: 770.000000  magneticMoment: [ Abs: 0.00004  Tot: -0.00000 ]
	SubspaceRotationAdjust: set factor to 0.305
ElecMinimize: Iter:  18  F: -5926.022954014703828  |grad|_K:  1.069e-07  alpha:  3.710e-01  linmin:  7.883e-07  t[s]:   3902.18
	FillingsUpdate:  mu: +0.119394492  nElectrons: 770.000000  magneticMoment: [ Abs: 0.00003  Tot: -0.00000 ]
	SubspaceRotationAdjust: set factor to 0.256
ElecMinimize: Iter:  19  F: -5926.022955255163652  |grad|_K:  7.499e-08  alpha:  2.897e-01  linmin:  1.616e-07  t[s]:   4040.92
	FillingsUpdate:  mu: +0.119390778  nElectrons: 770.000000  magneticMoment: [ Abs: 0.00002  Tot: -0.00000 ]
	SubspaceRotationAdjust: set factor to 0.287
ElecMinimize: Iter:  20  F: -5926.022956078526477  |grad|_K:  4.987e-08  alpha:  3.905e-01  linmin:  2.442e-07  t[s]:   4179.77
	FillingsUpdate:  mu: +0.119382611  nElectrons: 770.000000  magneticMoment: [ Abs: 0.00001  Tot: -0.00000 ]
	SubspaceRotationAdjust: set factor to 0.292
ElecMinimize: Iter:  21  F: -5926.022956437860557  |grad|_K:  3.991e-08  alpha:  3.860e-01  linmin:  1.179e-07  t[s]:   4318.73
	FillingsUpdate:  mu: +0.119386430  nElectrons: 770.000000  magneticMoment: [ Abs: 0.00001  Tot: -0.00000 ]
	SubspaceRotationAdjust: set factor to 0.271
ElecMinimize: Iter:  22  F: -5926.022956629561122  |grad|_K:  2.798e-08  alpha:  3.206e-01  linmin: -2.325e-07  t[s]:   4457.16
	FillingsUpdate:  mu: +0.119394626  nElectrons: 770.000000  magneticMoment: [ Abs: 0.00001  Tot: -0.00000 ]
	SubspaceRotationAdjust: set factor to 0.288
ElecMinimize: Iter:  23  F: -5926.022956742616770  |grad|_K:  2.099e-08  alpha:  3.860e-01  linmin: -4.421e-07  t[s]:   4596.35
	FillingsUpdate:  mu: +0.119389753  nElectrons: 770.000000  magneticMoment: [ Abs: 0.00001  Tot: -0.00000 ]
	SubspaceRotationAdjust: set factor to 0.334
ElecMinimize: Iter:  24  F: -5926.022956808315030  |grad|_K:  1.644e-08  alpha:  3.977e-01  linmin:  1.459e-06  t[s]:   4734.89
	FillingsUpdate:  mu: +0.119385520  nElectrons: 770.000000  magneticMoment: [ Abs: 0.00000  Tot: -0.00000 ]
	SubspaceRotationAdjust: set factor to 0.361
ElecMinimize: Iter:  25  F: -5926.022956845346926  |grad|_K:  1.329e-08  alpha:  3.695e-01  linmin:  4.853e-07  t[s]:   4872.98
ElecMinimize: Converged (|Delta F|<1.000000e-07 for 2 iters).
Setting wave functions to eigenvectors of Hamiltonian
Converging empty states (this may take a while): |deigs|: 9.446e-03
Vacuum energy after initial minimize, F = -5926.022956845346926


-------- Electronic minimization -----------
	Linear fluid (dielectric constant: 78.4, screening length: 8.12261 Bohr) occupying 0.482239 of unit cell:	Completed after 25 iterations at t[s]:   5550.18
	FillingsUpdate:  mu: -0.148460138  nElectrons: 770.000000  magneticMoment: [ Abs: 0.00000  Tot: -0.00000 ]
ElecMinimize: Iter:   0  F: -5926.024495574070897  |grad|_K:  1.062e-06  alpha:  1.000e+00
	Linear fluid (dielectric constant: 78.4, screening length: 8.12261 Bohr) occupying 0.483640 of unit cell:	Completed after 18 iterations at t[s]:   5668.98
	Linear fluid (dielectric constant: 78.4, screening length: 8.12261 Bohr) occupying 0.483417 of unit cell:	Completed after 12 iterations at t[s]:   5710.39
	FillingsUpdate:  mu: -0.143514972  nElectrons: 770.000000  magneticMoment: [ Abs: 0.00000  Tot: -0.00000 ]
	SubspaceRotationAdjust: set factor to 0.371
ElecMinimize: Iter:   1  F: -5926.024848201142959  |grad|_K:  1.143e-06  alpha:  8.366e-01  linmin: -4.785e-07  t[s]:   5763.79
	Linear fluid (dielectric constant: 78.4, screening length: 8.12261 Bohr) occupying 0.485017 of unit cell:	Completed after 13 iterations at t[s]:   5820.22
	Linear fluid (dielectric constant: 78.4, screening length: 8.12261 Bohr) occupying 0.484301 of unit cell:	Completed after 11 iterations at t[s]:   5861.61
	FillingsUpdate:  mu: -0.144835019  nElectrons: 770.000000  magneticMoment: [ Abs: 0.00000  Tot: -0.00000 ]
	SubspaceRotationAdjust: set factor to 0.345
ElecMinimize: Iter:   2  F: -5926.025070963226426  |grad|_K:  6.623e-07  alpha:  4.524e-01  linmin:  1.030e-08  t[s]:   5914.93
	Linear fluid (dielectric constant: 78.4, screening length: 8.12261 Bohr) occupying 0.484696 of unit cell:	Completed after 11 iterations at t[s]:   5971.04
	Linear fluid (dielectric constant: 78.4, screening length: 8.12261 Bohr) occupying 0.484688 of unit cell:	Completed after 1 iterations at t[s]:   6009.24
	FillingsUpdate:  mu: -0.144320722  nElectrons: 770.000000  magneticMoment: [ Abs: 0.00000  Tot: -0.00000 ]
	SubspaceRotationAdjust: set factor to 0.386
ElecMinimize: Iter:   3  F: -5926.025143898405986  |grad|_K:  4.354e-07  alpha:  4.437e-01  linmin: -2.204e-08  t[s]:   6062.39
	Linear fluid (dielectric constant: 78.4, screening length: 8.12261 Bohr) occupying 0.484880 of unit cell:	Completed after 8 iterations at t[s]:   6117.57
	Linear fluid (dielectric constant: 78.4, screening length: 8.12261 Bohr) occupying 0.484843 of unit cell:	Completed after 2 iterations at t[s]:   6156.36
	FillingsUpdate:  mu: -0.144191971  nElectrons: 770.000000  magneticMoment: [ Abs: 0.00000  Tot: -0.00000 ]
	SubspaceRotationAdjust: set factor to 0.439
ElecMinimize: Iter:   4  F: -5926.025169256398840  |grad|_K:  2.791e-07  alpha:  3.569e-01  linmin: -6.596e-09  t[s]:   6209.88
	Linear fluid (dielectric constant: 78.4, screening length: 8.12261 Bohr) occupying 0.484912 of unit cell:	Completed after 3 iterations at t[s]:   6263.78
	Linear fluid (dielectric constant: 78.4, screening length: 8.12261 Bohr) occupying 0.484928 of unit cell:	Completed after 2 iterations at t[s]:   6302.20
	FillingsUpdate:  mu: -0.144321240  nElectrons: 770.000000  magneticMoment: [ Abs: 0.00000  Tot: -0.00000 ]
	SubspaceRotationAdjust: set factor to 0.504
ElecMinimize: Iter:   5  F: -5926.025182085371853  |grad|_K:  1.600e-07  alpha:  4.394e-01  linmin:  6.544e-08  t[s]:   6355.50
	Linear fluid (dielectric constant: 78.4, screening length: 8.12261 Bohr) occupying 0.484965 of unit cell:	Completed after 2 iterations at t[s]:   6409.20
	Linear fluid (dielectric constant: 78.4, screening length: 8.12261 Bohr) occupying 0.484968 of unit cell:	Completed after 0 iterations at t[s]:   6447.02
	FillingsUpdate:  mu: -0.144292873  nElectrons: 770.000000  magneticMoment: [ Abs: 0.00000  Tot: -0.00000 ]
	SubspaceRotationAdjust: set factor to 0.582
ElecMinimize: Iter:   6  F: -5926.025186713259245  |grad|_K:  1.025e-07  alpha:  4.825e-01  linmin: -4.331e-07  t[s]:   6500.74
	Linear fluid (dielectric constant: 78.4, screening length: 8.12261 Bohr) occupying 0.484988 of unit cell:	Completed after 2 iterations at t[s]:   6554.31
	Linear fluid (dielectric constant: 78.4, screening length: 8.12261 Bohr) occupying 0.484985 of unit cell:	Completed after 0 iterations at t[s]:   6592.20
	FillingsUpdate:  mu: -0.144265985  nElectrons: 770.000000  magneticMoment: [ Abs: 0.00000  Tot: -0.00000 ]
	SubspaceRotationAdjust: set factor to 0.639
ElecMinimize: Iter:   7  F: -5926.025188361676555  |grad|_K:  6.579e-08  alpha:  4.157e-01  linmin:  3.133e-07  t[s]:   6646.02
	Linear fluid (dielectric constant: 78.4, screening length: 8.12261 Bohr) occupying 0.484991 of unit cell:	Completed after 2 iterations at t[s]:   6699.62
	Linear fluid (dielectric constant: 78.4, screening length: 8.12261 Bohr) occupying 0.484991 of unit cell:	Completed after 0 iterations at t[s]:   6737.24
	FillingsUpdate:  mu: -0.144307674  nElectrons: 770.000000  magneticMoment: [ Abs: 0.00000  Tot: -0.00000 ]
	SubspaceRotationAdjust: set factor to 0.614
ElecMinimize: Iter:   8  F: -5926.025188988793161  |grad|_K:  4.237e-08  alpha:  3.885e-01  linmin: -2.274e-07  t[s]:   6790.52
	Linear fluid (dielectric constant: 78.4, screening length: 8.12261 Bohr) occupying 0.484995 of unit cell:	Completed after 2 iterations at t[s]:   6844.36
	Linear fluid (dielectric constant: 78.4, screening length: 8.12261 Bohr) occupying 0.484994 of unit cell:	Completed after 0 iterations at t[s]:   6881.83
	FillingsUpdate:  mu: -0.144283924  nElectrons: 770.000000  magneticMoment: [ Abs: 0.00000  Tot: -0.00000 ]
	SubspaceRotationAdjust: set factor to 0.568
ElecMinimize: Iter:   9  F: -5926.025189205151037  |grad|_K:  2.874e-08  alpha:  3.210e-01  linmin:  2.329e-06  t[s]:   6935.01
	Linear fluid (dielectric constant: 78.4, screening length: 8.12261 Bohr) occupying 0.484994 of unit cell:	Completed after 2 iterations at t[s]:   6988.53
	Linear fluid (dielectric constant: 78.4, screening length: 8.12261 Bohr) occupying 0.484995 of unit cell:	Completed after 0 iterations at t[s]:   7026.45
	FillingsUpdate:  mu: -0.144286661  nElectrons: 770.000000  magneticMoment: [ Abs: 0.00000  Tot: -0.00000 ]
	SubspaceRotationAdjust: set factor to 0.566
ElecMinimize: Iter:  10  F: -5926.025189303516527  |grad|_K:  1.578e-08  alpha:  3.250e-01  linmin: -1.480e-05  t[s]:   7080.64
	Linear fluid (dielectric constant: 78.4, screening length: 8.12261 Bohr) occupying 0.484994 of unit cell:	Completed after 0 iterations at t[s]:   7133.50
	Linear fluid (dielectric constant: 78.4, screening length: 8.12261 Bohr) occupying 0.484994 of unit cell:	Completed after 0 iterations at t[s]:   7171.35
	FillingsUpdate:  mu: -0.144286716  nElectrons: 770.000000  magneticMoment: [ Abs: 0.00000  Tot: -0.00000 ]
	SubspaceRotationAdjust: set factor to 0.616
ElecMinimize: Iter:  11  F: -5926.025189348434651  |grad|_K:  1.117e-08  alpha:  4.587e-01  linmin:  1.307e-06  t[s]:   7224.68
ElecMinimize: Converged (|Delta F|<1.000000e-07 for 2 iters).
Setting wave functions to eigenvectors of Hamiltonian
Converging empty states (this may take a while): |deigs|: 1.218e-04
Single-point solvation energy estimate, DeltaF = -0.002232503087725

Computing DFT-D3 correction:
# coordination-number Ag 8.154 8.148 8.154 8.153 8.779 8.779 8.779 8.779 8.867 8.866 8.867 8.866 6.732 6.732 6.732 6.732 4.847 4.993 4.976 4.992 8.866 8.865 8.866 8.865 8.780 8.780 8.780 8.780 8.150 8.150 8.150 8.150 4.847 4.847 4.847 4.847 6.733 6.731 7.789 6.731
# coordination-number C 2.425
# coordination-number O 1.087
# diagonal-C6 Ag 268.61 268.61 268.61 268.61 268.61 268.61 268.61 268.61 268.61 268.61 268.61 268.61 268.61 268.61 268.61 268.61 268.61 268.61 268.61 268.61 268.61 268.61 268.61 268.61 268.61 268.61 268.61 268.61 268.61 268.61 268.61 268.61 268.61 268.61 268.61 268.61 268.61 268.61 268.61 268.61
# diagonal-C6 C 28.05
# diagonal-C6 O 12.74
EvdW_6 =   -0.222218
EvdW_8 =   -0.317436

# Ionic positions in cartesian coordinates:
ion Ag   3.835417000000000   1.682334000000000  13.043153000000000 0
ion Ag   0.002582000000000  10.252812000000002  13.043153000000000 0
ion Ag  11.501085999999999   1.682334000000000  13.043153000000000 0
ion Ag   7.668251000000000  10.252812000000002  13.043153000000000 0
ion Ag  -0.000736000000000   3.395349000000000   9.424063000000000 0
ion Ag  -3.833556000000000  11.965828000000002   9.424063000000000 0
ion Ag   7.664932000000000   3.395349000000000   9.424063000000000 0
ion Ag   3.832112000000000  11.965828000000002   9.424063000000000 0
ion Ag   3.832742000000000   5.197413000000001   5.972663000000000 0
ion Ag  -0.000094000000000  13.767891000000002   5.972663000000000 0
ion Ag  11.498410000000000   5.197413000000001   5.972663000000000 0
ion Ag   7.665575000000000  13.767891000000002   5.972663000000000 0
ion Ag  -0.002722000000000   6.958834000000002   2.379593000000000 0
ion Ag  -3.835557000000001  15.529313000000004   2.379593000000000 0
ion Ag   7.662945999999999   6.958834000000002   2.379593000000000 0
ion Ag   3.830110999999999  15.529313000000004   2.379593000000000 0
ion Ag   7.669207999999998  17.005235000000003  16.291689999999999 0
ion Ag  11.502043000000000   8.434757000000001  16.291689999999999 0
ion Ag   0.003540000000000  17.005235000000003  16.291689999999999 0
ion Ag   3.836374999999999   8.434757000000001  16.291689999999999 0
ion Ag   3.833408000000000   6.801035000000001  11.168018000000000 0
ion Ag   0.000580999999999  15.371531000000001  11.168018000000000 0
ion Ag  11.499076999999998   6.801035000000001  11.168018000000000 0
ion Ag   7.666249000000000  15.371531000000001  11.168018000000000 0
ion Ag   3.833056000000000   0.031488000000000   7.715897999999999 0
ion Ag   0.000220999999999   8.601967000000002   7.715897999999999 0
ion Ag  11.498725000000000   0.031488000000000   7.715897999999999 0
ion Ag   7.665889999999999   8.601967000000002   7.715897999999999 0
ion Ag  -0.003434000000000   1.745429000000000   4.098042000000000 0
ion Ag  -3.836277000000000  10.315891000000002   4.098042000000000 0
ion Ag   7.662233999999999   1.745429000000000   4.098042000000000 0
ion Ag   3.829406000000000  10.315891000000002   4.098042000000000 0
ion Ag   3.830595000000000   3.565593000000000   0.850020000000000 0
ion Ag  -0.002240000000000  12.136072000000002   0.850020000000000 0
ion Ag  11.496263999999998   3.565593000000000   0.850020000000000 0
ion Ag   7.663429000000000  12.136072000000002   0.850020000000000 0
ion Ag   0.002330000000000   5.040161000000001  14.761654000000000 0
ion Ag  -3.830505000000001  13.610640000000002  14.761654000000000 0
ion Ag   7.667997999999999   5.040161000000001  14.761654000000000 0
ion Ag   3.835162999999999  13.610640000000002  14.761654000000000 0
ion C   7.667997999999999   5.040161000000001  18.026903000000001 1  Linear 0 0 1
ion O   7.728096999999998   5.040161000000001  20.182241000000001 1  Linear 0 0 1

# Forces in Cartesian coordinates:
force Ag  -0.001936543953698  -0.000923553399683  -0.002689017606578 0
force Ag   0.000035802419802   0.000423974320454   0.000758311182521 0
force Ag   0.001843110421349  -0.000871488482276  -0.002527749807977 0
force Ag  -0.000143950579991   0.002947818367210  -0.002834048084456 0
force Ag  -0.000189836047584   0.000640336910495   0.000258522481569 0
force Ag   0.000473803395895   0.000117951030173   0.000247710383124 0
force Ag   0.000250573084613   0.001355412229835   0.003595629359667 0
force Ag  -0.000758454291442   0.000231066827460  -0.000275452929543 0
force Ag  -0.000025938998677   0.000617749055701  -0.000741673925731 0
force Ag   0.000392894677484   0.000533494232639   0.000015893921778 0
force Ag   0.000178545505416   0.000489689035626  -0.000781682444600 0
force Ag  -0.000203415741899   0.000608864156191   0.000738047705671 0
force Ag  -0.000142939455978   0.000364715689205   0.000176589854557 0
force Ag   0.000047098001486   0.000059330362159  -0.000218309382293 0
force Ag  -0.000248557882635  -0.000003172255332  -0.000052688039862 0
force Ag  -0.000337705664475  -0.000123744290203  -0.000177897154722 0
force Ag  -0.000121413258008  -0.000235052977073   0.000037253603714 0
force Ag   0.005204436935870   0.003655188212375  -0.000968613291869 0
force Ag  -0.000163582212972  -0.004562846168217  -0.001013976848056 0
force Ag  -0.005084850055860   0.003114373786033  -0.000899690857534 0
force Ag  -0.000160418938080  -0.000759210046250  -0.001356156583636 0
force Ag  -0.000159045233838  -0.000090981940285   0.000324179464063 0
force Ag   0.000015395938497  -0.000773452784370  -0.001818785895338 0
force Ag   0.000167437062944  -0.000453702373157  -0.000370952579671 0
force Ag  -0.000423315590429  -0.000408423214059  -0.000664751525437 0
force Ag   0.000098155234076  -0.000111949347262   0.000259485898098 0
force Ag   0.000367670007988  -0.000245275585801  -0.001016118342371 0
force Ag  -0.000047495106765  -0.000362206895930   0.000058318235054 0
force Ag   0.000041699773839  -0.000609258521663   0.000238520298338 0
force Ag   0.000805411371275  -0.000849375525914   0.000195478084795 0
force Ag   0.000049331471149   0.000004747223335   0.001067736106595 0
force Ag  -0.000554007301251  -0.000719039539323   0.000519333483740 0
force Ag  -0.000074789928382   0.000288561669589   0.000000106630533 0
force Ag   0.000084481078110   0.000285110153320  -0.000210689514467 0
force Ag   0.000154931644013   0.000362604424916   0.000243296283617 0
force Ag   0.000015887199487  -0.000115517404723  -0.000014667979336 0
force Ag   0.000253627138481   0.000040659708134  -0.000856823685365 0
force Ag   0.000550963451555  -0.000214532503190  -0.000021463025057 0
force Ag  -0.000432037692276  -0.001532829766066  -0.139345999474620 0
force Ag  -0.000250591629304  -0.000300967294725   0.000025230378579 0
force C  -0.000499686699832  -0.001298235663593   0.091276431686819 1  Linear 0 0 1
force O   0.000920400200767  -0.000520991849364   0.058474219070621 1  Linear 0 0 1

# Energy components:
   A_diel =       -0.0030055525795597
   Eewald =    21888.2379539388093690
       EH =    27241.8485864909671363
     Eloc =   -55992.1475803879002342
      Enl =      160.9762453885265074
     EvdW =       -0.5396545770932191
      Exc =     -584.8028497513294042
 Exc_core =        8.4255584214724664
       KE =     1351.9806001849979111
-------------------------------------
     Etot =    -5926.0241458441323630
       TS =        0.0010435043022325
-------------------------------------
        F =    -5926.0251893484346510


Dumping 'jdft.fillings' ... done
Dumping 'jdft.wfns' ... done
Dumping 'jdft.fluidState' ... done
Dumping 'jdft.ionpos' ... done
Dumping 'jdft.lattice' ... done
Dumping 'jdft.eigenvals' ... done
Dumping 'jdft.eigStats' ... 
	eMin: -3.584194 at state 2 ( [ +0.250000 +0.000000 +0.000000 ] spin 1 )
	HOMO: -0.145190 at state 1 ( [ +0.000000 +0.333333 +0.000000 ] spin 1 )
	mu  : -0.144287
	LUMO: -0.143190 at state 8 ( [ +0.000000 +0.333333 +0.000000 ] spin -1 )
	eMax: +0.140295 at state 9 ( [ +0.250000 +0.000000 +0.000000 ] spin -1 )
	HOMO-LUMO gap: +0.002000
	Optical gap  : +0.002000 at state 8 ( [ +0.000000 +0.333333 +0.000000 ] spin -1 )
Dumping 'jdft.Ecomponents' ... done
IonicMinimize: Iter:   0  F: -5926.025189348434651  |grad|_K:  7.665e-02  t[s]:   7802.64

#--- Lowdin population analysis ---
# oxidation-state Ag -0.058 -0.071 -0.059 -0.056 +0.003 +0.003 -0.014 +0.003 -0.031 -0.029 -0.031 -0.028 -0.032 -0.030 -0.028 -0.029 +0.151 +0.140 +0.132 +0.137 -0.038 -0.029 -0.038 -0.031 +0.005 -0.006 +0.005 +0.007 -0.065 -0.066 -0.066 -0.068 +0.156 +0.142 +0.158 +0.158 -0.031 -0.033 -0.159 -0.030
# magnetic-moments Ag -0.000 -0.000 -0.000 -0.000 -0.000 -0.000 -0.000 -0.000 -0.000 -0.000 -0.000 -0.000 -0.000 -0.000 -0.000 -0.000 -0.000 -0.000 -0.000 -0.000 -0.000 -0.000 -0.000 -0.000 -0.000 -0.000 -0.000 -0.000 -0.000 -0.000 -0.000 -0.000 -0.000 -0.000 -0.000 -0.000 -0.000 -0.000 -0.000 -0.000
# oxidation-state C +0.393
# magnetic-moments C -0.000
# oxidation-state O -0.113
# magnetic-moments O +0.000


Computing DFT-D3 correction:
# coordination-number Ag 8.153 8.148 8.153 8.153 8.779 8.779 8.779 8.779 8.867 8.866 8.867 8.866 6.732 6.732 6.732 6.732 4.847 4.983 4.968 4.983 8.866 8.865 8.866 8.865 8.780 8.780 8.780 8.780 8.150 8.150 8.150 8.150 4.847 4.847 4.847 4.847 6.733 6.731 7.781 6.731
# coordination-number C 2.397
# coordination-number O 1.079
# diagonal-C6 Ag 268.61 268.61 268.61 268.61 268.61 268.61 268.61 268.61 268.61 268.61 268.61 268.61 268.61 268.61 268.61 268.61 268.61 268.61 268.61 268.61 268.61 268.61 268.61 268.61 268.61 268.61 268.61 268.61 268.61 268.61 268.61 268.61 268.61 268.61 268.61 268.61 268.61 268.61 268.61 268.61
# diagonal-C6 C 28.24
# diagonal-C6 O 12.75
EvdW_6 =   -0.222211
EvdW_8 =   -0.317351

-------- Electronic minimization -----------
	Linear fluid (dielectric constant: 78.4, screening length: 8.12261 Bohr) occupying 0.484974 of unit cell:	Completed after 21 iterations at t[s]:   7862.07
	FillingsUpdate:  mu: -0.135567934  nElectrons: 770.000000  magneticMoment: [ Abs: 0.00000  Tot: -0.00000 ]
ElecMinimize: Iter:   0  F: -5925.996912617030830  |grad|_K:  1.528e-05  alpha:  1.000e+00
	Linear fluid (dielectric constant: 78.4, screening length: 8.12261 Bohr) occupying 0.483933 of unit cell:	Completed after 24 iterations at t[s]:   7984.31
	Linear fluid (dielectric constant: 78.4, screening length: 8.12261 Bohr) occupying 0.484528 of unit cell:	Completed after 22 iterations at t[s]:   8028.70
	FillingsUpdate:  mu: -0.146139245  nElectrons: 770.000000  magneticMoment: [ Abs: 0.00000  Tot: -0.00000 ]
	SubspaceRotationAdjust: set factor to 0.45
ElecMinimize: Iter:   1  F: -5926.027483147558996  |grad|_K:  6.777e-06  alpha:  3.528e-01  linmin:  2.581e-04  t[s]:   8082.14
	Linear fluid (dielectric constant: 78.4, screening length: 8.12261 Bohr) occupying 0.484584 of unit cell:	Completed after 20 iterations at t[s]:   8141.01
	Linear fluid (dielectric constant: 78.4, screening length: 8.12261 Bohr) occupying 0.484551 of unit cell:	Completed after 15 iterations at t[s]:   8183.58
	FillingsUpdate:  mu: -0.142719328  nElectrons: 770.000000  magneticMoment: [ Abs: 0.00000  Tot: -0.00000 ]
	SubspaceRotationAdjust: set factor to 0.317
ElecMinimize: Iter:   2  F: -5926.031847644110712  |grad|_K:  3.470e-06  alpha:  2.557e-01  linmin: -1.601e-06  t[s]:   8237.35
	Linear fluid (dielectric constant: 78.4, screening length: 8.12261 Bohr) occupying 0.484533 of unit cell:	Completed after 15 iterations at t[s]:   8294.89
	Linear fluid (dielectric constant: 78.4, screening length: 8.12261 Bohr) occupying 0.484523 of unit cell:	Completed after 12 iterations at t[s]:   8336.75
	FillingsUpdate:  mu: -0.144010803  nElectrons: 770.000000  magneticMoment: [ Abs: 0.00000  Tot: -0.00000 ]
	SubspaceRotationAdjust: set factor to 0.331
ElecMinimize: Iter:   3  F: -5926.033707059893459  |grad|_K:  2.204e-06  alpha:  4.122e-01  linmin:  2.346e-05  t[s]:   8390.38
	Linear fluid (dielectric constant: 78.4, screening length: 8.12261 Bohr) occupying 0.484514 of unit cell:	Completed after 13 iterations at t[s]:   8447.37
	Linear fluid (dielectric constant: 78.4, screening length: 8.12261 Bohr) occupying 0.484515 of unit cell:	Completed after 7 iterations at t[s]:   8487.86
	FillingsUpdate:  mu: -0.144532126  nElectrons: 770.000000  magneticMoment: [ Abs: 0.00000  Tot: -0.00000 ]
	SubspaceRotationAdjust: set factor to 0.379
ElecMinimize: Iter:   4  F: -5926.034322040336519  |grad|_K:  1.220e-06  alpha:  3.381e-01  linmin:  4.953e-06  t[s]:   8541.32
	Linear fluid (dielectric constant: 78.4, screening length: 8.12261 Bohr) occupying 0.484519 of unit cell:	Completed after 11 iterations at t[s]:   8598.00
	Linear fluid (dielectric constant: 78.4, screening length: 8.12261 Bohr) occupying 0.484520 of unit cell:	Completed after 7 iterations at t[s]:   8638.37
	FillingsUpdate:  mu: -0.143984988  nElectrons: 770.000000  magneticMoment: [ Abs: 0.00000  Tot: -0.00000 ]
	SubspaceRotationAdjust: set factor to 0.429
ElecMinimize: Iter:   5  F: -5926.034551911056042  |grad|_K:  7.310e-07  alpha:  4.118e-01  linmin: -6.573e-06  t[s]:   8691.46
	Linear fluid (dielectric constant: 78.4, screening length: 8.12261 Bohr) occupying 0.484518 of unit cell:	Completed after 9 iterations at t[s]:   8747.43
	Linear fluid (dielectric constant: 78.4, screening length: 8.12261 Bohr) occupying 0.484517 of unit cell:	Completed after 2 iterations at t[s]:   8786.50
	FillingsUpdate:  mu: -0.144037705  nElectrons: 770.000000  magneticMoment: [ Abs: 0.00000  Tot: -0.00000 ]
	SubspaceRotationAdjust: set factor to 0.515
ElecMinimize: Iter:   6  F: -5926.034648033096346  |grad|_K:  5.332e-07  alpha:  4.796e-01  linmin: -5.369e-06  t[s]:   8839.68
	Linear fluid (dielectric constant: 78.4, screening length: 8.12261 Bohr) occupying 0.484531 of unit cell:	Completed after 7 iterations at t[s]:   8895.15
	Linear fluid (dielectric constant: 78.4, screening length: 8.12261 Bohr) occupying 0.484529 of unit cell:	Completed after 2 iterations at t[s]:   8934.22
	FillingsUpdate:  mu: -0.143964725  nElectrons: 770.000000  magneticMoment: [ Abs: 0.00000  Tot: -0.00000 ]
	SubspaceRotationAdjust: set factor to 0.636
ElecMinimize: Iter:   7  F: -5926.034689719484049  |grad|_K:  3.600e-07  alpha:  3.910e-01  linmin: -3.308e-06  t[s]:   8988.13
	Linear fluid (dielectric constant: 78.4, screening length: 8.12261 Bohr) occupying 0.484544 of unit cell:	Completed after 8 iterations at t[s]:   9043.65
	Linear fluid (dielectric constant: 78.4, screening length: 8.12261 Bohr) occupying 0.484544 of unit cell:	Completed after 0 iterations at t[s]:   9081.66
	FillingsUpdate:  mu: -0.143803497  nElectrons: 770.000000  magneticMoment: [ Abs: 0.00000  Tot: -0.00000 ]
	SubspaceRotationAdjust: set factor to 0.695
ElecMinimize: Iter:   8  F: -5926.034709362012109  |grad|_K:  2.501e-07  alpha:  4.039e-01  linmin: -4.488e-05  t[s]:   9135.15
	Linear fluid (dielectric constant: 78.4, screening length: 8.12261 Bohr) occupying 0.484548 of unit cell:	Completed after 8 iterations at t[s]:   9191.31
	Linear fluid (dielectric constant: 78.4, screening length: 8.12261 Bohr) occupying 0.484547 of unit cell:	Completed after 2 iterations at t[s]:   9230.41
	FillingsUpdate:  mu: -0.143935574  nElectrons: 770.000000  magneticMoment: [ Abs: 0.00000  Tot: -0.00000 ]
	SubspaceRotationAdjust: set factor to 0.696
ElecMinimize: Iter:   9  F: -5926.034717465681751  |grad|_K:  1.538e-07  alpha:  3.429e-01  linmin:  5.295e-05  t[s]:   9284.61
	Linear fluid (dielectric constant: 78.4, screening length: 8.12261 Bohr) occupying 0.484555 of unit cell:	Completed after 6 iterations at t[s]:   9339.72
	Linear fluid (dielectric constant: 78.4, screening length: 8.12261 Bohr) occupying 0.484554 of unit cell:	Completed after 0 iterations at t[s]:   9377.77
	FillingsUpdate:  mu: -0.143876321  nElectrons: 770.000000  magneticMoment: [ Abs: 0.00000  Tot: -0.00000 ]
	SubspaceRotationAdjust: set factor to 0.657
ElecMinimize: Iter:  10  F: -5926.034720391639894  |grad|_K:  9.405e-08  alpha:  3.317e-01  linmin:  2.788e-05  t[s]:   9431.40
	Linear fluid (dielectric constant: 78.4, screening length: 8.12261 Bohr) occupying 0.484557 of unit cell:	Completed after 2 iterations at t[s]:   9485.49
	Linear fluid (dielectric constant: 78.4, screening length: 8.12261 Bohr) occupying 0.484556 of unit cell:	Completed after 0 iterations at t[s]:   9523.38
	FillingsUpdate:  mu: -0.143908304  nElectrons: 770.000000  magneticMoment: [ Abs: 0.00000  Tot: -0.00000 ]
	SubspaceRotationAdjust: set factor to 0.626
ElecMinimize: Iter:  11  F: -5926.034721404225820  |grad|_K:  5.912e-08  alpha:  3.061e-01  linmin:  1.289e-04  t[s]:   9576.70
	Linear fluid (dielectric constant: 78.4, screening length: 8.12261 Bohr) occupying 0.484558 of unit cell:	Completed after 2 iterations at t[s]:   9630.68
	Linear fluid (dielectric constant: 78.4, screening length: 8.12261 Bohr) occupying 0.484558 of unit cell:	Completed after 0 iterations at t[s]:   9668.77
	FillingsUpdate:  mu: -0.143900232  nElectrons: 770.000000  magneticMoment: [ Abs: 0.00000  Tot: -0.00000 ]
	SubspaceRotationAdjust: set factor to 0.643
ElecMinimize: Iter:  12  F: -5926.034721829818409  |grad|_K:  3.199e-08  alpha:  3.274e-01  linmin: -8.207e-04  t[s]:   9722.35
	Linear fluid (dielectric constant: 78.4, screening length: 8.12261 Bohr) occupying 0.484559 of unit cell:	Completed after 0 iterations at t[s]:   9776.07
	Linear fluid (dielectric constant: 78.4, screening length: 8.12261 Bohr) occupying 0.484559 of unit cell:	Completed after 2 iterations at t[s]:   9814.93
	FillingsUpdate:  mu: -0.143890988  nElectrons: 770.000000  magneticMoment: [ Abs: 0.00000  Tot: -0.00000 ]
	SubspaceRotationAdjust: set factor to 0.698
ElecMinimize: Iter:  13  F: -5926.034722004969808  |grad|_K:  2.532e-08  alpha:  4.637e-01  linmin:  5.345e-04  t[s]:   9868.38
	Linear fluid (dielectric constant: 78.4, screening length: 8.12261 Bohr) occupying 0.484559 of unit cell:	Completed after 1 iterations at t[s]:   9922.04
	Linear fluid (dielectric constant: 78.4, screening length: 8.12261 Bohr) occupying 0.484559 of unit cell:	Completed after 0 iterations at t[s]:   9959.97
	FillingsUpdate:  mu: -0.143901673  nElectrons: 770.000000  magneticMoment: [ Abs: 0.00000  Tot: -0.00000 ]
	SubspaceRotationAdjust: set factor to 0.727
ElecMinimize: Iter:  14  F: -5926.034722074668025  |grad|_K:  1.927e-08  alpha:  2.916e-01  linmin:  6.863e-04  t[s]:  10013.36
	Linear fluid (dielectric constant: 78.4, screening length: 8.12261 Bohr) occupying 0.484559 of unit cell:	Completed after 2 iterations at t[s]:  10067.43
	Linear fluid (dielectric constant: 78.4, screening length: 8.12261 Bohr) occupying 0.484559 of unit cell:	Completed after 0 iterations at t[s]:  10105.27
	FillingsUpdate:  mu: -0.143896764  nElectrons: 770.000000  magneticMoment: [ Abs: 0.00000  Tot: -0.00000 ]
	SubspaceRotationAdjust: set factor to 0.782
ElecMinimize: Iter:  15  F: -5926.034722104200227  |grad|_K:  1.088e-08  alpha:  2.464e-01  linmin: -1.267e-03  t[s]:  10158.50
ElecMinimize: Converged (|Delta F|<1.000000e-07 for 2 iters).
Setting wave functions to eigenvectors of Hamiltonian
Converging empty states (this may take a while): |deigs|: 1.604e-06

Computing DFT-D3 correction:
# coordination-number Ag 8.153 8.148 8.153 8.153 8.779 8.779 8.779 8.779 8.867 8.866 8.867 8.866 6.732 6.732 6.732 6.732 4.847 4.983 4.968 4.983 8.866 8.865 8.866 8.865 8.780 8.780 8.780 8.780 8.150 8.150 8.150 8.150 4.847 4.847 4.847 4.847 6.733 6.731 7.781 6.731
# coordination-number C 2.397
# coordination-number O 1.079
# diagonal-C6 Ag 268.61 268.61 268.61 268.61 268.61 268.61 268.61 268.61 268.61 268.61 268.61 268.61 268.61 268.61 268.61 268.61 268.61 268.61 268.61 268.61 268.61 268.61 268.61 268.61 268.61 268.61 268.61 268.61 268.61 268.61 268.61 268.61 268.61 268.61 268.61 268.61 268.61 268.61 268.61 268.61
# diagonal-C6 C 28.24
# diagonal-C6 O 12.75
EvdW_6 =   -0.222211
EvdW_8 =   -0.317351

# Ionic positions in cartesian coordinates:
ion Ag   3.835417000000000   1.682334000000000  13.043153000000000 0
ion Ag   0.002582000000000  10.252812000000002  13.043153000000000 0
ion Ag  11.501085999999999   1.682334000000000  13.043153000000000 0
ion Ag   7.668251000000000  10.252812000000002  13.043153000000000 0
ion Ag  -0.000736000000000   3.395349000000000   9.424063000000000 0
ion Ag  -3.833556000000000  11.965828000000002   9.424063000000000 0
ion Ag   7.664932000000000   3.395349000000000   9.424063000000000 0
ion Ag   3.832112000000000  11.965828000000002   9.424063000000000 0
ion Ag   3.832742000000000   5.197413000000001   5.972663000000000 0
ion Ag  -0.000094000000000  13.767891000000002   5.972663000000000 0
ion Ag  11.498410000000000   5.197413000000001   5.972663000000000 0
ion Ag   7.665575000000000  13.767891000000002   5.972663000000000 0
ion Ag  -0.002722000000000   6.958834000000002   2.379593000000000 0
ion Ag  -3.835557000000001  15.529313000000004   2.379593000000000 0
ion Ag   7.662945999999999   6.958834000000002   2.379593000000000 0
ion Ag   3.830110999999999  15.529313000000004   2.379593000000000 0
ion Ag   7.669207999999998  17.005235000000003  16.291689999999999 0
ion Ag  11.502043000000000   8.434757000000001  16.291689999999999 0
ion Ag   0.003540000000000  17.005235000000003  16.291689999999999 0
ion Ag   3.836374999999999   8.434757000000001  16.291689999999999 0
ion Ag   3.833408000000000   6.801035000000001  11.168018000000000 0
ion Ag   0.000580999999999  15.371531000000001  11.168018000000000 0
ion Ag  11.499076999999998   6.801035000000001  11.168018000000000 0
ion Ag   7.666249000000000  15.371531000000001  11.168018000000000 0
ion Ag   3.833056000000000   0.031488000000000   7.715897999999999 0
ion Ag   0.000220999999999   8.601967000000002   7.715897999999999 0
ion Ag  11.498725000000000   0.031488000000000   7.715897999999999 0
ion Ag   7.665889999999999   8.601967000000002   7.715897999999999 0
ion Ag  -0.003434000000000   1.745429000000000   4.098042000000000 0
ion Ag  -3.836277000000000  10.315891000000002   4.098042000000000 0
ion Ag   7.662233999999999   1.745429000000000   4.098042000000000 0
ion Ag   3.829406000000000  10.315891000000002   4.098042000000000 0
ion Ag   3.830595000000000   3.565593000000000   0.850020000000000 0
ion Ag  -0.002240000000000  12.136072000000002   0.850020000000000 0
ion Ag  11.496263999999998   3.565593000000000   0.850020000000000 0
ion Ag   7.663429000000000  12.136072000000002   0.850020000000000 0
ion Ag   0.002330000000000   5.040161000000001  14.761654000000000 0
ion Ag  -3.830505000000001  13.610640000000002  14.761654000000000 0
ion Ag   7.667997999999999   5.040161000000001  14.761654000000000 0
ion Ag   3.835162999999999  13.610640000000002  14.761654000000000 0
ion C   7.667997999999999   5.040161000000001  18.118179431686819 1  Linear 0 0 1
ion O   7.728096999999998   5.040161000000001  20.240715219070623 1  Linear 0 0 1

# Forces in Cartesian coordinates:
force Ag  -0.001800160541846  -0.000858459556839  -0.002486428440338 0
force Ag   0.000047343302326   0.000382610921110   0.000757430224801 0
force Ag   0.001726763474087  -0.000802266302268  -0.002325253425014 0
force Ag  -0.000130631735667   0.002783109229515  -0.002606415985517 0
force Ag  -0.000186984441966   0.000649085174737   0.000287240499677 0
force Ag   0.000464618059862   0.000141242152663   0.000288643241631 0
force Ag   0.000251225125140   0.001328141927524   0.003763307907677 0
force Ag  -0.000744794459478   0.000244246562312  -0.000228672609994 0
force Ag  -0.000049974702363   0.000627711095015  -0.000735417788532 0
force Ag   0.000371890611107   0.000580133525962  -0.000030699331038 0
force Ag   0.000175635490955   0.000510891099715  -0.000758869699366 0
force Ag  -0.000206893852428   0.000613632836469   0.000689817021571 0
force Ag  -0.000139360468746   0.000329142183301   0.000063907334693 0
force Ag   0.000037630979035   0.000042861224380  -0.000313660531148 0
force Ag  -0.000242734795280  -0.000030424421338  -0.000182824359351 0
force Ag  -0.000310436466547  -0.000156215098326  -0.000284741287324 0
force Ag  -0.000120434907644  -0.000220555670712   0.000160275974574 0
force Ag   0.005023550011243   0.003528711762339  -0.000828491379828 0
force Ag  -0.000157479191740  -0.004414716572572  -0.000887165951525 0
force Ag  -0.004912041707894   0.002990412989327  -0.000743988214855 0
force Ag  -0.000071453490129  -0.000799232360708  -0.001087997480734 0
force Ag  -0.000163309133915  -0.000094645132938   0.000399328973450 0
force Ag  -0.000056518560298  -0.000826377915946  -0.001552010274373 0
force Ag   0.000182379884416  -0.000467819225769  -0.000324307743259 0
force Ag  -0.000424015385496  -0.000422427801986  -0.000611305430105 0
force Ag   0.000094946268907  -0.000140448114115   0.000318707471838 0
force Ag   0.000366738440929  -0.000251423841560  -0.000972628614093 0
force Ag  -0.000045136215322  -0.000296639531851   0.000053117587781 0
force Ag   0.000046168879039  -0.000615258037299   0.000173414806213 0
force Ag   0.000801276076806  -0.000818702937070   0.000126971487375 0
force Ag   0.000039653141588  -0.000006440371998   0.000955066669120 0
force Ag  -0.000559140267914  -0.000673300060223   0.000450289849109 0
force Ag  -0.000087154620076   0.000298598986230  -0.000159031776367 0
force Ag   0.000088387409284   0.000299325733860  -0.000349228134849 0
force Ag   0.000162079002204   0.000371113973315   0.000095866952336 0
force Ag   0.000002769499832  -0.000042673564197  -0.000133087137285 0
force Ag   0.000241893706176   0.000061465871209  -0.000727675967565 0
force Ag   0.000506565697246  -0.000190333750162   0.000085050955109 0
force Ag  -0.000408170196589  -0.001482958597342  -0.105876553432400 0
force Ag  -0.000222785839185  -0.000274281918793   0.000136585496454 0
force C  -0.001614639849494  -0.001396682762821   0.019124780257948 1  Linear 0 0 1
force O   0.002020342469699  -0.000460269772758   0.096271669002534 1  Linear 0 0 1

# Energy components:
   A_diel =       -0.0027791037338843
   Eewald =    21880.7857291851978516
       EH =    27234.9389989740666351
     Eloc =   -55977.8058045676880283
      Enl =      160.9960654795146411
     EvdW =       -0.5395616899092679
      Exc =     -584.8032913070610448
 Exc_core =        8.4255556177471238
       KE =     1351.9714132050253284
-------------------------------------
     Etot =    -5926.0336742068429885
       TS =        0.0010478973576584
-------------------------------------
        F =    -5926.0347221042002275


Dumping 'jdft.fillings' ... done
Dumping 'jdft.wfns' ... done
Dumping 'jdft.fluidState' ... done
Dumping 'jdft.ionpos' ... done
Dumping 'jdft.lattice' ... done
Dumping 'jdft.eigenvals' ... done
Dumping 'jdft.eigStats' ... 
	eMin: -3.576059 at state 9 ( [ +0.250000 +0.000000 +0.000000 ] spin -1 )
	HOMO: -0.144684 at state 6 ( [ +0.500000 +0.333333 +0.000000 ] spin 1 )
	mu  : -0.143897
	LUMO: -0.142927 at state 1 ( [ +0.000000 +0.333333 +0.000000 ] spin 1 )
	eMax: +0.139973 at state 9 ( [ +0.250000 +0.000000 +0.000000 ] spin -1 )
	HOMO-LUMO gap: +0.001757
	Optical gap  : +0.001873 at state 1 ( [ +0.000000 +0.333333 +0.000000 ] spin 1 )
Dumping 'jdft.Ecomponents' ... done
IonicMinimize: Iter:   1  F: -5926.034722104200227  |grad|_K:  6.940e-02  alpha:  1.000e+00  linmin: -4.693e-01  t[s]:  10602.27

#--- Lowdin population analysis ---
# oxidation-state Ag -0.057 -0.071 -0.059 -0.056 +0.003 +0.003 -0.012 +0.003 -0.031 -0.029 -0.031 -0.028 -0.033 -0.030 -0.028 -0.030 +0.150 +0.137 +0.129 +0.134 -0.037 -0.029 -0.037 -0.031 +0.005 -0.005 +0.004 +0.007 -0.065 -0.066 -0.066 -0.068 +0.154 +0.141 +0.156 +0.156 -0.032 -0.033 -0.167 -0.031
# magnetic-moments Ag +0.000 +0.000 +0.000 +0.000 +0.000 +0.000 +0.000 +0.000 +0.000 +0.000 +0.000 +0.000 +0.000 +0.000 +0.000 +0.000 +0.000 +0.000 +0.000 +0.000 +0.000 +0.000 +0.000 +0.000 +0.000 +0.000 +0.000 +0.000 +0.000 +0.000 +0.000 +0.000 +0.000 +0.000 +0.000 +0.000 +0.000 +0.000 +0.000 +0.000
# oxidation-state C +0.402
# magnetic-moments C -0.000
# oxidation-state O -0.094
# magnetic-moments O +0.000


Computing DFT-D3 correction:
# coordination-number Ag 8.153 8.148 8.153 8.152 8.779 8.779 8.779 8.779 8.867 8.866 8.867 8.866 6.732 6.732 6.732 6.732 4.847 4.974 4.960 4.974 8.866 8.865 8.866 8.865 8.780 8.780 8.780 8.780 8.150 8.150 8.150 8.150 4.847 4.847 4.847 4.847 6.733 6.731 7.770 6.731
# coordination-number C 2.371
# coordination-number O 1.066
# diagonal-C6 Ag 268.61 268.61 268.61 268.61 268.61 268.61 268.61 268.61 268.61 268.61 268.61 268.61 268.61 268.61 268.61 268.61 268.61 268.61 268.61 268.61 268.61 268.61 268.61 268.61 268.61 268.61 268.61 268.61 268.61 268.61 268.61 268.61 268.61 268.61 268.61 268.61 268.61 268.61 268.61 268.61
# diagonal-C6 C 28.39
# diagonal-C6 O 12.76
EvdW_6 =   -0.222194
EvdW_8 =   -0.317240

-------- Electronic minimization -----------
	Linear fluid (dielectric constant: 78.4, screening length: 8.12261 Bohr) occupying 0.484593 of unit cell:	Completed after 22 iterations at t[s]:  10661.91
	FillingsUpdate:  mu: -0.133421871  nElectrons: 770.000000  magneticMoment: [ Abs: 0.00000  Tot: +0.00000 ]
ElecMinimize: Iter:   0  F: -5925.961751026610727  |grad|_K:  2.337e-05  alpha:  1.000e+00
[...]
	HOMO: -0.146738 at state 12 ( [ +0.500000 +0.000000 +0.000000 ] spin -1 )
	mu  : -0.144839
	LUMO: -0.144642 at state 6 ( [ +0.500000 +0.333333 +0.000000 ] spin 1 )
	eMax: +0.137390 at state 5 ( [ +0.500000 +0.000000 +0.000000 ] spin 1 )
	HOMO-LUMO gap: +0.002096
	Optical gap  : +0.003883 at state 1 ( [ +0.000000 +0.333333 +0.000000 ] spin 1 )
Dumping 'jdft.Ecomponents' ... done
IonicMinimize: Iter:   9  F: -5926.066598368062841  |grad|_K:  6.274e-04  alpha:  1.000e+00  linmin: -1.054e-01  t[s]:  33821.11

#--- Lowdin population analysis ---
# oxidation-state Ag -0.056 -0.067 -0.058 -0.057 +0.003 +0.003 -0.001 +0.003 -0.030 -0.030 -0.030 -0.029 -0.036 -0.030 -0.027 -0.029 +0.151 +0.125 +0.119 +0.123 -0.031 -0.029 -0.031 -0.031 +0.004 -0.004 +0.004 +0.007 -0.066 -0.065 -0.064 -0.066 +0.153 +0.145 +0.155 +0.159 -0.036 -0.031 -0.168 -0.027
# magnetic-moments Ag +0.000 +0.000 +0.000 +0.000 +0.000 +0.000 +0.000 +0.000 +0.000 +0.000 +0.000 +0.000 +0.000 +0.000 +0.000 +0.000 +0.000 +0.000 +0.000 +0.000 +0.000 +0.000 +0.000 +0.000 +0.000 +0.000 +0.000 +0.000 +0.000 +0.000 +0.000 +0.000 +0.000 +0.000 +0.000 +0.000 +0.000 +0.000 +0.000 +0.000
# oxidation-state C +0.401
# magnetic-moments C +0.000
# oxidation-state O -0.099
# magnetic-moments O +0.000


Computing DFT-D3 correction:
# coordination-number Ag 8.151 8.148 8.151 8.150 8.779 8.779 8.779 8.779 8.866 8.866 8.866 8.866 6.732 6.732 6.732 6.732 4.847 4.918 4.911 4.918 8.865 8.865 8.865 8.864 8.780 8.780 8.780 8.780 8.150 8.150 8.150 8.150 4.847 4.847 4.847 4.847 6.732 6.731 7.681 6.731
# coordination-number C 2.153
# coordination-number O 1.024
# diagonal-C6 Ag 268.61 268.61 268.61 268.61 268.61 268.61 268.61 268.61 268.61 268.61 268.61 268.61 268.61 268.61 268.61 268.61 268.61 268.61 268.61 268.61 268.61 268.61 268.61 268.61 268.61 268.61 268.61 268.61 268.61 268.61 268.61 268.61 268.61 268.61 268.61 268.61 268.61 268.61 268.61 268.61
# diagonal-C6 C 29.20
# diagonal-C6 O 12.79
EvdW_6 =   -0.222024
EvdW_8 =   -0.316223

-------- Electronic minimization -----------
	Linear fluid (dielectric constant: 78.4, screening length: 8.12261 Bohr) occupying 0.480103 of unit cell:	Completed after 16 iterations at t[s]:  33878.83
	FillingsUpdate:  mu: -0.142650866  nElectrons: 770.000000  magneticMoment: [ Abs: 0.00000  Tot: +0.00000 ]
ElecMinimize: Iter:   0  F: -5926.062184520469600  |grad|_K:  5.317e-06  alpha:  1.000e+00
	Linear fluid (dielectric constant: 78.4, screening length: 8.12261 Bohr) occupying 0.479662 of unit cell:	Completed after 21 iterations at t[s]:  33998.86
	Linear fluid (dielectric constant: 78.4, screening length: 8.12261 Bohr) occupying 0.479941 of unit cell:	Completed after 22 iterations at t[s]:  34043.14
	FillingsUpdate:  mu: -0.145030391  nElectrons: 770.000000  magneticMoment: [ Abs: 0.00000  Tot: +0.00000 ]
	SubspaceRotationAdjust: set factor to 0.532
ElecMinimize: Iter:   1  F: -5926.065866208916304  |grad|_K:  2.312e-06  alpha:  3.466e-01  linmin: -6.014e-05  t[s]:  34096.80
	Linear fluid (dielectric constant: 78.4, screening length: 8.12261 Bohr) occupying 0.479954 of unit cell:	Completed after 13 iterations at t[s]:  34153.61
	Linear fluid (dielectric constant: 78.4, screening length: 8.12261 Bohr) occupying 0.479946 of unit cell:	Completed after 11 iterations at t[s]:  34195.04
	FillingsUpdate:  mu: -0.144729524  nElectrons: 770.000000  magneticMoment: [ Abs: 0.00000  Tot: +0.00000 ]
	SubspaceRotationAdjust: set factor to 0.35
ElecMinimize: Iter:   2  F: -5926.066302896657362  |grad|_K:  1.204e-06  alpha:  2.175e-01  linmin:  1.227e-06  t[s]:  34248.39
	Linear fluid (dielectric constant: 78.4, screening length: 8.12261 Bohr) occupying 0.479948 of unit cell:	Completed after 11 iterations at t[s]:  34304.66
	Linear fluid (dielectric constant: 78.4, screening length: 8.12261 Bohr) occupying 0.479950 of unit cell:	Completed after 10 iterations at t[s]:  34345.71
	FillingsUpdate:  mu: -0.144766568  nElectrons: 770.000000  magneticMoment: [ Abs: 0.00000  Tot: +0.00000 ]
	SubspaceRotationAdjust: set factor to 0.347
ElecMinimize: Iter:   3  F: -5926.066499981207016  |grad|_K:  7.575e-07  alpha:  3.631e-01  linmin:  2.039e-05  t[s]:  34399.48
	Linear fluid (dielectric constant: 78.4, screening length: 8.12261 Bohr) occupying 0.479951 of unit cell:	Completed after 11 iterations at t[s]:  34455.65
	Linear fluid (dielectric constant: 78.4, screening length: 8.12261 Bohr) occupying 0.479951 of unit cell:	Completed after 1 iterations at t[s]:  34494.48
	FillingsUpdate:  mu: -0.144975123  nElectrons: 770.000000  magneticMoment: [ Abs: 0.00000  Tot: +0.00000 ]
	SubspaceRotationAdjust: set factor to 0.383
ElecMinimize: Iter:   4  F: -5926.066576630156305  |grad|_K:  4.280e-07  alpha:  3.568e-01  linmin:  4.634e-05  t[s]:  34547.76
	Linear fluid (dielectric constant: 78.4, screening length: 8.12261 Bohr) occupying 0.479951 of unit cell:	Completed after 9 iterations at t[s]:  34603.53
	Linear fluid (dielectric constant: 78.4, screening length: 8.12261 Bohr) occupying 0.479951 of unit cell:	Completed after 0 iterations at t[s]:  34641.61
	FillingsUpdate:  mu: -0.144942400  nElectrons: 770.000000  magneticMoment: [ Abs: 0.00000  Tot: +0.00000 ]
	SubspaceRotationAdjust: set factor to 0.387
ElecMinimize: Iter:   5  F: -5926.066601537574570  |grad|_K:  2.204e-07  alpha:  3.634e-01  linmin: -1.106e-04  t[s]:  34695.32
	Linear fluid (dielectric constant: 78.4, screening length: 8.12261 Bohr) occupying 0.479952 of unit cell:	Completed after 4 iterations at t[s]:  34749.58
	Linear fluid (dielectric constant: 78.4, screening length: 8.12261 Bohr) occupying 0.479952 of unit cell:	Completed after 2 iterations at t[s]:  34788.57
	FillingsUpdate:  mu: -0.144898862  nElectrons: 770.000000  magneticMoment: [ Abs: 0.00000  Tot: +0.00000 ]
	SubspaceRotationAdjust: set factor to 0.447
ElecMinimize: Iter:   6  F: -5926.066609097798391  |grad|_K:  1.585e-07  alpha:  4.131e-01  linmin:  2.794e-05  t[s]:  34842.10
	Linear fluid (dielectric constant: 78.4, screening length: 8.12261 Bohr) occupying 0.479957 of unit cell:	Completed after 6 iterations at t[s]:  34897.17
	Linear fluid (dielectric constant: 78.4, screening length: 8.12261 Bohr) occupying 0.479957 of unit cell:	Completed after 1 iterations at t[s]:  34935.73
	FillingsUpdate:  mu: -0.144870032  nElectrons: 770.000000  magneticMoment: [ Abs: 0.00000  Tot: +0.00000 ]
	SubspaceRotationAdjust: set factor to 0.518
ElecMinimize: Iter:   7  F: -5926.066612530435123  |grad|_K:  1.003e-07  alpha:  3.665e-01  linmin:  1.752e-05  t[s]:  34989.22
	Linear fluid (dielectric constant: 78.4, screening length: 8.12261 Bohr) occupying 0.479962 of unit cell:	Completed after 4 iterations at t[s]:  35043.68
	Linear fluid (dielectric constant: 78.4, screening length: 8.12261 Bohr) occupying 0.479963 of unit cell:	Completed after 0 iterations at t[s]:  35081.83
	FillingsUpdate:  mu: -0.144859735  nElectrons: 770.000000  magneticMoment: [ Abs: 0.00000  Tot: +0.00000 ]
	SubspaceRotationAdjust: set factor to 0.592
ElecMinimize: Iter:   8  F: -5926.066614078599741  |grad|_K:  6.959e-08  alpha:  4.100e-01  linmin: -1.421e-04  t[s]:  35135.71
	Linear fluid (dielectric constant: 78.4, screening length: 8.12261 Bohr) occupying 0.479968 of unit cell:	Completed after 2 iterations at t[s]:  35189.30
	Linear fluid (dielectric constant: 78.4, screening length: 8.12261 Bohr) occupying 0.479968 of unit cell:	Completed after 0 iterations at t[s]:  35227.15
	FillingsUpdate:  mu: -0.144846755  nElectrons: 770.000000  magneticMoment: [ Abs: 0.00000  Tot: +0.00000 ]
	SubspaceRotationAdjust: set factor to 0.728
ElecMinimize: Iter:   9  F: -5926.066614794636735  |grad|_K:  4.740e-08  alpha:  3.842e-01  linmin: -1.240e-05  t[s]:  35280.60
	Linear fluid (dielectric constant: 78.4, screening length: 8.12261 Bohr) occupying 0.479972 of unit cell:	Completed after 3 iterations at t[s]:  35334.40
	Linear fluid (dielectric constant: 78.4, screening length: 8.12261 Bohr) occupying 0.479972 of unit cell:	Completed after 0 iterations at t[s]:  35372.16
	FillingsUpdate:  mu: -0.144845401  nElectrons: 770.000000  magneticMoment: [ Abs: 0.00000  Tot: +0.00000 ]
	SubspaceRotationAdjust: set factor to 0.639
ElecMinimize: Iter:  10  F: -5926.066615072657441  |grad|_K:  3.276e-08  alpha:  3.267e-01  linmin:  4.178e-04  t[s]:  35425.67
	Linear fluid (dielectric constant: 78.4, screening length: 8.12261 Bohr) occupying 0.479974 of unit cell:	Completed after 2 iterations at t[s]:  35479.34
	Linear fluid (dielectric constant: 78.4, screening length: 8.12261 Bohr) occupying 0.479974 of unit cell:	Completed after 0 iterations at t[s]:  35517.29
	FillingsUpdate:  mu: -0.144845907  nElectrons: 770.000000  magneticMoment: [ Abs: 0.00000  Tot: +0.00000 ]
	SubspaceRotationAdjust: set factor to 0.517
ElecMinimize: Iter:  11  F: -5926.066615181971429  |grad|_K:  1.739e-08  alpha:  2.925e-01  linmin: -3.802e-04  t[s]:  35570.51
	Linear fluid (dielectric constant: 78.4, screening length: 8.12261 Bohr) occupying 0.479974 of unit cell:	Completed after 0 iterations at t[s]:  35623.39
	Linear fluid (dielectric constant: 78.4, screening length: 8.12261 Bohr) occupying 0.479975 of unit cell:	Completed after 1 iterations at t[s]:  35661.84
	FillingsUpdate:  mu: -0.144843927  nElectrons: 770.000000  magneticMoment: [ Abs: 0.00000  Tot: +0.00000 ]
	SubspaceRotationAdjust: set factor to 0.522
ElecMinimize: Iter:  12  F: -5926.066615224429370  |grad|_K:  1.129e-08  alpha:  4.333e-01  linmin:  1.647e-03  t[s]:  35715.10
	Linear fluid (dielectric constant: 78.4, screening length: 8.12261 Bohr) occupying 0.479975 of unit cell:	Completed after 0 iterations at t[s]:  35767.94
	Linear fluid (dielectric constant: 78.4, screening length: 8.12261 Bohr) occupying 0.479975 of unit cell:	Completed after 0 iterations at t[s]:  35805.80
	FillingsUpdate:  mu: -0.144843948  nElectrons: 770.000000  magneticMoment: [ Abs: 0.00000  Tot: +0.00000 ]
	SubspaceRotationAdjust: set factor to 0.56
ElecMinimize: Iter:  13  F: -5926.066615241115869  |grad|_K:  6.153e-09  alpha:  3.949e-01  linmin: -2.669e-04  t[s]:  35859.04
ElecMinimize: Converged (|Delta F|<1.000000e-07 for 2 iters).
Setting wave functions to eigenvectors of Hamiltonian
Converging empty states (this may take a while): |deigs|: 3.486e-08

Computing DFT-D3 correction:
# coordination-number Ag 8.151 8.148 8.151 8.150 8.779 8.779 8.779 8.779 8.866 8.866 8.866 8.866 6.732 6.732 6.732 6.732 4.847 4.918 4.911 4.918 8.865 8.865 8.865 8.864 8.780 8.780 8.780 8.780 8.150 8.150 8.150 8.150 4.847 4.847 4.847 4.847 6.732 6.731 7.681 6.731
# coordination-number C 2.153
# coordination-number O 1.024
# diagonal-C6 Ag 268.61 268.61 268.61 268.61 268.61 268.61 268.61 268.61 268.61 268.61 268.61 268.61 268.61 268.61 268.61 268.61 268.61 268.61 268.61 268.61 268.61 268.61 268.61 268.61 268.61 268.61 268.61 268.61 268.61 268.61 268.61 268.61 268.61 268.61 268.61 268.61 268.61 268.61 268.61 268.61
# diagonal-C6 C 29.20
# diagonal-C6 O 12.79
EvdW_6 =   -0.222024
EvdW_8 =   -0.316223

# Ionic positions in cartesian coordinates:
ion Ag   3.835417000000000   1.682334000000000  13.043153000000000 0
ion Ag   0.002582000000000  10.252812000000002  13.043153000000000 0
ion Ag  11.501085999999999   1.682334000000000  13.043153000000000 0
ion Ag   7.668251000000000  10.252812000000002  13.043153000000000 0
ion Ag  -0.000736000000000   3.395349000000000   9.424063000000000 0
ion Ag  -3.833556000000000  11.965828000000002   9.424063000000000 0
ion Ag   7.664932000000000   3.395349000000000   9.424063000000000 0
ion Ag   3.832112000000000  11.965828000000002   9.424063000000000 0
ion Ag   3.832742000000000   5.197413000000001   5.972663000000000 0
ion Ag  -0.000094000000000  13.767891000000002   5.972663000000000 0
ion Ag  11.498410000000000   5.197413000000001   5.972663000000000 0
ion Ag   7.665575000000000  13.767891000000002   5.972663000000000 0
ion Ag  -0.002722000000000   6.958834000000002   2.379593000000000 0
ion Ag  -3.835557000000001  15.529313000000004   2.379593000000000 0
ion Ag   7.662945999999999   6.958834000000002   2.379593000000000 0
ion Ag   3.830110999999999  15.529313000000004   2.379593000000000 0
ion Ag   7.669207999999998  17.005235000000003  16.291689999999999 0
ion Ag  11.502043000000000   8.434757000000001  16.291689999999999 0
ion Ag   0.003540000000000  17.005235000000003  16.291689999999999 0
ion Ag   3.836374999999999   8.434757000000001  16.291689999999999 0
ion Ag   3.833408000000000   6.801035000000001  11.168018000000000 0
ion Ag   0.000580999999999  15.371531000000001  11.168018000000000 0
ion Ag  11.499076999999998   6.801035000000001  11.168018000000000 0
ion Ag   7.666249000000000  15.371531000000001  11.168018000000000 0
ion Ag   3.833056000000000   0.031488000000000   7.715897999999999 0
ion Ag   0.000220999999999   8.601967000000002   7.715897999999999 0
ion Ag  11.498725000000000   0.031488000000000   7.715897999999999 0
ion Ag   7.665889999999999   8.601967000000002   7.715897999999999 0
ion Ag  -0.003434000000000   1.745429000000000   4.098042000000000 0
ion Ag  -3.836277000000000  10.315891000000002   4.098042000000000 0
ion Ag   7.662233999999999   1.745429000000000   4.098042000000000 0
ion Ag   3.829406000000000  10.315891000000002   4.098042000000000 0
ion Ag   3.830595000000000   3.565593000000000   0.850020000000000 0
ion Ag  -0.002240000000000  12.136072000000002   0.850020000000000 0
ion Ag  11.496263999999998   3.565593000000000   0.850020000000000 0
ion Ag   7.663429000000000  12.136072000000002   0.850020000000000 0
ion Ag   0.002330000000000   5.040161000000001  14.761654000000000 0
ion Ag  -3.830505000000001  13.610640000000002  14.761654000000000 0
ion Ag   7.667997999999999   5.040161000000001  14.761654000000000 0
ion Ag   3.835162999999999  13.610640000000002  14.761654000000000 0
ion C   7.667997999999999   5.040161000000001  18.847224818113492 1  Linear 0 0 1
ion O   7.728096999999998   5.040161000000001  21.032208305111745 1  Linear 0 0 1

# Forces in Cartesian coordinates:
force Ag  -0.000980473960820  -0.000308852818075  -0.001732057078955 0
force Ag   0.000069858559553   0.000247607465293   0.000254665756515 0
force Ag   0.000995137787434  -0.000205925371298  -0.001569367013944 0
force Ag  -0.000053459359521   0.001693524401211  -0.001720360763510 0
force Ag  -0.000159787382112   0.000523212670859   0.000051309403002 0
force Ag   0.000352411060244   0.000282133177956   0.000310669738381 0
force Ag   0.000233695110446   0.000859296785705   0.003451565872486 0
force Ag  -0.000593897046438   0.000347296305688  -0.000173879855697 0
force Ag  -0.000202839209317   0.000638674473246  -0.000517565679750 0
force Ag   0.000256515420719   0.000731413737506  -0.000246197405138 0
force Ag   0.000159885116445   0.000570792822810  -0.000478427628393 0
force Ag  -0.000234854999632   0.000594225397905   0.000426802370826 0
force Ag  -0.000098507847249   0.000088942148059   0.000000257374410 0
force Ag  -0.000031113826812   0.000047540467202  -0.000185241745709 0
force Ag  -0.000177765035520  -0.000228205269921  -0.000314093512130 0
force Ag  -0.000114205711648  -0.000204536198632  -0.000182278784886 0
force Ag  -0.000082270377685  -0.000126652077206   0.000347493856713 0
force Ag   0.002798606172870   0.001693671479852   0.000604026978551 0
force Ag  -0.000089120467703  -0.002032849194441   0.000542002419650 0
force Ag  -0.002738928640700   0.001244551344772   0.000702918770368 0
force Ag   0.000213867096032  -0.000897826178582   0.000094109909419 0
force Ag  -0.000166878434304  -0.000257242329562   0.000367214310513 0
force Ag  -0.000185467411449  -0.000934423232565  -0.000387085112530 0
force Ag   0.000266904046065  -0.000531087675332  -0.000306080520711 0
force Ag  -0.000403436805373  -0.000359904894474  -0.000330857938873 0
force Ag   0.000092699904825  -0.000387107731308   0.000518259984105 0
force Ag   0.000352363239739  -0.000166452411209  -0.000723212246322 0
force Ag  -0.000043589964758   0.000034739394060  -0.000054961426026 0
force Ag   0.000057426317484  -0.000598935214619   0.000082009058879 0
force Ag   0.000794076389559  -0.000702698660714   0.000061528721235 0
force Ag  -0.000029978701302  -0.000081231318799   0.000581757789055 0
force Ag  -0.000622639336131  -0.000487605580720   0.000389818792345 0
force Ag  -0.000210571326742   0.000410164380136  -0.000425799617437 0
force Ag   0.000075813391272   0.000277743280409  -0.000411353166157 0
force Ag   0.000245225329626   0.000497340420746  -0.000120450905537 0
force Ag  -0.000037734714396   0.000328054089302  -0.000042984865946 0
force Ag   0.000159711538812   0.000117220899778  -0.000467964520734 0
force Ag   0.000289503294106  -0.000089275671637   0.000072049165105 0
force Ag  -0.000192048457114  -0.000981493251733   0.001221714284572 0
force Ag  -0.000120756851699  -0.000164966029051   0.000163018554908 0
force C   0.000442434735176  -0.001855669984051   0.000079341725759 1  Linear 0 0 1
force O  -0.000285368569496   0.000430297055409  -0.000003496214316 1  Linear 0 0 1

# Energy components:
   A_diel =       -0.0021128662394836
   Eewald =    21802.7683128439311986
       EH =    27157.3072689027103479
     Eloc =   -55822.0139842769785901
      Enl =      161.0109771804451384
     EvdW =       -0.5382478136798045
      Exc =     -584.7059981695026636
 Exc_core =        8.4255436218391111
       KE =     1351.6825098427489138
-------------------------------------
     Etot =    -5926.0657307347273672
       TS =        0.0008845063882321
-------------------------------------
        F =    -5926.0666152411158691


Dumping 'jdft.fillings' ... done
Dumping 'jdft.wfns' ... done
Dumping 'jdft.fluidState' ... done
Dumping 'jdft.ionpos' ... done
Dumping 'jdft.lattice' ... done
Dumping 'jdft.eigenvals' ... done
Dumping 'jdft.eigStats' ... 
	eMin: -3.537990 at state 10 ( [ +0.250000 +0.333333 +0.000000 ] spin -1 )
	HOMO: -0.146733 at state 12 ( [ +0.500000 +0.000000 +0.000000 ] spin -1 )
	mu  : -0.144844
	LUMO: -0.144629 at state 6 ( [ +0.500000 +0.333333 +0.000000 ] spin 1 )
	eMax: +0.137362 at state 12 ( [ +0.500000 +0.000000 +0.000000 ] spin -1 )
	HOMO-LUMO gap: +0.002104
	Optical gap  : +0.003971 at state 8 ( [ +0.000000 +0.333333 +0.000000 ] spin -1 )
Dumping 'jdft.Ecomponents' ... done
IonicMinimize: Iter:  10  F: -5926.066615241115869  |grad|_K:  5.616e-05  alpha:  1.000e+00  linmin: -6.422e-03  t[s]:  36139.72
IonicMinimize: Converged (|grad|_K<1.000000e-04).

#--- Lowdin population analysis ---
# oxidation-state Ag -0.057 -0.067 -0.059 -0.057 +0.003 +0.003 -0.001 +0.003 -0.030 -0.030 -0.030 -0.028 -0.036 -0.030 -0.026 -0.029 +0.151 +0.125 +0.119 +0.122 -0.031 -0.030 -0.031 -0.031 +0.004 -0.004 +0.004 +0.007 -0.066 -0.065 -0.064 -0.066 +0.153 +0.145 +0.155 +0.159 -0.036 -0.031 -0.167 -0.028
# magnetic-moments Ag -0.000 +0.000 -0.000 -0.000 -0.000 -0.000 +0.000 -0.000 +0.000 -0.000 -0.000 -0.000 -0.000 -0.000 -0.000 -0.000 +0.000 -0.000 -0.000 +0.000 -0.000 +0.000 -0.000 -0.000 -0.000 -0.000 -0.000 -0.000 -0.000 -0.000 +0.000 -0.000 -0.000 +0.000 -0.000 -0.000 -0.000 -0.000 -0.000 -0.000
# oxidation-state C +0.401
# magnetic-moments C -0.000
# oxidation-state O -0.098
# magnetic-moments O +0.000


Dumping 'jdft.n_up' ... done
Dumping 'jdft.n_dn' ... done
Dumping 'jdft.tau_up' ... done
Dumping 'jdft.tau_dn' ... done
Dumping 'jdft.eigenvals' ... done
Dumping 'jdft.eigStats' ... 
	eMin: -3.537990 at state 10 ( [ +0.250000 +0.333333 +0.000000 ] spin -1 )
	HOMO: -0.146733 at state 12 ( [ +0.500000 +0.000000 +0.000000 ] spin -1 )
	mu  : -0.144844
	LUMO: -0.144629 at state 6 ( [ +0.500000 +0.333333 +0.000000 ] spin 1 )
	eMax: +0.137362 at state 12 ( [ +0.500000 +0.000000 +0.000000 ] spin -1 )
	HOMO-LUMO gap: +0.002104
	Optical gap  : +0.003971 at state 8 ( [ +0.000000 +0.333333 +0.000000 ] spin -1 )
Dumping 'jdft.kPts' ... done
Dumping 'jdft.kMap' ... done
Dumping 'jdft.dosUp' ... done.
Dumping 'jdft.dosDn' ... done.
End date and time: Thu Feb 17 18:19:07 2022  (Duration: 0-10:03:40.73)
Done!
