
*************** JDFTx 1.7.0 (git hash 5f12716a) ***************

Start date and time: Fri Sep  9 01:13:08 2022
Executable /home/nisi6161/jdftx_alpine/build/jdftx with command-line: -i in
Running on hosts (process indices):  c3cpu-a2-u21-3.rc.int.colorado.edu (0-23)
Divided in process groups (process indices):  0 (0)  1 (1)  2 (2)  3 (3)  4 (4)  5 (5)  6 (6)  7 (7)  8 (8)  9 (9)  10 (10)  11 (11)  12 (12)  13 (13)  14 (14)  15 (15)  16 (16)  17 (17)  18 (18)  19 (19)  20 (20)  21 (21)  22 (22)  23 (23)
Resource initialization completed at t[s]:      0.00
Run totals: 24 processes, 64 threads, 0 GPUs


Input parsed successfully to the following command list (including defaults):

basis kpoint-dependent
converge-empty-states yes
coords-type Cartesian
core-overlap-check none
coulomb-interaction Periodic
davidson-band-ratio 1.1
density-of-states Etol 1.000000e-06 Esigma 1.000000e-03 \
		Complete \
	Total \
	OrthoOrbital Cu 1   s \
	OrthoOrbital Cu 1   p \
	OrthoOrbital Cu 1   px \
	OrthoOrbital Cu 1   py \
	OrthoOrbital Cu 1   pz \
	OrthoOrbital Cu 1   d \
	OrthoOrbital Cu 1   dxy \
	OrthoOrbital Cu 1   dyz \
	OrthoOrbital Cu 1   dz2 \
	OrthoOrbital Cu 1   dxz \
	OrthoOrbital Cu 1   dx2-y2 \
	OrthoOrbital Cu 2   s \
	OrthoOrbital Cu 2   p \
	OrthoOrbital Cu 2   px \
	OrthoOrbital Cu 2   py \
	OrthoOrbital Cu 2   pz \
	OrthoOrbital Cu 2   d \
	OrthoOrbital Cu 2   dxy \
	OrthoOrbital Cu 2   dyz \
	OrthoOrbital Cu 2   dz2 \
	OrthoOrbital Cu 2   dxz \
	OrthoOrbital Cu 2   dx2-y2 \
	OrthoOrbital Cu 3   s \
	OrthoOrbital Cu 3   p \
	OrthoOrbital Cu 3   px \
	OrthoOrbital Cu 3   py \
	OrthoOrbital Cu 3   pz \
	OrthoOrbital Cu 3   d \
	OrthoOrbital Cu 3   dxy \
	OrthoOrbital Cu 3   dyz \
	OrthoOrbital Cu 3   dz2 \
	OrthoOrbital Cu 3   dxz \
	OrthoOrbital Cu 3   dx2-y2 \
	OrthoOrbital Cu 4   s \
	OrthoOrbital Cu 4   p \
	OrthoOrbital Cu 4   px \
	OrthoOrbital Cu 4   py \
	OrthoOrbital Cu 4   pz \
	OrthoOrbital Cu 4   d \
	OrthoOrbital Cu 4   dxy \
	OrthoOrbital Cu 4   dyz \
	OrthoOrbital Cu 4   dz2 \
	OrthoOrbital Cu 4   dxz \
	OrthoOrbital Cu 4   dx2-y2 \
	OrthoOrbital Cu 5   s \
	OrthoOrbital Cu 5   p \
	OrthoOrbital Cu 5   px \
	OrthoOrbital Cu 5   py \
	OrthoOrbital Cu 5   pz \
	OrthoOrbital Cu 5   d \
	OrthoOrbital Cu 5   dxy \
	OrthoOrbital Cu 5   dyz \
	OrthoOrbital Cu 5   dz2 \
	OrthoOrbital Cu 5   dxz \
	OrthoOrbital Cu 5   dx2-y2 \
	OrthoOrbital Cu 6   s \
	OrthoOrbital Cu 6   p \
	OrthoOrbital Cu 6   px \
	OrthoOrbital Cu 6   py \
	OrthoOrbital Cu 6   pz \
	OrthoOrbital Cu 6   d \
	OrthoOrbital Cu 6   dxy \
	OrthoOrbital Cu 6   dyz \
	OrthoOrbital Cu 6   dz2 \
	OrthoOrbital Cu 6   dxz \
	OrthoOrbital Cu 6   dx2-y2 \
	OrthoOrbital Cu 7   s \
	OrthoOrbital Cu 7   p \
	OrthoOrbital Cu 7   px \
	OrthoOrbital Cu 7   py \
	OrthoOrbital Cu 7   pz \
	OrthoOrbital Cu 7   d \
	OrthoOrbital Cu 7   dxy \
	OrthoOrbital Cu 7   dyz \
	OrthoOrbital Cu 7   dz2 \
	OrthoOrbital Cu 7   dxz \
	OrthoOrbital Cu 7   dx2-y2 \
	OrthoOrbital Cu 8   s \
	OrthoOrbital Cu 8   p \
	OrthoOrbital Cu 8   px \
	OrthoOrbital Cu 8   py \
	OrthoOrbital Cu 8   pz \
	OrthoOrbital Cu 8   d \
	OrthoOrbital Cu 8   dxy \
	OrthoOrbital Cu 8   dyz \
	OrthoOrbital Cu 8   dz2 \
	OrthoOrbital Cu 8   dxz \
	OrthoOrbital Cu 8   dx2-y2 \
	OrthoOrbital Cu 9   s \
	OrthoOrbital Cu 9   p \
	OrthoOrbital Cu 9   px \
	OrthoOrbital Cu 9   py \
	OrthoOrbital Cu 9   pz \
	OrthoOrbital Cu 9   d \
	OrthoOrbital Cu 9   dxy \
	OrthoOrbital Cu 9   dyz \
	OrthoOrbital Cu 9   dz2 \
	OrthoOrbital Cu 9   dxz \
	OrthoOrbital Cu 9   dx2-y2 \
	OrthoOrbital Cu 10   s \
	OrthoOrbital Cu 10   p \
	OrthoOrbital Cu 10   px \
	OrthoOrbital Cu 10   py \
	OrthoOrbital Cu 10   pz \
	OrthoOrbital Cu 10   d \
	OrthoOrbital Cu 10   dxy \
	OrthoOrbital Cu 10   dyz \
	OrthoOrbital Cu 10   dz2 \
	OrthoOrbital Cu 10   dxz \
	OrthoOrbital Cu 10   dx2-y2 \
	OrthoOrbital Cu 11   s \
	OrthoOrbital Cu 11   p \
	OrthoOrbital Cu 11   px \
	OrthoOrbital Cu 11   py \
	OrthoOrbital Cu 11   pz \
	OrthoOrbital Cu 11   d \
	OrthoOrbital Cu 11   dxy \
	OrthoOrbital Cu 11   dyz \
	OrthoOrbital Cu 11   dz2 \
	OrthoOrbital Cu 11   dxz \
	OrthoOrbital Cu 11   dx2-y2 \
	OrthoOrbital Cu 12   s \
	OrthoOrbital Cu 12   p \
	OrthoOrbital Cu 12   px \
	OrthoOrbital Cu 12   py \
	OrthoOrbital Cu 12   pz \
	OrthoOrbital Cu 12   d \
	OrthoOrbital Cu 12   dxy \
	OrthoOrbital Cu 12   dyz \
	OrthoOrbital Cu 12   dz2 \
	OrthoOrbital Cu 12   dxz \
	OrthoOrbital Cu 12   dx2-y2 \
	OrthoOrbital Cu 13   s \
	OrthoOrbital Cu 13   p \
	OrthoOrbital Cu 13   px \
	OrthoOrbital Cu 13   py \
	OrthoOrbital Cu 13   pz \
	OrthoOrbital Cu 13   d \
	OrthoOrbital Cu 13   dxy \
	OrthoOrbital Cu 13   dyz \
	OrthoOrbital Cu 13   dz2 \
	OrthoOrbital Cu 13   dxz \
	OrthoOrbital Cu 13   dx2-y2 \
	OrthoOrbital Cu 14   s \
	OrthoOrbital Cu 14   p \
	OrthoOrbital Cu 14   px \
	OrthoOrbital Cu 14   py \
	OrthoOrbital Cu 14   pz \
	OrthoOrbital Cu 14   d \
	OrthoOrbital Cu 14   dxy \
	OrthoOrbital Cu 14   dyz \
	OrthoOrbital Cu 14   dz2 \
	OrthoOrbital Cu 14   dxz \
	OrthoOrbital Cu 14   dx2-y2 \
	OrthoOrbital Cu 15   s \
	OrthoOrbital Cu 15   p \
	OrthoOrbital Cu 15   px \
	OrthoOrbital Cu 15   py \
	OrthoOrbital Cu 15   pz \
	OrthoOrbital Cu 15   d \
	OrthoOrbital Cu 15   dxy \
	OrthoOrbital Cu 15   dyz \
	OrthoOrbital Cu 15   dz2 \
	OrthoOrbital Cu 15   dxz \
	OrthoOrbital Cu 15   dx2-y2 \
	OrthoOrbital Cu 16   s \
	OrthoOrbital Cu 16   p \
	OrthoOrbital Cu 16   px \
	OrthoOrbital Cu 16   py \
	OrthoOrbital Cu 16   pz \
	OrthoOrbital Cu 16   d \
	OrthoOrbital Cu 16   dxy \
	OrthoOrbital Cu 16   dyz \
	OrthoOrbital Cu 16   dz2 \
	OrthoOrbital Cu 16   dxz \
	OrthoOrbital Cu 16   dx2-y2 \
	OrthoOrbital Cu 17   s \
	OrthoOrbital Cu 17   p \
	OrthoOrbital Cu 17   px \
	OrthoOrbital Cu 17   py \
	OrthoOrbital Cu 17   pz \
	OrthoOrbital Cu 17   d \
	OrthoOrbital Cu 17   dxy \
	OrthoOrbital Cu 17   dyz \
	OrthoOrbital Cu 17   dz2 \
	OrthoOrbital Cu 17   dxz \
	OrthoOrbital Cu 17   dx2-y2 \
	OrthoOrbital Cu 18   s \
	OrthoOrbital Cu 18   p \
	OrthoOrbital Cu 18   px \
	OrthoOrbital Cu 18   py \
	OrthoOrbital Cu 18   pz \
	OrthoOrbital Cu 18   d \
	OrthoOrbital Cu 18   dxy \
	OrthoOrbital Cu 18   dyz \
	OrthoOrbital Cu 18   dz2 \
	OrthoOrbital Cu 18   dxz \
	OrthoOrbital Cu 18   dx2-y2 \
	OrthoOrbital Cu 19   s \
	OrthoOrbital Cu 19   p \
	OrthoOrbital Cu 19   px \
	OrthoOrbital Cu 19   py \
	OrthoOrbital Cu 19   pz \
	OrthoOrbital Cu 19   d \
	OrthoOrbital Cu 19   dxy \
	OrthoOrbital Cu 19   dyz \
	OrthoOrbital Cu 19   dz2 \
	OrthoOrbital Cu 19   dxz \
	OrthoOrbital Cu 19   dx2-y2 \
	OrthoOrbital Cu 20   s \
	OrthoOrbital Cu 20   p \
	OrthoOrbital Cu 20   px \
	OrthoOrbital Cu 20   py \
	OrthoOrbital Cu 20   pz \
	OrthoOrbital Cu 20   d \
	OrthoOrbital Cu 20   dxy \
	OrthoOrbital Cu 20   dyz \
	OrthoOrbital Cu 20   dz2 \
	OrthoOrbital Cu 20   dxz \
	OrthoOrbital Cu 20   dx2-y2 \
	OrthoOrbital Cu 21   s \
	OrthoOrbital Cu 21   p \
	OrthoOrbital Cu 21   px \
	OrthoOrbital Cu 21   py \
	OrthoOrbital Cu 21   pz \
	OrthoOrbital Cu 21   d \
	OrthoOrbital Cu 21   dxy \
	OrthoOrbital Cu 21   dyz \
	OrthoOrbital Cu 21   dz2 \
	OrthoOrbital Cu 21   dxz \
	OrthoOrbital Cu 21   dx2-y2 \
	OrthoOrbital Cu 22   s \
	OrthoOrbital Cu 22   p \
	OrthoOrbital Cu 22   px \
	OrthoOrbital Cu 22   py \
	OrthoOrbital Cu 22   pz \
	OrthoOrbital Cu 22   d \
	OrthoOrbital Cu 22   dxy \
	OrthoOrbital Cu 22   dyz \
	OrthoOrbital Cu 22   dz2 \
	OrthoOrbital Cu 22   dxz \
	OrthoOrbital Cu 22   dx2-y2 \
	OrthoOrbital Cu 23   s \
	OrthoOrbital Cu 23   p \
	OrthoOrbital Cu 23   px \
	OrthoOrbital Cu 23   py \
	OrthoOrbital Cu 23   pz \
	OrthoOrbital Cu 23   d \
	OrthoOrbital Cu 23   dxy \
	OrthoOrbital Cu 23   dyz \
	OrthoOrbital Cu 23   dz2 \
	OrthoOrbital Cu 23   dxz \
	OrthoOrbital Cu 23   dx2-y2 \
	OrthoOrbital Cu 24   s \
	OrthoOrbital Cu 24   p \
	OrthoOrbital Cu 24   px \
	OrthoOrbital Cu 24   py \
	OrthoOrbital Cu 24   pz \
	OrthoOrbital Cu 24   d \
	OrthoOrbital Cu 24   dxy \
	OrthoOrbital Cu 24   dyz \
	OrthoOrbital Cu 24   dz2 \
	OrthoOrbital Cu 24   dxz \
	OrthoOrbital Cu 24   dx2-y2 \
	OrthoOrbital Cu 25   s \
	OrthoOrbital Cu 25   p \
	OrthoOrbital Cu 25   px \
	OrthoOrbital Cu 25   py \
	OrthoOrbital Cu 25   pz \
	OrthoOrbital Cu 25   d \
	OrthoOrbital Cu 25   dxy \
	OrthoOrbital Cu 25   dyz \
	OrthoOrbital Cu 25   dz2 \
	OrthoOrbital Cu 25   dxz \
	OrthoOrbital Cu 25   dx2-y2 \
	OrthoOrbital Cu 26   s \
	OrthoOrbital Cu 26   p \
	OrthoOrbital Cu 26   px \
	OrthoOrbital Cu 26   py \
	OrthoOrbital Cu 26   pz \
	OrthoOrbital Cu 26   d \
	OrthoOrbital Cu 26   dxy \
	OrthoOrbital Cu 26   dyz \
	OrthoOrbital Cu 26   dz2 \
	OrthoOrbital Cu 26   dxz \
	OrthoOrbital Cu 26   dx2-y2 \
	OrthoOrbital Cu 27   s \
	OrthoOrbital Cu 27   p \
	OrthoOrbital Cu 27   px \
	OrthoOrbital Cu 27   py \
	OrthoOrbital Cu 27   pz \
	OrthoOrbital Cu 27   d \
	OrthoOrbital Cu 27   dxy \
	OrthoOrbital Cu 27   dyz \
	OrthoOrbital Cu 27   dz2 \
	OrthoOrbital Cu 27   dxz \
	OrthoOrbital Cu 27   dx2-y2 \
	OrthoOrbital Cu 28   s \
	OrthoOrbital Cu 28   p \
	OrthoOrbital Cu 28   px \
	OrthoOrbital Cu 28   py \
	OrthoOrbital Cu 28   pz \
	OrthoOrbital Cu 28   d \
	OrthoOrbital Cu 28   dxy \
	OrthoOrbital Cu 28   dyz \
	OrthoOrbital Cu 28   dz2 \
	OrthoOrbital Cu 28   dxz \
	OrthoOrbital Cu 28   dx2-y2 \
	OrthoOrbital Cu 29   s \
	OrthoOrbital Cu 29   p \
	OrthoOrbital Cu 29   px \
	OrthoOrbital Cu 29   py \
	OrthoOrbital Cu 29   pz \
	OrthoOrbital Cu 29   d \
	OrthoOrbital Cu 29   dxy \
	OrthoOrbital Cu 29   dyz \
	OrthoOrbital Cu 29   dz2 \
	OrthoOrbital Cu 29   dxz \
	OrthoOrbital Cu 29   dx2-y2 \
	OrthoOrbital Cu 30   s \
	OrthoOrbital Cu 30   p \
	OrthoOrbital Cu 30   px \
	OrthoOrbital Cu 30   py \
	OrthoOrbital Cu 30   pz \
	OrthoOrbital Cu 30   d \
	OrthoOrbital Cu 30   dxy \
	OrthoOrbital Cu 30   dyz \
	OrthoOrbital Cu 30   dz2 \
	OrthoOrbital Cu 30   dxz \
	OrthoOrbital Cu 30   dx2-y2 \
	OrthoOrbital Cu 31   s \
	OrthoOrbital Cu 31   p \
	OrthoOrbital Cu 31   px \
	OrthoOrbital Cu 31   py \
	OrthoOrbital Cu 31   pz \
	OrthoOrbital Cu 31   d \
	OrthoOrbital Cu 31   dxy \
	OrthoOrbital Cu 31   dyz \
	OrthoOrbital Cu 31   dz2 \
	OrthoOrbital Cu 31   dxz \
	OrthoOrbital Cu 31   dx2-y2 \
	OrthoOrbital Cu 32   s \
	OrthoOrbital Cu 32   p \
	OrthoOrbital Cu 32   px \
	OrthoOrbital Cu 32   py \
	OrthoOrbital Cu 32   pz \
	OrthoOrbital Cu 32   d \
	OrthoOrbital Cu 32   dxy \
	OrthoOrbital Cu 32   dyz \
	OrthoOrbital Cu 32   dz2 \
	OrthoOrbital Cu 32   dxz \
	OrthoOrbital Cu 32   dx2-y2 \
	OrthoOrbital Cu 33   s \
	OrthoOrbital Cu 33   p \
	OrthoOrbital Cu 33   px \
	OrthoOrbital Cu 33   py \
	OrthoOrbital Cu 33   pz \
	OrthoOrbital Cu 33   d \
	OrthoOrbital Cu 33   dxy \
	OrthoOrbital Cu 33   dyz \
	OrthoOrbital Cu 33   dz2 \
	OrthoOrbital Cu 33   dxz \
	OrthoOrbital Cu 33   dx2-y2 \
	OrthoOrbital Cu 34   s \
	OrthoOrbital Cu 34   p \
	OrthoOrbital Cu 34   px \
	OrthoOrbital Cu 34   py \
	OrthoOrbital Cu 34   pz \
	OrthoOrbital Cu 34   d \
	OrthoOrbital Cu 34   dxy \
	OrthoOrbital Cu 34   dyz \
	OrthoOrbital Cu 34   dz2 \
	OrthoOrbital Cu 34   dxz \
	OrthoOrbital Cu 34   dx2-y2
dump End ElecDensity KEdensity BandEigs EigStats RhoAtom DOS Kpoints
dump Ionic State IonicPositions Lattice EigStats Ecomponents
dump 
dump 
dump 
dump 
dump 
dump 
dump 
dump 
dump-name jdft.$VAR
elec-cutoff 20
elec-eigen-algo Davidson
elec-ex-corr gga-PBE
elec-initial-magnetization 0.000000 no
elec-n-bands 388
elec-smearing Fermi 0.001
electronic-minimize  \
	dirUpdateScheme      FletcherReeves \
	linminMethod         DirUpdateRecommended \
	nIterations          100 \
	history              15 \
	knormThreshold       0 \
	energyDiffThreshold  1e-07 \
	nEnergyDiff          2 \
	alphaTstart          1 \
	alphaTmin            1e-10 \
	updateTestStepSize   yes \
	alphaTreduceFactor   0.1 \
	alphaTincreaseFactor 3 \
	nAlphaAdjustMax      3 \
	wolfeEnergy          0.0001 \
	wolfeGradient        0.9 \
	fdTest               no
exchange-regularization WignerSeitzTruncated
fluid LinearPCM 298.000000 1.013250
fluid-anion F- 0.5 MeanFieldLJ \
	epsBulk 1 \
	pMol 0 \
	epsInf 1 \
	Pvap 0 \
	sigmaBulk 0 \
	Rvdw 2.24877 \
	Res 0 \
	tauNuc 343133
fluid-cation Na+ 0.5 MeanFieldLJ \
	epsBulk 1 \
	pMol 0 \
	epsInf 1 \
	Pvap 0 \
	sigmaBulk 0 \
	Rvdw 2.19208 \
	Res 0 \
	tauNuc 343133
fluid-ex-corr lda-TF lda-PZ
fluid-gummel-loop 10 1.000000e-05
fluid-minimize  \
	dirUpdateScheme      PolakRibiere \
	linminMethod         DirUpdateRecommended \
	nIterations          400 \
	history              15 \
	knormThreshold       1e-11 \
	energyDiffThreshold  0 \
	nEnergyDiff          2 \
	alphaTstart          1 \
	alphaTmin            1e-10 \
	updateTestStepSize   yes \
	alphaTreduceFactor   0.1 \
	alphaTincreaseFactor 3 \
	nAlphaAdjustMax      6 \
	wolfeEnergy          0.0001 \
	wolfeGradient        0.9 \
	fdTest               no
fluid-solvent H2O 55.338 ScalarEOS \
	epsBulk 78.4 \
	pMol 0.92466 \
	epsInf 1.77 \
	Pvap 1.06736e-10 \
	sigmaBulk 4.62e-05 \
	Rvdw 2.61727 \
	Res 1.42 \
	tauNuc 343133 \
	poleEl 15 7 1
forces-output-coords Positions
initial-state jdft.$VAR
ion Cu   0.000010000000000  11.524257999999996   1.212956000000000 1
ion Cu  -0.000057000000000  15.098188999999998   4.513042999999999 1
ion Cu   0.000057000000000   0.059392000000000  27.269868999999996 1
ion Cu  -0.000067000000000   3.503985000000000   2.818057000000000 1
ion Cu  -0.000043000000000   6.930634999999999   6.150411999999999 1
ion Cu  -0.000029000000000  10.386627000000001   9.415312000000000 1
ion Cu  -0.000024000000000  17.348667999999996  15.944027999999998 1
ion Cu  -0.000043000000000  18.499819999999996   7.756346999999999 1
ion Cu   0.000005000000000   2.296330000000000  11.037506000000000 1
ion Cu   0.000005000000000   5.783334999999999  14.302822999999998 1
ion Cu  -0.000024000000000   9.269140999999998  17.571224999999998 1
ion Cu   0.000062000000000  12.734251999999998  20.850383999999995 1
ion Cu  -0.000010000000000  13.869130999999998  12.666036999999998 1
ion Cu  -0.000038000000000   1.164851000000000  19.210095999999997 1
ion Cu   0.000014000000000   4.614926999999999  22.456067999999998 1
ion Cu   0.000195000000000   8.089313999999998  25.760990999999997 1
ion Cu   0.000081000000000  16.104830999999997  24.243107999999999 1
ion Cu   2.383268000000000  10.994483999999996   5.338522999999999 1
ion Cu   2.383302000000000  14.444186999999996   8.584329000000000 1
ion Cu   2.383249000000000  19.154863999999996   3.551566999999999 1
ion Cu   2.383235000000000   2.874037999999999   6.944208000000000 1
ion Cu   2.383287000000000   6.339207999999999  10.222781999999999 1
ion Cu   2.383283000000000   9.824070999999998  13.491018000000000 1
ion Cu   2.383345000000000  16.759304999999998  20.036909999999995 1
ion Cu   2.383354000000000  17.912500999999995  11.849395999999999 1
ion Cu   2.383302000000000   1.737705000000000  15.127469999999999 1
ion Cu   2.383302000000000   5.219325000000000  18.377694999999999 1
ion Cu   2.383345000000000   8.675316999999998  21.642844999999998 1
ion Cu   2.383392000000000  12.100904999999997  24.975700999999997 1
ion Cu   2.383283000000000  13.309522999999997  16.755834000000000 1
ion Cu   2.383364000000000   0.508883000000000  23.281214999999996 1
ion Cu   2.383401999999999   4.083285999999999  26.581301999999997 1
ion Cu   2.383239999999999   7.518562999999999   2.033599999999999 1
ion Cu   2.383254000000000  15.545458999999997   0.524722000000000 1
ion-species /projects/musgravc/apps/jdftx-1.6.0/build/pseudopotentials/GBRV_v1.5/$ID_pbe_v1.uspp
ion-species /projects/musgravc/apps/jdftx-1.6.0/build/pseudopotentials/GBRV_v1.5/$ID_pbe_v1.2.uspp
ion-species /projects/musgravc/apps/jdftx-1.6.0/build/pseudopotentials/GBRV_v1.5/$ID_pbe_v1.4.uspp
ion-species /projects/musgravc/apps/jdftx-1.6.0/build/pseudopotentials/GBRV_v1.5/$ID_pbe_v1.5.uspp
ion-width Ecut
ionic-minimize  \
	dirUpdateScheme      L-BFGS \
	linminMethod         DirUpdateRecommended \
	nIterations          100 \
	history              15 \
	knormThreshold       0.0001 \
	energyDiffThreshold  0.0001 \
	nEnergyDiff          2 \
	alphaTstart          1 \
	alphaTmin            1e-10 \
	updateTestStepSize   yes \
	alphaTreduceFactor   0.1 \
	alphaTincreaseFactor 3 \
	nAlphaAdjustMax      3 \
	wolfeEnergy          0.0001 \
	wolfeGradient        0.9 \
	fdTest               no
kpoint   0.000000000000   0.000000000000   0.000000000000  1.00000000000000
kpoint-folding 12 3 1 
latt-move-scale 0 0 0
latt-scale 1 1 1 
lattice  \
	   4.766623000000000   -0.000000000000000    0.000000000000000  \
	   0.000000000000000   19.653292000000000    0.000000000000000  \
	   0.000000000000000    0.000000000000000   83.381855999999999 
lattice-minimize  \
	dirUpdateScheme      L-BFGS \
	linminMethod         DirUpdateRecommended \
	nIterations          0 \
	history              15 \
	knormThreshold       0 \
	energyDiffThreshold  1e-06 \
	nEnergyDiff          2 \
	alphaTstart          1 \
	alphaTmin            1e-10 \
	updateTestStepSize   yes \
	alphaTreduceFactor   0.1 \
	alphaTincreaseFactor 3 \
	nAlphaAdjustMax      3 \
	wolfeEnergy          0.0001 \
	wolfeGradient        0.9 \
	fdTest               no
lcao-params 30 1e-06 0.001
pcm-variant CANDLE
spintype z-spin
subspace-rotation-factor 1 yes
symmetries automatic
symmetry-threshold 0.0001
target-mu -0.24475 no

van-der-waals D3



---------- Setting up symmetries ----------

Found 8 point-group symmetries of the bravais lattice
Found 1 space-group symmetries with basis
Applied RMS atom displacement 0 bohrs to make symmetries exact.

---------- Initializing the Grid ----------
R = 
[      4.76662            0            0  ]
[            0      19.6533            0  ]
[            0            0      83.3819  ]
unit cell volume = 7811.2
G =
[    1.31816          0         -0  ]
[          0   0.319701          0  ]
[          0         -0  0.0753543  ]
Minimum fftbox size, Smin = [  20  80  336  ]
Chosen fftbox size, S = [  20  80  336  ]

---------- Exchange Correlation functional ----------
Initalized PBE GGA exchange.
Initalized PBE GGA correlation.

---------- Setting up pseudopotentials ----------
Width of ionic core gaussian charges (only for fluid interactions / plotting) set to 0.397384

Reading pseudopotential file '/projects/musgravc/apps/jdftx-1.6.0/build/pseudopotentials/GBRV_v1.5/cu_pbe_v1.2.uspp':
  Title: Cu.  Created by USPP 7.3.6 on 3-2-2014
  Reference state energy: -201.059491.  19 valence electrons in orbitals:
    |300>  occupation: 2  eigenvalue: -5.020764
    |310>  occupation: 6  eigenvalue: -3.445588
    |320>  occupation: 8  eigenvalue: -0.925168
    |400>  occupation: 2  eigenvalue: -0.567638
    |410>  occupation: 0  eigenvalue: -0.326154
  lMax: 2  lLocal: 3  QijEcut: 6
  6 projectors sampled on a log grid with 613 points:
    l: 0  eig: -5.020767  rCut: 1.4
    l: 0  eig: -0.567640  rCut: 1.4
    l: 1  eig: -3.445589  rCut: 1.55
    l: 1  eig: -0.326157  rCut: 1.55
    l: 2  eig: -0.925170  rCut: 1.5
    l: 2  eig: 1.500000  rCut: 1.5
  Partial core density with radius 0.8
  Transforming core density to a uniform radial grid of dG=0.02 with 1121 points.
  Transforming local potential to a uniform radial grid of dG=0.02 with 1121 points.
  Transforming nonlocal projectors to a uniform radial grid of dG=0.02 with 432 points.
  Transforming density augmentations to a uniform radial grid of dG=0.02 with 1121 points.
  Transforming atomic orbitals to a uniform radial grid of dG=0.02 with 432 points.
  Core radius for overlap checks: 1.55 bohrs.

Initialized 1 species with 34 total atoms.

Folded 1 k-points by 12x3x1 to 36 k-points.

---------- Setting up k-points, bands, fillings ----------
Adding inversion symmetry to k-mesh for non-inversion-symmetric unit cell.
Reduced to 19 k-points under symmetry. 
Computing the number of bands and number of electrons
Calculating initial fillings.
nElectrons: 646.000000   nBands: 388   nStates: 38

----- Setting up reduced wavefunction bases (one per k-point) -----
average nbasis = 33374.861 , ideal nbasis = 33370.035

----- Initializing Supercell corresponding to k-point mesh -----
Lattice vector linear combinations in supercell:
[  12   0   0  ]
[   0   3   0  ]
[   0   0   1  ]
Supercell lattice vectors:
[  57.1995  0  0  ]
[  0  58.9599  0  ]
[  0  0  83.3819  ]

Initializing DFT-D3 calculator:
	Parameters set for gga-PBE functional
	s6:  1.000  s_r6:  1.217
	s8:  0.722  s_r8:  1.000
	Per-atom parameters loaded for:
	Cu:  sqrtQ[a0]:  5.226  Rcov[a0]:  1.909  CN: [ 0.00 0.96 ]

Initializing DFT-D2 calculator for fluid / solvation:
	Cu:  C6:  187.33 Eh-a0^6  R0: 2.952 a0

---------- Setting up ewald sum ----------
Optimum gaussian width for ewald sums = 4.397807 bohr.
Real space sum over 945 unit cells with max indices [  10  4  2  ]
Reciprocal space sum over 7259 terms with max indices [  3  8  30  ]

Computing DFT-D3 correction:
# coordination-number Cu 6.817 9.105 5.553 6.881 9.102 9.177 9.152 9.045 9.167 9.181 9.182 9.089 9.163 9.158 9.033 6.865 7.500 9.033 9.161 7.503 9.089 9.182 9.183 9.041 9.155 9.164 9.178 9.103 6.883 9.167 9.099 6.813 6.862 5.555
# diagonal-C6 Cu 175.00 175.00 175.00 175.00 175.00 175.00 175.00 175.00 175.00 175.00 175.00 175.00 175.00 175.00 175.00 175.00 175.00 175.00 175.00 175.00 175.00 175.00 175.00 175.00 175.00 175.00 175.00 175.00 175.00 175.00 175.00 175.00 175.00 175.00
EvdW_6 =   -0.219449
EvdW_8 =   -0.319212

---------- Allocating electronic variables ----------
Initializing wave functions:  linear combination of atomic orbitals
Cu pseudo-atom occupations:   s ( 2 1 )  p ( 6 0 )  d ( 10 )
	FillingsUpdate:  mu: -0.244750000  nElectrons: 646.000000  magneticMoment: [ Abs: 0.26616  Tot: -0.00161 ]
LCAOMinimize: Iter:   0  G: -6559.2600514434179786  |grad|_K:  3.872e-02  alpha:  1.000e+00
LCAOMinimize: 	Step increased G by 2.767706e+03, reducing alpha to 3.840154e-02.
LCAOMinimize: 	Step increased G by 4.009459e+02, reducing alpha to 3.840154e-03.
	FillingsUpdate:  mu: -0.244750000  nElectrons: 646.000000  magneticMoment: [ Abs: 0.26779  Tot: -0.00349 ]
LCAOMinimize: Iter:   1  G: -6584.8570104016616824  |grad|_K:  1.255e-02  alpha:  3.840e-03  linmin: -1.565e-01  cgtest:  6.020e-01  t[s]:    629.00
LCAOMinimize: Encountered beta<0, resetting CG.
LCAOMinimize: 	Predicted alpha/alphaT>3.000000, increasing alphaT to 1.152046e-02.
	FillingsUpdate:  mu: -0.244750000  nElectrons: 646.000000  magneticMoment: [ Abs: 0.27599  Tot: -0.00701 ]
LCAOMinimize: Iter:   2  G: -6595.2111657757322973  |grad|_K:  1.956e-02  alpha:  1.893e-02  linmin:  8.739e-03  cgtest: -4.256e-02  t[s]:    818.83
	FillingsUpdate:  mu: -0.244750000  nElectrons: 646.000000  magneticMoment: [ Abs: 0.01271  Tot: +0.00105 ]
LCAOMinimize: Iter:   3  G: -6635.3856712088499989  |grad|_K:  2.779e-02  alpha:  3.276e-02  linmin: -1.372e-03  cgtest:  1.056e-01  t[s]:    970.29
	FillingsUpdate:  mu: -0.244750000  nElectrons: 646.000000  magneticMoment: [ Abs: 0.00412  Tot: +0.00025 ]
LCAOMinimize: Iter:   4  G: -6653.6393753571983325  |grad|_K:  5.376e-02  alpha:  2.050e-02  linmin: -4.806e-03  cgtest: -6.740e-01  t[s]:   1122.21
	FillingsUpdate:  mu: -0.244750000  nElectrons: 646.000000  magneticMoment: [ Abs: 0.00063  Tot: -0.00016 ]
LCAOMinimize: Iter:   5  G: -6664.2653445804562580  |grad|_K:  7.985e-03  alpha:  1.009e-02  linmin:  9.945e-03  cgtest:  2.360e+00  t[s]:   1274.39
LCAOMinimize: Encountered beta<0, resetting CG.
	FillingsUpdate:  mu: -0.244750000  nElectrons: 646.000000  magneticMoment: [ Abs: 0.00062  Tot: -0.00013 ]
LCAOMinimize: Iter:   6  G: -6669.6045441686374033  |grad|_K:  3.076e-03  alpha:  1.849e-02  linmin: -8.892e-02  cgtest:  7.707e-01  t[s]:   1425.41
LCAOMinimize: Encountered beta<0, resetting CG.
LCAOMinimize: 	Predicted alpha/alphaT>3.000000, increasing alphaT to 5.546261e-02.
	FillingsUpdate:  mu: -0.244750000  nElectrons: 646.000000  magneticMoment: [ Abs: 0.00066  Tot: +0.00016 ]
LCAOMinimize: Iter:   7  G: -6673.2363657756559405  |grad|_K:  5.290e-03  alpha:  9.808e-02  linmin: -1.543e-03  cgtest: -1.208e-01  t[s]:   1615.19
	FillingsUpdate:  mu: -0.244750000  nElectrons: 646.000000  magneticMoment: [ Abs: 0.00066  Tot: +0.00015 ]
LCAOMinimize: Iter:   8  G: -6673.9779421964849462  |grad|_K:  5.283e-03  alpha:  3.338e-03  linmin: -1.928e-02  cgtest:  9.910e-01  t[s]:   1766.88
LCAOMinimize: 	Predicted alpha/alphaT>3.000000, increasing alphaT to 1.001276e-02.
	FillingsUpdate:  mu: -0.244750000  nElectrons: 646.000000  magneticMoment: [ Abs: 0.00068  Tot: -0.00021 ]
LCAOMinimize: Iter:   9  G: -6677.1706300659907356  |grad|_K:  2.580e-03  alpha:  2.749e-02  linmin: -1.638e-02  cgtest:  1.522e-01  t[s]:   1955.98
LCAOMinimize: 	Wrong curvature in test step, increasing alphaT to 8.245632e-02.
	FillingsUpdate:  mu: -0.244750000  nElectrons: 646.000000  magneticMoment: [ Abs: 0.00066  Tot: -0.00008 ]
LCAOMinimize: Iter:  10  G: -6678.6291545018848410  |grad|_K:  2.494e-03  alpha: -1.019e+00  linmin: -1.212e-01  cgtest:  9.627e-01  t[s]:   2099.27
	FillingsUpdate:  mu: -0.244750000  nElectrons: 646.000000  magneticMoment: [ Abs: 0.00066  Tot: -0.00011 ]
LCAOMinimize: Iter:  11  G: -6679.3261225681071664  |grad|_K:  2.407e-03  alpha:  1.517e-02  linmin: -1.708e-01  cgtest:  9.634e-01  t[s]:   2250.65
LCAOMinimize: 	Wrong curvature in test step, increasing alphaT to 4.551187e-02.
	FillingsUpdate:  mu: -0.244750000  nElectrons: 646.000000  magneticMoment: [ Abs: 0.00067  Tot: -0.00013 ]
LCAOMinimize: Iter:  12  G: -6679.9882665127524888  |grad|_K:  2.391e-03  alpha: -8.687e-01  linmin: -1.842e-01  cgtest:  9.716e-01  t[s]:   2394.23
	FillingsUpdate:  mu: -0.244750000  nElectrons: 646.000000  magneticMoment: [ Abs: 0.00071  Tot: -0.00018 ]
LCAOMinimize: Iter:  13  G: -6681.7826021703785955  |grad|_K:  2.379e-03  alpha:  3.983e-02  linmin: -1.935e-01  cgtest:  9.235e-01  t[s]:   2546.30
LCAOMinimize: 	Wrong curvature in test step, increasing alphaT to 1.194919e-01.
	FillingsUpdate:  mu: -0.244750000  nElectrons: 646.000000  magneticMoment: [ Abs: 0.00077  Tot: -0.00021 ]
LCAOMinimize: Iter:  14  G: -6683.6660968227070043  |grad|_K:  2.366e-03  alpha: -5.104e-01  linmin: -1.749e-01  cgtest:  9.180e-01  t[s]:   2689.86
	FillingsUpdate:  mu: -0.244750000  nElectrons: 646.000000  magneticMoment: [ Abs: 0.00087  Tot: -0.00016 ]
LCAOMinimize: Iter:  15  G: -6686.4627380729652941  |grad|_K:  2.314e-03  alpha:  5.842e-02  linmin: -1.851e-01  cgtest:  8.810e-01  t[s]:   2844.87
LCAOMinimize: 	Wrong curvature in test step, increasing alphaT to 1.752655e-01.
	FillingsUpdate:  mu: -0.244750000  nElectrons: 646.000000  magneticMoment: [ Abs: 0.00101  Tot: -0.00021 ]
LCAOMinimize: Iter:  16  G: -6689.1895470136187214  |grad|_K:  2.206e-03  alpha: -6.697e-01  linmin: -1.811e-01  cgtest:  8.847e-01  t[s]:   2988.29
	FillingsUpdate:  mu: -0.244750000  nElectrons: 646.000000  magneticMoment: [ Abs: 0.00110  Tot: -0.00020 ]
LCAOMinimize: Iter:  17  G: -6690.5584964640802355  |grad|_K:  2.112e-03  alpha:  3.455e-02  linmin: -2.305e-01  cgtest:  9.463e-01  t[s]:   3142.71
LCAOMinimize: 	Wrong curvature in test step, increasing alphaT to 1.036399e-01.
	FillingsUpdate:  mu: -0.244750000  nElectrons: 646.000000  magneticMoment: [ Abs: 0.00119  Tot: -0.00024 ]
LCAOMinimize: Iter:  18  G: -6691.7266115215352329  |grad|_K:  2.023e-03  alpha: -4.028e+00  linmin: -2.344e-01  cgtest:  9.492e-01  t[s]:   3289.04
	FillingsUpdate:  mu: -0.244750000  nElectrons: 646.000000  magneticMoment: [ Abs: 0.00127  Tot: -0.00024 ]
LCAOMinimize: Iter:  19  G: -6692.5362907437138347  |grad|_K:  1.953e-03  alpha:  2.626e-02  linmin: -2.346e-01  cgtest:  9.629e-01  t[s]:   3444.00
LCAOMinimize: 	Predicted alpha/alphaT>3.000000, increasing alphaT to 7.876890e-02.
LCAOMinimize: 	Predicted alpha/alphaT>3.000000, increasing alphaT to 2.363067e-01.
LCAOMinimize: 	Step increased G by 1.320927e+02, reducing alpha to 6.565579e-02.
	FillingsUpdate:  mu: -0.244750000  nElectrons: 646.000000  magneticMoment: [ Abs: 0.00146  Tot: -0.00024 ]
LCAOMinimize: Iter:  20  G: -6694.3989329438227287  |grad|_K:  1.757e-03  alpha:  6.566e-02  linmin: -2.383e-01  cgtest:  9.062e-01  t[s]:   3792.43
LCAOMinimize: Encountered beta<0, resetting CG.
LCAOMinimize: 	Predicted alpha/alphaT>3.000000, increasing alphaT to 1.969674e-01.
LCAOMinimize: 	Predicted alpha/alphaT>3.000000, increasing alphaT to 5.909021e-01.
	FillingsUpdate:  mu: -0.244750000  nElectrons: 646.000000  magneticMoment: [ Abs: 0.00156  Tot: -0.00031 ]
LCAOMinimize: Iter:  21  G: -6695.0776077782329594  |grad|_K:  1.677e-03  alpha:  2.959e-02  linmin: -2.348e-01  cgtest:  9.597e-01  t[s]:   4026.58
LCAOMinimize: Encountered beta<0, resetting CG.
LCAOMinimize: 	Predicted alpha/alphaT>3.000000, increasing alphaT to 8.877467e-02.
LCAOMinimize: 	Predicted alpha/alphaT>3.000000, increasing alphaT to 2.663240e-01.
LCAOMinimize: 	Step increased G by 7.303445e-01, reducing alpha to 3.178791e-02.
	FillingsUpdate:  mu: -0.244750000  nElectrons: 646.000000  magneticMoment: [ Abs: 0.00167  Tot: -0.00038 ]
LCAOMinimize: Iter:  22  G: -6695.7410795897576463  |grad|_K:  1.592e-03  alpha:  3.179e-02  linmin: -2.260e-01  cgtest:  9.571e-01  t[s]:   4375.99
LCAOMinimize: Encountered beta<0, resetting CG.
LCAOMinimize: 	Predicted alpha/alphaT>3.000000, increasing alphaT to 9.536372e-02.
LCAOMinimize: 	Predicted alpha/alphaT>3.000000, increasing alphaT to 2.860912e-01.
	FillingsUpdate:  mu: -0.244750000  nElectrons: 646.000000  magneticMoment: [ Abs: 0.00220  Tot: -0.00011 ]
LCAOMinimize: Iter:  23  G: -6698.5246889131321950  |grad|_K:  1.395e-03  alpha:  1.607e-01  linmin: -8.185e-02  cgtest:  5.305e-01  t[s]:   4609.34
	FillingsUpdate:  mu: -0.244750000  nElectrons: 646.000000  magneticMoment: [ Abs: 0.00227  Tot: -0.00018 ]
LCAOMinimize: Iter:  24  G: -6698.8085445006800001  |grad|_K:  1.407e-03  alpha:  2.195e-02  linmin: -4.598e-02  cgtest:  1.844e-01  t[s]:   4763.92
	FillingsUpdate:  mu: -0.244750000  nElectrons: 646.000000  magneticMoment: [ Abs: 0.00254  Tot: -0.00015 ]
LCAOMinimize: Iter:  25  G: -6699.3018721640928561  |grad|_K:  2.654e-03  alpha:  5.080e-02  linmin:  6.648e-03  cgtest: -5.431e-01  t[s]:   4918.52
	FillingsUpdate:  mu: -0.244750000  nElectrons: 646.000000  magneticMoment: [ Abs: 0.00256  Tot: -0.00014 ]
LCAOMinimize: Iter:  26  G: -6699.3221428814467799  |grad|_K:  2.681e-03  alpha:  5.531e-04  linmin: -1.566e-02  cgtest:  9.956e-01  t[s]:   5073.14
LCAOMinimize: 	Predicted alpha/alphaT>3.000000, increasing alphaT to 1.659220e-03.
LCAOMinimize: 	Predicted alpha/alphaT>3.000000, increasing alphaT to 4.977661e-03.
	FillingsUpdate:  mu: -0.244750000  nElectrons: 646.000000  magneticMoment: [ Abs: 0.00257  Tot: -0.00012 ]
LCAOMinimize: Iter:  27  G: -6699.5454306844112580  |grad|_K:  7.807e-04  alpha:  8.149e-03  linmin: -1.202e-02  cgtest:  3.005e-02  t[s]:   5306.13
LCAOMinimize: 	Predicted alpha/alphaT>3.000000, increasing alphaT to 2.444648e-02.
	FillingsUpdate:  mu: -0.244750000  nElectrons: 646.000000  magneticMoment: [ Abs: 0.00262  Tot: -0.00011 ]
LCAOMinimize: Iter:  28  G: -6699.6120138394890091  |grad|_K:  6.222e-04  alpha:  2.898e-02  linmin:  8.359e-03  cgtest: -5.472e-02  t[s]:   5499.94
	FillingsUpdate:  mu: -0.244750000  nElectrons: 646.000000  magneticMoment: [ Abs: 0.00283  Tot: -0.00004 ]
LCAOMinimize: Iter:  29  G: -6699.7180783654730476  |grad|_K:  5.889e-04  alpha:  8.225e-02  linmin:  1.368e-02  cgtest:  3.523e-01  t[s]:   5654.43
	FillingsUpdate:  mu: -0.244750000  nElectrons: 646.000000  magneticMoment: [ Abs: 0.00289  Tot: -0.00003 ]
LCAOMinimize: Iter:  30  G: -6699.7548799202995724  |grad|_K:  5.735e-04  alpha:  2.952e-02  linmin: -2.498e-03  cgtest:  6.485e-02  t[s]:   5809.02
LCAOMinimize: None of the convergence criteria satisfied after 30 iterations.
----- createFluidSolver() ----- (Fluid-side solver setup)
   Initializing fluid molecule 'H2O'
     Initializing site 'O'
       Electron density: proportional to exp(-r/0.36935)*erfc((r-0.51523)/0.36823) with norm 6.826
       Charge density: gaussian nuclear width 0.478731 with net site charge 0.826
       Polarizability: cuspless exponential with width 0.32 and norm 3.73
       Hard sphere radius: 2.57003 bohrs
       Positions in reference frame:
         [ +0.000000 +0.000000 +0.000000 ]
     Initializing site 'H'
       Electron density: proportional to exp(-r/0.34641)*erfc((r-0)/0.390882) with norm 0.587
       Charge density: gaussian nuclear width 0.377945 with net site charge -0.413
       Polarizability: cuspless exponential with width 0.39 and norm 3.3
       Positions in reference frame:
         [ +0.000000 -1.441945 +1.122523 ]
         [ +0.000000 +1.441945 +1.122523 ]
     Net charge: 0   dipole magnitude: 0.927204
     Initializing spherical shell mfKernel with radius 2.61727 Bohr
     deltaS corrections:
       site 'O': -7.54299
       site 'H': -6.83917
   Initializing fluid molecule 'Na+'
     Initializing site 'Na'
       Electron density: proportional to exp(-r/0.19682)*erfc((r-0.71491)/0.41314) with norm 8.1383
       Charge density: gaussian nuclear width 0.365347 with net site charge -1
       Hard sphere radius: 1.86327 bohrs
       Positions in reference frame:
         [ +0.000000 +0.000000 +0.000000 ]
     Net charge: -1   dipole magnitude: 0
     Initializing gaussian mfKernel with width: 1.55004 Bohr
     deltaS corrections:
       site 'Na': -22.3555
   Initializing fluid molecule 'F-'
     Initializing site 'F'
       Electron density: proportional to exp(-r/0.38886)*erfc((r-0)/0.438782) with norm 8
       Charge density: gaussian nuclear width 0.374796 with net site charge 1
       Hard sphere radius: 2.39995 bohrs
       Positions in reference frame:
         [ +0.000000 +0.000000 +0.000000 ]
     Net charge: 1   dipole magnitude: 0
     Initializing gaussian mfKernel with width: 1.59012 Bohr
     deltaS corrections:
       site 'F': -9.04335

Correction to mu due to finite nuclear width = -0.0820568
   Cavity determined by nc: 0.00142 and sigma: 0.707107
   Nonlocal vdW cavity from gaussian model electron density with norm = 8 and sigma = 0.993594 bohr
   Charge asymmetry in cavity with sensitivity pCavity = 36.5 e-bohr/Eh
   Electrostatic cavity expanded by eta = 1.46 bohrs
   Weighted density cavitation model constrained by Nbulk: 0.0049383 bohr^-3, Pvap: 3.14029 kPa, Rvdw: 2.61727 bohr and sigmaBulk: 4.62e-05 Eh/bohr^2 at T: 298 K.
   Weighted density dispersion model using vdW pair potentials with single solvent site with sqrtC6eff: 0.77 SI.


---- Citations for features of the code used in this run ----

   Software package:
      R. Sundararaman, K. Letchworth-Weaver, K.A. Schwarz, D. Gunceler, Y. Ozhabes and T.A. Arias, 'JDFTx: software for joint density-functional theory', SoftwareX 6, 278 (2017)

   gga-PBE exchange-correlation functional:
      J.P. Perdew, K. Burke and M. Ernzerhof, Phys. Rev. Lett. 77, 3865 (1996)

   Pseudopotentials:
      KF Garrity, JW Bennett, KM Rabe and D Vanderbilt, Comput. Mater. Sci. 81, 446 (2014)

   DFT-D3 dispersion correction:
      S. Grimme, J. Antony, S. Ehrlich and H. Krieg, J. Chem. Phys. 132, 154104 (2010)

   DFT-D2 dispersion correction:
      S. Grimme, J. Comput. Chem. 27, 1787 (2006)

   Charge-asymmetric nonlocally-determined local-electric (CANDLE) solvation model:
      R. Sundararaman and W.A. Goddard III, J. Chem. Phys. 142, 064107 (2015)

   Total energy minimization with Auxiliary Hamiltonian:
      C. Freysoldt, S. Boeck, and J. Neugebauer, Phys. Rev. B 79, 241103(R) (2009)

   Grand-canonical (fixed-potential) DFT:
      R. Sundararaman, W. A. Goddard III and T. A. Arias, J. Chem. Phys. 146, 114104 (2017)

   Linear-tetrahedron sampling for density of states:
      G. Lehmann and M. Taut, Phys. status solidi (b) 54, 469 (1972)

This list may not be complete. Please suggest additional citations or
report any other bugs at https://github.com/shankar1729/jdftx/issues

Initialization completed successfully at t[s]:   5853.53


Computing DFT-D3 correction:
# coordination-number Cu 6.817 9.105 5.553 6.881 9.102 9.177 9.152 9.045 9.167 9.181 9.182 9.089 9.163 9.158 9.033 6.865 7.500 9.033 9.161 7.503 9.089 9.182 9.183 9.041 9.155 9.164 9.178 9.103 6.883 9.167 9.099 6.813 6.862 5.555
# diagonal-C6 Cu 175.00 175.00 175.00 175.00 175.00 175.00 175.00 175.00 175.00 175.00 175.00 175.00 175.00 175.00 175.00 175.00 175.00 175.00 175.00 175.00 175.00 175.00 175.00 175.00 175.00 175.00 175.00 175.00 175.00 175.00 175.00 175.00 175.00 175.00
EvdW_6 =   -0.219449
EvdW_8 =   -0.319212
Fluid solver invoked on fresh (random / LCAO) wavefunctions
Running a vacuum solve first:

-------- Initial electronic minimization -----------
	FillingsUpdate:  mu: +0.178760734  nElectrons: 646.000000  magneticMoment: [ Abs: 0.00289  Tot: -0.00003 ]
ElecMinimize: Iter:   0  G: -6699.756458394765104  |grad|_K:  2.278e-04  alpha:  1.000e+00
	FillingsUpdate:  mu: +0.393439606  nElectrons: 646.000000  magneticMoment: [ Abs: 0.00285  Tot: -0.00007 ]
	SubspaceRotationAdjust: set factor to 0.634
ElecMinimize: Iter:   1  G: -6701.189216938819300  |grad|_K:  2.811e-04  alpha:  4.288e-02  linmin: -5.810e-04  t[s]:   6270.59
	FillingsUpdate:  mu: +0.246467657  nElectrons: 646.000000  magneticMoment: [ Abs: 0.00279  Tot: -0.00002 ]
	SubspaceRotationAdjust: set factor to 0.287
ElecMinimize: Iter:   2  G: -6701.866206380767835  |grad|_K:  1.622e-04  alpha:  1.346e-02  linmin:  3.361e-06  t[s]:   6538.27
	FillingsUpdate:  mu: +0.056439858  nElectrons: 646.000000  magneticMoment: [ Abs: 0.00266  Tot: -0.00000 ]
	SubspaceRotationAdjust: set factor to 0.165
ElecMinimize: Iter:   3  G: -6702.302288408050117  |grad|_K:  8.663e-05  alpha:  3.252e-02  linmin: -7.468e-05  t[s]:   6802.83
ElecMinimize: 	Predicted alpha/alphaT>3.000000, increasing alphaT to 9.756460e-02.
	FillingsUpdate:  mu: +0.204471623  nElectrons: 646.000000  magneticMoment: [ Abs: 0.00198  Tot: +0.00003 ]
	SubspaceRotationAdjust: set factor to 0.145
ElecMinimize: Iter:   4  G: -6703.389299473787105  |grad|_K:  1.196e-04  alpha:  2.682e-01  linmin: -3.183e-05  t[s]:   7133.76
	FillingsUpdate:  mu: +0.166230821  nElectrons: 646.000000  magneticMoment: [ Abs: 0.00170  Tot: +0.00002 ]
	SubspaceRotationAdjust: set factor to 0.0922
	SubspaceRotationAdjust: resetting CG because factor has changed by 0.0922225
ElecMinimize: 	State modified externally: resetting search direction.
ElecMinimize: Iter:   5  G: -6704.111341886457922  |grad|_K:  5.551e-05  alpha:  1.043e-01
	FillingsUpdate:  mu: +0.127395641  nElectrons: 646.000000  magneticMoment: [ Abs: 0.00146  Tot: +0.00002 ]
	SubspaceRotationAdjust: set factor to 0.127
ElecMinimize: Iter:   6  G: -6704.315674616485921  |grad|_K:  3.692e-05  alpha:  1.337e-01  linmin: -5.979e-05  t[s]:   7801.95
	FillingsUpdate:  mu: +0.074142356  nElectrons: 646.000000  magneticMoment: [ Abs: 0.00138  Tot: +0.00001 ]
	SubspaceRotationAdjust: set factor to 0.165
ElecMinimize: Iter:   7  G: -6704.438454377727794  |grad|_K:  2.327e-05  alpha:  1.806e-01  linmin: -1.375e-05  t[s]:   8070.41
	FillingsUpdate:  mu: +0.083825659  nElectrons: 646.000000  magneticMoment: [ Abs: 0.00126  Tot: -0.00000 ]
	SubspaceRotationAdjust: set factor to 0.202
ElecMinimize: Iter:   8  G: -6704.511054845867875  |grad|_K:  2.896e-05  alpha:  2.699e-01  linmin: -1.748e-06  t[s]:   8339.38
	FillingsUpdate:  mu: +0.112987786  nElectrons: 646.000000  magneticMoment: [ Abs: 0.00119  Tot: -0.00002 ]
	SubspaceRotationAdjust: set factor to 0.208
ElecMinimize: Iter:   9  G: -6704.624096540770552  |grad|_K:  3.231e-05  alpha:  2.718e-01  linmin: -7.957e-06  t[s]:   8607.86
	FillingsUpdate:  mu: +0.135518493  nElectrons: 646.000000  magneticMoment: [ Abs: 0.00118  Tot: -0.00002 ]
	SubspaceRotationAdjust: set factor to 0.168
ElecMinimize: Iter:  10  G: -6704.689681836322961  |grad|_K:  3.653e-05  alpha:  1.331e-01  linmin:  1.341e-05  t[s]:   8876.12
	FillingsUpdate:  mu: +0.085042632  nElectrons: 646.000000  magneticMoment: [ Abs: 0.00120  Tot: -0.00001 ]
	SubspaceRotationAdjust: set factor to 0.147
ElecMinimize: Iter:  11  G: -6704.787458982050339  |grad|_K:  2.660e-05  alpha:  1.518e-01  linmin: -8.993e-06  t[s]:   9144.25
	FillingsUpdate:  mu: +0.087985671  nElectrons: 646.000000  magneticMoment: [ Abs: 0.00125  Tot: -0.00001 ]
	SubspaceRotationAdjust: set factor to 0.16
ElecMinimize: Iter:  12  G: -6704.842348085221602  |grad|_K:  2.131e-05  alpha:  1.532e-01  linmin: -7.580e-08  t[s]:   9412.41
	FillingsUpdate:  mu: +0.105913022  nElectrons: 646.000000  magneticMoment: [ Abs: 0.00122  Tot: -0.00001 ]
	SubspaceRotationAdjust: set factor to 0.144
ElecMinimize: Iter:  13  G: -6704.884354738135698  |grad|_K:  1.763e-05  alpha:  1.866e-01  linmin: -2.678e-06  t[s]:   9680.46
	FillingsUpdate:  mu: +0.107828169  nElectrons: 646.000000  magneticMoment: [ Abs: 0.00112  Tot: -0.00001 ]
	SubspaceRotationAdjust: set factor to 0.112
ElecMinimize: Iter:  14  G: -6704.903099645222937  |grad|_K:  1.078e-05  alpha:  1.217e-01  linmin: -7.767e-08  t[s]:   9948.53
	FillingsUpdate:  mu: +0.099578672  nElectrons: 646.000000  magneticMoment: [ Abs: 0.00094  Tot: -0.00001 ]
	SubspaceRotationAdjust: set factor to 0.117
ElecMinimize: Iter:  15  G: -6704.916135234322610  |grad|_K:  1.075e-05  alpha:  2.263e-01  linmin: -5.408e-07  t[s]:  10216.94
	FillingsUpdate:  mu: +0.097175464  nElectrons: 646.000000  magneticMoment: [ Abs: 0.00078  Tot: -0.00001 ]
	SubspaceRotationAdjust: set factor to 0.116
ElecMinimize: Iter:  16  G: -6704.924445479059614  |grad|_K:  7.161e-06  alpha:  1.452e-01  linmin:  2.920e-07  t[s]:  10484.78
	FillingsUpdate:  mu: +0.099367098  nElectrons: 646.000000  magneticMoment: [ Abs: 0.00064  Tot: -0.00001 ]
	SubspaceRotationAdjust: set factor to 0.115
ElecMinimize: Iter:  17  G: -6704.929334191235284  |grad|_K:  6.575e-06  alpha:  1.927e-01  linmin:  3.451e-07  t[s]:  10753.33
	FillingsUpdate:  mu: +0.102532259  nElectrons: 646.000000  magneticMoment: [ Abs: 0.00056  Tot: -0.00001 ]
	SubspaceRotationAdjust: set factor to 0.133
ElecMinimize: Iter:  18  G: -6704.932854128667714  |grad|_K:  4.445e-06  alpha:  1.646e-01  linmin:  2.499e-07  t[s]:  11021.34
	FillingsUpdate:  mu: +0.102374138  nElectrons: 646.000000  magneticMoment: [ Abs: 0.00052  Tot: -0.00001 ]
	SubspaceRotationAdjust: set factor to 0.135
ElecMinimize: Iter:  19  G: -6704.934439652337460  |grad|_K:  3.538e-06  alpha:  1.622e-01  linmin: -1.437e-07  t[s]:  11289.29
	FillingsUpdate:  mu: +0.100051650  nElectrons: 646.000000  magneticMoment: [ Abs: 0.00048  Tot: -0.00001 ]
	SubspaceRotationAdjust: set factor to 0.176
ElecMinimize: Iter:  20  G: -6704.935488501484542  |grad|_K:  2.681e-06  alpha:  1.692e-01  linmin: -5.763e-07  t[s]:  11557.73
	FillingsUpdate:  mu: +0.097989192  nElectrons: 646.000000  magneticMoment: [ Abs: 0.00045  Tot: -0.00001 ]
	SubspaceRotationAdjust: set factor to 0.199
ElecMinimize: Iter:  21  G: -6704.936258083828761  |grad|_K:  3.135e-06  alpha:  2.161e-01  linmin: -8.292e-07  t[s]:  11825.92
	FillingsUpdate:  mu: +0.096491571  nElectrons: 646.000000  magneticMoment: [ Abs: 0.00042  Tot: -0.00001 ]
	SubspaceRotationAdjust: set factor to 0.207
ElecMinimize: Iter:  22  G: -6704.937222683484833  |grad|_K:  2.759e-06  alpha:  1.978e-01  linmin: -1.052e-06  t[s]:  12093.56
	FillingsUpdate:  mu: +0.096049128  nElectrons: 646.000000  magneticMoment: [ Abs: 0.00041  Tot: -0.00001 ]
	SubspaceRotationAdjust: set factor to 0.209
ElecMinimize: Iter:  23  G: -6704.937795482466754  |grad|_K:  2.695e-06  alpha:  1.514e-01  linmin: -4.799e-07  t[s]:  12361.25
	FillingsUpdate:  mu: +0.094537870  nElectrons: 646.000000  magneticMoment: [ Abs: 0.00038  Tot: -0.00001 ]
	SubspaceRotationAdjust: set factor to 0.209
ElecMinimize: Iter:  24  G: -6704.938595159583201  |grad|_K:  2.447e-06  alpha:  2.220e-01  linmin: -2.958e-07  t[s]:  12628.91
	FillingsUpdate:  mu: +0.093275771  nElectrons: 646.000000  magneticMoment: [ Abs: 0.00035  Tot: -0.00000 ]
	SubspaceRotationAdjust: set factor to 0.211
ElecMinimize: Iter:  25  G: -6704.939032550341835  |grad|_K:  1.965e-06  alpha:  1.474e-01  linmin: -1.285e-07  t[s]:  12896.28
	FillingsUpdate:  mu: +0.092131405  nElectrons: 646.000000  magneticMoment: [ Abs: 0.00031  Tot: -0.00000 ]
	SubspaceRotationAdjust: set factor to 0.215
ElecMinimize: Iter:  26  G: -6704.939434718302437  |grad|_K:  1.790e-06  alpha:  2.105e-01  linmin:  1.918e-07  t[s]:  13163.66
	FillingsUpdate:  mu: +0.091813657  nElectrons: 646.000000  magneticMoment: [ Abs: 0.00026  Tot: -0.00000 ]
	SubspaceRotationAdjust: set factor to 0.225
ElecMinimize: Iter:  27  G: -6704.939693689423621  |grad|_K:  1.451e-06  alpha:  1.634e-01  linmin:  4.264e-08  t[s]:  13431.25
	FillingsUpdate:  mu: +0.092276036  nElectrons: 646.000000  magneticMoment: [ Abs: 0.00020  Tot: -0.00000 ]
	SubspaceRotationAdjust: set factor to 0.234
ElecMinimize: Iter:  28  G: -6704.939920174503641  |grad|_K:  1.333e-06  alpha:  2.174e-01  linmin:  9.660e-08  t[s]:  13695.24
	FillingsUpdate:  mu: +0.092244251  nElectrons: 646.000000  magneticMoment: [ Abs: 0.00015  Tot: -0.00000 ]
	SubspaceRotationAdjust: set factor to 0.252
ElecMinimize: Iter:  29  G: -6704.940044883867813  |grad|_K:  9.173e-07  alpha:  1.420e-01  linmin:  2.338e-08  t[s]:  13955.46
	FillingsUpdate:  mu: +0.091936314  nElectrons: 646.000000  magneticMoment: [ Abs: 0.00012  Tot: -0.00000 ]
	SubspaceRotationAdjust: set factor to 0.268
ElecMinimize: Iter:  30  G: -6704.940126071111081  |grad|_K:  8.069e-07  alpha:  1.950e-01  linmin:  6.377e-08  t[s]:  14222.49
	FillingsUpdate:  mu: +0.092305668  nElectrons: 646.000000  magneticMoment: [ Abs: 0.00010  Tot: -0.00000 ]
	SubspaceRotationAdjust: set factor to 0.28
ElecMinimize: Iter:  31  G: -6704.940169439193596  |grad|_K:  5.905e-07  alpha:  1.346e-01  linmin:  4.321e-08  t[s]:  14490.55
	FillingsUpdate:  mu: +0.092803800  nElectrons: 646.000000  magneticMoment: [ Abs: 0.00009  Tot: -0.00000 ]
	SubspaceRotationAdjust: set factor to 0.239
ElecMinimize: Iter:  32  G: -6704.940192892354389  |grad|_K:  6.575e-07  alpha:  1.359e-01  linmin: -2.066e-08  t[s]:  14759.35
	FillingsUpdate:  mu: +0.093149365  nElectrons: 646.000000  magneticMoment: [ Abs: 0.00008  Tot: -0.00000 ]
	SubspaceRotationAdjust: set factor to 0.19
ElecMinimize: Iter:  33  G: -6704.940217146562645  |grad|_K:  5.137e-07  alpha:  1.133e-01  linmin:  2.367e-08  t[s]:  15028.20
	FillingsUpdate:  mu: +0.093058992  nElectrons: 646.000000  magneticMoment: [ Abs: 0.00007  Tot: -0.00000 ]
	SubspaceRotationAdjust: set factor to 0.208
ElecMinimize: Iter:  34  G: -6704.940236073137385  |grad|_K:  3.982e-07  alpha:  1.449e-01  linmin:  2.854e-08  t[s]:  15296.59
	FillingsUpdate:  mu: +0.092976356  nElectrons: 646.000000  magneticMoment: [ Abs: 0.00007  Tot: -0.00000 ]
	SubspaceRotationAdjust: set factor to 0.225
ElecMinimize: Iter:  35  G: -6704.940250701100013  |grad|_K:  3.687e-07  alpha:  1.865e-01  linmin:  1.303e-08  t[s]:  15564.78
	FillingsUpdate:  mu: +0.093141244  nElectrons: 646.000000  magneticMoment: [ Abs: 0.00007  Tot: -0.00000 ]
	SubspaceRotationAdjust: set factor to 0.2
ElecMinimize: Iter:  36  G: -6704.940260339682027  |grad|_K:  3.220e-07  alpha:  1.432e-01  linmin:  7.873e-08  t[s]:  15833.41
	FillingsUpdate:  mu: +0.093419524  nElectrons: 646.000000  magneticMoment: [ Abs: 0.00007  Tot: -0.00000 ]
	SubspaceRotationAdjust: set factor to 0.163
ElecMinimize: Iter:  37  G: -6704.940266944630821  |grad|_K:  2.731e-07  alpha:  1.287e-01  linmin: -2.670e-08  t[s]:  16102.43
	FillingsUpdate:  mu: +0.093628845  nElectrons: 646.000000  magneticMoment: [ Abs: 0.00007  Tot: -0.00000 ]
	SubspaceRotationAdjust: set factor to 0.183
ElecMinimize: Iter:  38  G: -6704.940272692583676  |grad|_K:  2.176e-07  alpha:  1.557e-01  linmin: -3.716e-07  t[s]:  16370.46
	FillingsUpdate:  mu: +0.093572939  nElectrons: 646.000000  magneticMoment: [ Abs: 0.00006  Tot: -0.00000 ]
	SubspaceRotationAdjust: set factor to 0.196
ElecMinimize: Iter:  39  G: -6704.940276998486297  |grad|_K:  2.052e-07  alpha:  1.836e-01  linmin: -3.155e-07  t[s]:  16639.15
	FillingsUpdate:  mu: +0.093447989  nElectrons: 646.000000  magneticMoment: [ Abs: 0.00006  Tot: -0.00000 ]
	SubspaceRotationAdjust: set factor to 0.169
ElecMinimize: Iter:  40  G: -6704.940279845294754  |grad|_K:  1.552e-07  alpha:  1.365e-01  linmin: -3.944e-08  t[s]:  16907.05
	FillingsUpdate:  mu: +0.093474306  nElectrons: 646.000000  magneticMoment: [ Abs: 0.00005  Tot: -0.00000 ]
	SubspaceRotationAdjust: set factor to 0.17
ElecMinimize: Iter:  41  G: -6704.940281643216622  |grad|_K:  1.413e-07  alpha:  1.508e-01  linmin: -1.512e-07  t[s]:  17175.38
	FillingsUpdate:  mu: +0.093625651  nElectrons: 646.000000  magneticMoment: [ Abs: 0.00004  Tot: -0.00000 ]
	SubspaceRotationAdjust: set factor to 0.189
ElecMinimize: Iter:  42  G: -6704.940283477561024  |grad|_K:  1.232e-07  alpha:  1.853e-01  linmin: -4.653e-07  t[s]:  17443.71
	FillingsUpdate:  mu: +0.093681303  nElectrons: 646.000000  magneticMoment: [ Abs: 0.00004  Tot: -0.00000 ]
	SubspaceRotationAdjust: set factor to 0.196
ElecMinimize: Iter:  43  G: -6704.940284670109577  |grad|_K:  1.107e-07  alpha:  1.589e-01  linmin:  2.034e-07  t[s]:  17711.84
	FillingsUpdate:  mu: +0.093628018  nElectrons: 646.000000  magneticMoment: [ Abs: 0.00003  Tot: -0.00000 ]
	SubspaceRotationAdjust: set factor to 0.183
ElecMinimize: Iter:  44  G: -6704.940285590346321  |grad|_K:  9.272e-08  alpha:  1.516e-01  linmin: -3.960e-07  t[s]:  17980.15
	FillingsUpdate:  mu: +0.093555758  nElectrons: 646.000000  magneticMoment: [ Abs: 0.00003  Tot: -0.00000 ]
	SubspaceRotationAdjust: set factor to 0.189
ElecMinimize: Iter:  45  G: -6704.940286161859149  |grad|_K:  7.008e-08  alpha:  1.342e-01  linmin:  3.085e-07  t[s]:  18248.40
	FillingsUpdate:  mu: +0.093515177  nElectrons: 646.000000  magneticMoment: [ Abs: 0.00002  Tot: -0.00000 ]
	SubspaceRotationAdjust: set factor to 0.218
ElecMinimize: Iter:  46  G: -6704.940286637659483  |grad|_K:  7.059e-08  alpha:  1.968e-01  linmin:  1.110e-06  t[s]:  18517.07
	FillingsUpdate:  mu: +0.093521581  nElectrons: 646.000000  magneticMoment: [ Abs: 0.00002  Tot: -0.00000 ]
	SubspaceRotationAdjust: set factor to 0.225
ElecMinimize: Iter:  47  G: -6704.940287023287965  |grad|_K:  6.122e-08  alpha:  1.565e-01  linmin: -6.712e-07  t[s]:  18785.02
	FillingsUpdate:  mu: +0.093542710  nElectrons: 646.000000  magneticMoment: [ Abs: 0.00002  Tot: -0.00000 ]
	SubspaceRotationAdjust: set factor to 0.191
ElecMinimize: Iter:  48  G: -6704.940287297728901  |grad|_K:  6.201e-08  alpha:  1.477e-01  linmin: -1.259e-06  t[s]:  19052.49
	FillingsUpdate:  mu: +0.093535196  nElectrons: 646.000000  magneticMoment: [ Abs: 0.00002  Tot: -0.00000 ]
	SubspaceRotationAdjust: set factor to 0.183
ElecMinimize: Iter:  49  G: -6704.940287577130221  |grad|_K:  4.682e-08  alpha:  1.456e-01  linmin: -1.717e-07  t[s]:  19320.26
	FillingsUpdate:  mu: +0.093489442  nElectrons: 646.000000  magneticMoment: [ Abs: 0.00002  Tot: -0.00000 ]
	SubspaceRotationAdjust: set factor to 0.2
ElecMinimize: Iter:  50  G: -6704.940287751502183  |grad|_K:  4.082e-08  alpha:  1.620e-01  linmin:  2.555e-06  t[s]:  19587.79
	FillingsUpdate:  mu: +0.093451328  nElectrons: 646.000000  magneticMoment: [ Abs: 0.00001  Tot: -0.00000 ]
	SubspaceRotationAdjust: set factor to 0.201
ElecMinimize: Iter:  51  G: -6704.940287896080008  |grad|_K:  3.646e-08  alpha:  1.812e-01  linmin: -3.796e-08  t[s]:  19853.58
	FillingsUpdate:  mu: +0.093457203  nElectrons: 646.000000  magneticMoment: [ Abs: 0.00001  Tot: -0.00000 ]
	SubspaceRotationAdjust: set factor to 0.179
ElecMinimize: Iter:  52  G: -6704.940287992086269  |grad|_K:  3.185e-08  alpha:  1.443e-01  linmin:  1.895e-06  t[s]:  20110.17
	FillingsUpdate:  mu: +0.093478647  nElectrons: 646.000000  magneticMoment: [ Abs: 0.00001  Tot: +0.00000 ]
	SubspaceRotationAdjust: set factor to 0.161
ElecMinimize: Iter:  53  G: -6704.940288069627968  |grad|_K:  2.830e-08  alpha:  1.552e-01  linmin: -3.028e-07  t[s]:  20377.08
ElecMinimize: Converged (|Delta G|<1.000000e-07 for 2 iters).
Setting wave functions to eigenvectors of Hamiltonian
Converging empty states (this may take a while): |deigs|: 1.842e-02
Vacuum energy after initial minimize, F = -6704.940288069627968

Shifting auxilliary hamiltonian by -0.338229 to set nElectrons=646.000000

-------- Electronic minimization -----------
	Linear fluid (dielectric constant: 78.4, screening length: 8.12261 Bohr) occupying 0.564248 of unit cell:	Completed after 23 iterations at t[s]:  21417.36
	FillingsUpdate:  mu: -0.244750000  nElectrons: 646.000000  magneticMoment: [ Abs: 0.00000  Tot: -0.00000 ]
ElecMinimize: Iter:   0  G: -6704.940921186717787  |grad|_K:  1.923e-05  alpha:  1.000e+00
	Linear fluid (dielectric constant: 78.4, screening length: 8.12261 Bohr) occupying 0.567797 of unit cell:	Completed after 27 iterations at t[s]:  21642.40
	Linear fluid (dielectric constant: 78.4, screening length: 8.12261 Bohr) occupying 0.564391 of unit cell:	Completed after 27 iterations at t[s]:  21715.17
	FillingsUpdate:  mu: -0.244750000  nElectrons: 645.784694  magneticMoment: [ Abs: 0.00000  Tot: -0.00000 ]
	SubspaceRotationAdjust: set factor to 0.0923
ElecMinimize: Iter:   1  G: -6704.948258481023004  |grad|_K:  8.559e-06  alpha:  4.530e-02  linmin:  8.736e-03  t[s]:  21820.84
	Linear fluid (dielectric constant: 78.4, screening length: 8.12261 Bohr) occupying 0.564559 of unit cell:	Completed after 15 iterations at t[s]:  21922.18
ElecMinimize: 	Predicted alpha/alphaT>3.000000, increasing alphaT to 1.358995e-01.
	Linear fluid (dielectric constant: 78.4, screening length: 8.12261 Bohr) occupying 0.564897 of unit cell:	Completed after 17 iterations at t[s]:  21993.26
	Linear fluid (dielectric constant: 78.4, screening length: 8.12261 Bohr) occupying 0.565316 of unit cell:	Completed after 19 iterations at t[s]:  22065.08
	FillingsUpdate:  mu: -0.244750000  nElectrons: 645.705711  magneticMoment: [ Abs: 0.00000  Tot: +0.00000 ]
	SubspaceRotationAdjust: set factor to 0.0649
ElecMinimize: Iter:   2  G: -6704.955995500481549  |grad|_K:  8.310e-06  alpha:  2.474e-01  linmin:  1.788e-04  t[s]:  22170.76
	Linear fluid (dielectric constant: 78.4, screening length: 8.12261 Bohr) occupying 0.566689 of unit cell:	Completed after 17 iterations at t[s]:  22272.39
	Linear fluid (dielectric constant: 78.4, screening length: 8.12261 Bohr) occupying 0.565964 of unit cell:	Completed after 17 iterations at t[s]:  22343.43
	FillingsUpdate:  mu: -0.244750000  nElectrons: 645.522874  magneticMoment: [ Abs: 0.00001  Tot: +0.00000 ]
	SubspaceRotationAdjust: set factor to 0.0366
ElecMinimize: Iter:   3  G: -6704.960016460559928  |grad|_K:  4.325e-06  alpha:  1.176e-01  linmin:  1.625e-04  t[s]:  22449.11
	Linear fluid (dielectric constant: 78.4, screening length: 8.12261 Bohr) occupying 0.566281 of unit cell:	Completed after 14 iterations at t[s]:  22550.04
ElecMinimize: 	Predicted alpha/alphaT>3.000000, increasing alphaT to 3.527010e-01.
	Linear fluid (dielectric constant: 78.4, screening length: 8.12261 Bohr) occupying 0.566911 of unit cell:	Completed after 17 iterations at t[s]:  22621.04
	Linear fluid (dielectric constant: 78.4, screening length: 8.12261 Bohr) occupying 0.567056 of unit cell:	Completed after 14 iterations at t[s]:  22691.30
	FillingsUpdate:  mu: -0.244750000  nElectrons: 645.499607  magneticMoment: [ Abs: 0.00001  Tot: +0.00000 ]
	SubspaceRotationAdjust: set factor to 0.0293
ElecMinimize: Iter:   4  G: -6704.963766869443134  |grad|_K:  4.887e-06  alpha:  4.075e-01  linmin:  1.803e-05  t[s]:  22796.81
	Linear fluid (dielectric constant: 78.4, screening length: 8.12261 Bohr) occupying 0.568787 of unit cell:	Completed after 19 iterations at t[s]:  22898.69
	Linear fluid (dielectric constant: 78.4, screening length: 8.12261 Bohr) occupying 0.568070 of unit cell:	Completed after 16 iterations at t[s]:  22969.82
	FillingsUpdate:  mu: -0.244750000  nElectrons: 645.411605  magneticMoment: [ Abs: 0.00001  Tot: +0.00000 ]
	SubspaceRotationAdjust: set factor to 0.034
ElecMinimize: Iter:   5  G: -6704.966522966088633  |grad|_K:  5.263e-06  alpha:  2.354e-01  linmin:  1.047e-05  t[s]:  23075.34
	Linear fluid (dielectric constant: 78.4, screening length: 8.12261 Bohr) occupying 0.569381 of unit cell:	Completed after 17 iterations at t[s]:  23176.96
	Linear fluid (dielectric constant: 78.4, screening length: 8.12261 Bohr) occupying 0.569258 of unit cell:	Completed after 13 iterations at t[s]:  23247.06
	FillingsUpdate:  mu: -0.244750000  nElectrons: 645.310080  magneticMoment: [ Abs: 0.00001  Tot: +0.00000 ]
	SubspaceRotationAdjust: set factor to 0.035
ElecMinimize: Iter:   6  G: -6704.969426502936585  |grad|_K:  3.329e-06  alpha:  2.127e-01  linmin: -1.796e-04  t[s]:  23351.36
	Linear fluid (dielectric constant: 78.4, screening length: 8.12261 Bohr) occupying 0.569924 of unit cell:	Completed after 15 iterations at t[s]:  23452.55
	Linear fluid (dielectric constant: 78.4, screening length: 8.12261 Bohr) occupying 0.570066 of unit cell:	Completed after 12 iterations at t[s]:  23522.82
	FillingsUpdate:  mu: -0.244750000  nElectrons: 645.287386  magneticMoment: [ Abs: 0.00001  Tot: +0.00000 ]
	SubspaceRotationAdjust: set factor to 0.0377
ElecMinimize: Iter:   7  G: -6704.970865924748978  |grad|_K:  4.393e-06  alpha:  2.588e-01  linmin: -2.978e-05  t[s]:  23628.49
	Linear fluid (dielectric constant: 78.4, screening length: 8.12261 Bohr) occupying 0.571636 of unit cell:	Completed after 17 iterations at t[s]:  23730.38
	Linear fluid (dielectric constant: 78.4, screening length: 8.12261 Bohr) occupying 0.571526 of unit cell:	Completed after 11 iterations at t[s]:  23800.38
	FillingsUpdate:  mu: -0.244750000  nElectrons: 645.265679  magneticMoment: [ Abs: 0.00002  Tot: +0.00000 ]
	SubspaceRotationAdjust: set factor to 0.0392
ElecMinimize: Iter:   8  G: -6704.973168182170411  |grad|_K:  3.738e-06  alpha:  2.399e-01  linmin: -6.871e-05  t[s]:  23906.20
	Linear fluid (dielectric constant: 78.4, screening length: 8.12261 Bohr) occupying 0.572695 of unit cell:	Completed after 16 iterations at t[s]:  24008.03
	Linear fluid (dielectric constant: 78.4, screening length: 8.12261 Bohr) occupying 0.572377 of unit cell:	Completed after 15 iterations at t[s]:  24078.68
	FillingsUpdate:  mu: -0.244750000  nElectrons: 645.233325  magneticMoment: [ Abs: 0.00002  Tot: +0.00000 ]
	SubspaceRotationAdjust: set factor to 0.0461
ElecMinimize: Iter:   9  G: -6704.974375955853247  |grad|_K:  3.423e-06  alpha:  1.731e-01  linmin: -4.389e-05  t[s]:  24184.36
	Linear fluid (dielectric constant: 78.4, screening length: 8.12261 Bohr) occupying 0.573157 of unit cell:	Completed after 16 iterations at t[s]:  24285.77
	Linear fluid (dielectric constant: 78.4, screening length: 8.12261 Bohr) occupying 0.573456 of unit cell:	Completed after 14 iterations at t[s]:  24356.77
	FillingsUpdate:  mu: -0.244750000  nElectrons: 645.178059  magneticMoment: [ Abs: 0.00002  Tot: +0.00000 ]
	SubspaceRotationAdjust: set factor to 0.0469
ElecMinimize: Iter:  10  G: -6704.975790034714919  |grad|_K:  3.592e-06  alpha:  2.420e-01  linmin: -7.833e-05  t[s]:  24462.67
	Linear fluid (dielectric constant: 78.4, screening length: 8.12261 Bohr) occupying 0.574631 of unit cell:	Completed after 16 iterations at t[s]:  24563.92
	Linear fluid (dielectric constant: 78.4, screening length: 8.12261 Bohr) occupying 0.574938 of unit cell:	Completed after 13 iterations at t[s]:  24634.48
	FillingsUpdate:  mu: -0.244750000  nElectrons: 645.152996  magneticMoment: [ Abs: 0.00002  Tot: -0.00000 ]
	SubspaceRotationAdjust: set factor to 0.0504
ElecMinimize: Iter:  11  G: -6704.977800913599822  |grad|_K:  4.311e-06  alpha:  3.102e-01  linmin: -7.152e-05  t[s]:  24740.16
	Linear fluid (dielectric constant: 78.4, screening length: 8.12261 Bohr) occupying 0.576747 of unit cell:	Completed after 17 iterations at t[s]:  24842.14
	Linear fluid (dielectric constant: 78.4, screening length: 8.12261 Bohr) occupying 0.575935 of unit cell:	Completed after 16 iterations at t[s]:  24912.89
	FillingsUpdate:  mu: -0.244750000  nElectrons: 645.139693  magneticMoment: [ Abs: 0.00002  Tot: -0.00000 ]
	SubspaceRotationAdjust: set factor to 0.0529
ElecMinimize: Iter:  12  G: -6704.979306710185483  |grad|_K:  3.235e-06  alpha:  1.618e-01  linmin: -2.875e-05  t[s]:  25018.65
	Linear fluid (dielectric constant: 78.4, screening length: 8.12261 Bohr) occupying 0.576445 of unit cell:	Completed after 17 iterations at t[s]:  25119.99
	Linear fluid (dielectric constant: 78.4, screening length: 8.12261 Bohr) occupying 0.576763 of unit cell:	Completed after 15 iterations at t[s]:  25190.86
	FillingsUpdate:  mu: -0.244750000  nElectrons: 645.091747  magneticMoment: [ Abs: 0.00002  Tot: -0.00000 ]
	SubspaceRotationAdjust: set factor to 0.0538
ElecMinimize: Iter:  13  G: -6704.980715685593168  |grad|_K:  3.717e-06  alpha:  2.705e-01  linmin: -2.467e-05  t[s]:  25296.69
	Linear fluid (dielectric constant: 78.4, screening length: 8.12261 Bohr) occupying 0.577693 of unit cell:	Completed after 16 iterations at t[s]:  25397.72
	Linear fluid (dielectric constant: 78.4, screening length: 8.12261 Bohr) occupying 0.577448 of unit cell:	Completed after 15 iterations at t[s]:  25468.43
	FillingsUpdate:  mu: -0.244750000  nElectrons: 645.056307  magneticMoment: [ Abs: 0.00002  Tot: -0.00001 ]
	SubspaceRotationAdjust: set factor to 0.06
ElecMinimize: Iter:  14  G: -6704.982048137216225  |grad|_K:  3.164e-06  alpha:  1.938e-01  linmin: -2.094e-05  t[s]:  25574.08
	Linear fluid (dielectric constant: 78.4, screening length: 8.12261 Bohr) occupying 0.577902 of unit cell:	Completed after 17 iterations at t[s]:  25675.85
	Linear fluid (dielectric constant: 78.4, screening length: 8.12261 Bohr) occupying 0.577948 of unit cell:	Completed after 11 iterations at t[s]:  25745.84
	FillingsUpdate:  mu: -0.244750000  nElectrons: 645.048367  magneticMoment: [ Abs: 0.00002  Tot: -0.00001 ]
	SubspaceRotationAdjust: set factor to 0.0612
ElecMinimize: Iter:  15  G: -6704.983118749631103  |grad|_K:  2.870e-06  alpha:  2.149e-01  linmin: -2.954e-05  t[s]:  25851.60
	Linear fluid (dielectric constant: 78.4, screening length: 8.12261 Bohr) occupying 0.578339 of unit cell:	Completed after 16 iterations at t[s]:  25952.92
	Linear fluid (dielectric constant: 78.4, screening length: 8.12261 Bohr) occupying 0.578298 of unit cell:	Completed after 8 iterations at t[s]:  26022.42
	FillingsUpdate:  mu: -0.244750000  nElectrons: 645.024434  magneticMoment: [ Abs: 0.00002  Tot: -0.00001 ]
	SubspaceRotationAdjust: set factor to 0.0679
ElecMinimize: Iter:  16  G: -6704.983903517315412  |grad|_K:  2.762e-06  alpha:  1.913e-01  linmin: -8.554e-06  t[s]:  26128.02
	Linear fluid (dielectric constant: 78.4, screening length: 8.12261 Bohr) occupying 0.578628 of unit cell:	Completed after 16 iterations at t[s]:  26228.22
	Linear fluid (dielectric constant: 78.4, screening length: 8.12261 Bohr) occupying 0.578689 of unit cell:	Completed after 14 iterations at t[s]:  26294.07
	FillingsUpdate:  mu: -0.244750000  nElectrons: 644.981584  magneticMoment: [ Abs: 0.00001  Tot: -0.00001 ]
	SubspaceRotationAdjust: set factor to 0.0684
ElecMinimize: Iter:  17  G: -6704.984764942888432  |grad|_K:  2.523e-06  alpha:  2.279e-01  linmin:  4.613e-06  t[s]:  26396.84
	Linear fluid (dielectric constant: 78.4, screening length: 8.12261 Bohr) occupying 0.579058 of unit cell:	Completed after 15 iterations at t[s]:  26496.61
	Linear fluid (dielectric constant: 78.4, screening length: 8.12261 Bohr) occupying 0.578994 of unit cell:	Completed after 11 iterations at t[s]:  26565.22
	FillingsUpdate:  mu: -0.244750000  nElectrons: 644.975665  magneticMoment: [ Abs: 0.00001  Tot: -0.00000 ]
	SubspaceRotationAdjust: set factor to 0.0751
ElecMinimize: Iter:  18  G: -6704.985354389114946  |grad|_K:  2.066e-06  alpha:  1.875e-01  linmin: -1.200e-05  t[s]:  26669.19
	Linear fluid (dielectric constant: 78.4, screening length: 8.12261 Bohr) occupying 0.579244 of unit cell:	Completed after 14 iterations at t[s]:  26769.13
	Linear fluid (dielectric constant: 78.4, screening length: 8.12261 Bohr) occupying 0.579263 of unit cell:	Completed after 9 iterations at t[s]:  26837.35
	FillingsUpdate:  mu: -0.244750000  nElectrons: 644.971058  magneticMoment: [ Abs: 0.00001  Tot: -0.00000 ]
	SubspaceRotationAdjust: set factor to 0.0795
ElecMinimize: Iter:  19  G: -6704.985782676633789  |grad|_K:  2.115e-06  alpha:  2.022e-01  linmin: -1.189e-05  t[s]:  26941.17
	Linear fluid (dielectric constant: 78.4, screening length: 8.12261 Bohr) occupying 0.579591 of unit cell:	Completed after 16 iterations at t[s]:  27041.38
	Linear fluid (dielectric constant: 78.4, screening length: 8.12261 Bohr) occupying 0.579635 of unit cell:	Completed after 13 iterations at t[s]:  27110.56
	FillingsUpdate:  mu: -0.244750000  nElectrons: 644.935898  magneticMoment: [ Abs: 0.00001  Tot: -0.00000 ]
	SubspaceRotationAdjust: set factor to 0.0761
ElecMinimize: Iter:  20  G: -6704.986293395695611  |grad|_K:  1.897e-06  alpha:  2.303e-01  linmin:  8.195e-06  t[s]:  27214.40
	Linear fluid (dielectric constant: 78.4, screening length: 8.12261 Bohr) occupying 0.579982 of unit cell:	Completed after 15 iterations at t[s]:  27314.32
	Linear fluid (dielectric constant: 78.4, screening length: 8.12261 Bohr) occupying 0.579918 of unit cell:	Completed after 11 iterations at t[s]:  27383.08
	FillingsUpdate:  mu: -0.244750000  nElectrons: 644.926940  magneticMoment: [ Abs: 0.00000  Tot: -0.00000 ]
	SubspaceRotationAdjust: set factor to 0.0808
ElecMinimize: Iter:  21  G: -6704.986626340884868  |grad|_K:  1.688e-06  alpha:  1.874e-01  linmin: -5.864e-06  t[s]:  27487.01
	Linear fluid (dielectric constant: 78.4, screening length: 8.12261 Bohr) occupying 0.580174 of unit cell:	Completed after 14 iterations at t[s]:  27587.08
	Linear fluid (dielectric constant: 78.4, screening length: 8.12261 Bohr) occupying 0.580186 of unit cell:	Completed after 2 iterations at t[s]:  27654.40
	FillingsUpdate:  mu: -0.244750000  nElectrons: 644.919000  magneticMoment: [ Abs: 0.00000  Tot: -0.00000 ]
	SubspaceRotationAdjust: set factor to 0.0855
ElecMinimize: Iter:  22  G: -6704.986902922114496  |grad|_K:  1.439e-06  alpha:  1.959e-01  linmin: -9.922e-06  t[s]:  27758.91
	Linear fluid (dielectric constant: 78.4, screening length: 8.12261 Bohr) occupying 0.580406 of unit cell:	Completed after 15 iterations at t[s]:  27858.93
	Linear fluid (dielectric constant: 78.4, screening length: 8.12261 Bohr) occupying 0.580406 of unit cell:	Completed after 0 iterations at t[s]:  27925.68
	FillingsUpdate:  mu: -0.244750000  nElectrons: 644.900974  magneticMoment: [ Abs: 0.00000  Tot: -0.00000 ]
	SubspaceRotationAdjust: set factor to 0.0832
ElecMinimize: Iter:  23  G: -6704.987104308632297  |grad|_K:  1.251e-06  alpha:  1.960e-01  linmin:  1.448e-05  t[s]:  28030.16
	Linear fluid (dielectric constant: 78.4, screening length: 8.12261 Bohr) occupying 0.580595 of unit cell:	Completed after 14 iterations at t[s]:  28129.67
	Linear fluid (dielectric constant: 78.4, screening length: 8.12261 Bohr) occupying 0.580591 of unit cell:	Completed after 0 iterations at t[s]:  28196.30
	FillingsUpdate:  mu: -0.244750000  nElectrons: 644.900552  magneticMoment: [ Abs: 0.00000  Tot: -0.00000 ]
	SubspaceRotationAdjust: set factor to 0.0824
ElecMinimize: Iter:  24  G: -6704.987253136488107  |grad|_K:  1.108e-06  alpha:  1.926e-01  linmin:  6.611e-06  t[s]:  28300.18
	Linear fluid (dielectric constant: 78.4, screening length: 8.12261 Bohr) occupying 0.580752 of unit cell:	Completed after 14 iterations at t[s]:  28400.03
	Linear fluid (dielectric constant: 78.4, screening length: 8.12261 Bohr) occupying 0.580751 of unit cell:	Completed after 0 iterations at t[s]:  28466.63
	FillingsUpdate:  mu: -0.244750000  nElectrons: 644.892277  magneticMoment: [ Abs: 0.00000  Tot: -0.00000 ]
	SubspaceRotationAdjust: set factor to 0.0897
ElecMinimize: Iter:  25  G: -6704.987369412996486  |grad|_K:  9.391e-07  alpha:  1.915e-01  linmin:  8.181e-08  t[s]:  28570.51
	Linear fluid (dielectric constant: 78.4, screening length: 8.12261 Bohr) occupying 0.580876 of unit cell:	Completed after 13 iterations at t[s]:  28669.86
	Linear fluid (dielectric constant: 78.4, screening length: 8.12261 Bohr) occupying 0.580893 of unit cell:	Completed after 2 iterations at t[s]:  28737.01
	FillingsUpdate:  mu: -0.244750000  nElectrons: 644.884591  magneticMoment: [ Abs: 0.00000  Tot: -0.00000 ]
	SubspaceRotationAdjust: set factor to 0.0975
ElecMinimize: Iter:  26  G: -6704.987464944476415  |grad|_K:  8.920e-07  alpha:  2.189e-01  linmin: -1.835e-06  t[s]:  28840.56
	Linear fluid (dielectric constant: 78.4, screening length: 8.12261 Bohr) occupying 0.581032 of unit cell:	Completed after 11 iterations at t[s]:  28938.57
	Linear fluid (dielectric constant: 78.4, screening length: 8.12261 Bohr) occupying 0.581008 of unit cell:	Completed after 7 iterations at t[s]:  29006.05
	FillingsUpdate:  mu: -0.244750000  nElectrons: 644.880899  magneticMoment: [ Abs: 0.00000  Tot: -0.00000 ]
	SubspaceRotationAdjust: set factor to 0.109
ElecMinimize: Iter:  27  G: -6704.987536315873513  |grad|_K:  7.459e-07  alpha:  1.812e-01  linmin:  1.945e-06  t[s]:  29109.65
	Linear fluid (dielectric constant: 78.4, screening length: 8.12261 Bohr) occupying 0.581097 of unit cell:	Completed after 6 iterations at t[s]:  29207.46
	Linear fluid (dielectric constant: 78.4, screening length: 8.12261 Bohr) occupying 0.581120 of unit cell:	Completed after 4 iterations at t[s]:  29274.73
	FillingsUpdate:  mu: -0.244750000  nElectrons: 644.876038  magneticMoment: [ Abs: 0.00000  Tot: -0.00000 ]
	SubspaceRotationAdjust: set factor to 0.119
ElecMinimize: Iter:  28  G: -6704.987599541900636  |grad|_K:  7.669e-07  alpha:  2.297e-01  linmin: -2.684e-07  t[s]:  29378.27
	Linear fluid (dielectric constant: 78.4, screening length: 8.12261 Bohr) occupying 0.581247 of unit cell:	Completed after 13 iterations at t[s]:  29477.26
	Linear fluid (dielectric constant: 78.4, screening length: 8.12261 Bohr) occupying 0.581232 of unit cell:	Completed after 2 iterations at t[s]:  29544.41
	FillingsUpdate:  mu: -0.244750000  nElectrons: 644.872551  magneticMoment: [ Abs: 0.00000  Tot: -0.00000 ]
	SubspaceRotationAdjust: set factor to 0.128
ElecMinimize: Iter:  29  G: -6704.987658745613771  |grad|_K:  7.061e-07  alpha:  2.034e-01  linmin:  1.581e-07  t[s]:  29647.93
	Linear fluid (dielectric constant: 78.4, screening length: 8.12261 Bohr) occupying 0.581336 of unit cell:	Completed after 14 iterations at t[s]:  29746.84
	Linear fluid (dielectric constant: 78.4, screening length: 8.12261 Bohr) occupying 0.581333 of unit cell:	Completed after 2 iterations at t[s]:  29814.09
	FillingsUpdate:  mu: -0.244750000  nElectrons: 644.862229  magneticMoment: [ Abs: 0.00000  Tot: -0.00000 ]
	SubspaceRotationAdjust: set factor to 0.121
ElecMinimize: Iter:  30  G: -6704.987707853951179  |grad|_K:  7.542e-07  alpha:  1.990e-01  linmin: -5.245e-07  t[s]:  29917.50
	Linear fluid (dielectric constant: 78.4, screening length: 8.12261 Bohr) occupying 0.581454 of unit cell:	Completed after 14 iterations at t[s]:  30016.21
	Linear fluid (dielectric constant: 78.4, screening length: 8.12261 Bohr) occupying 0.581416 of unit cell:	Completed after 12 iterations at t[s]:  30084.18
	FillingsUpdate:  mu: -0.244750000  nElectrons: 644.866377  magneticMoment: [ Abs: 0.00000  Tot: -0.00000 ]
	SubspaceRotationAdjust: set factor to 0.0829
ElecMinimize: Iter:  31  G: -6704.987746112316017  |grad|_K:  7.273e-07  alpha:  1.362e-01  linmin: -7.288e-06  t[s]:  30187.81
	Linear fluid (dielectric constant: 78.4, screening length: 8.12261 Bohr) occupying 0.581498 of unit cell:	Completed after 14 iterations at t[s]:  30286.47
	Linear fluid (dielectric constant: 78.4, screening length: 8.12261 Bohr) occupying 0.581491 of unit cell:	Completed after 10 iterations at t[s]:  30355.04
	FillingsUpdate:  mu: -0.244750000  nElectrons: 644.855534  magneticMoment: [ Abs: 0.00000  Tot: -0.00000 ]
	SubspaceRotationAdjust: set factor to 0.0624
ElecMinimize: Iter:  32  G: -6704.987778528266972  |grad|_K:  5.346e-07  alpha:  1.236e-01  linmin:  9.617e-06  t[s]:  30457.98
	Linear fluid (dielectric constant: 78.4, screening length: 8.12261 Bohr) occupying 0.581534 of unit cell:	Completed after 6 iterations at t[s]:  30555.89
	Linear fluid (dielectric constant: 78.4, screening length: 8.12261 Bohr) occupying 0.581552 of unit cell:	Completed after 7 iterations at t[s]:  30624.05
	FillingsUpdate:  mu: -0.244750000  nElectrons: 644.851619  magneticMoment: [ Abs: 0.00000  Tot: -0.00000 ]
	SubspaceRotationAdjust: set factor to 0.0724
ElecMinimize: Iter:  33  G: -6704.987803549677665  |grad|_K:  5.083e-07  alpha:  1.773e-01  linmin:  1.449e-06  t[s]:  30727.95
	Linear fluid (dielectric constant: 78.4, screening length: 8.12261 Bohr) occupying 0.581611 of unit cell:	Completed after 12 iterations at t[s]:  30826.95
	Linear fluid (dielectric constant: 78.4, screening length: 8.12261 Bohr) occupying 0.581618 of unit cell:	Completed after 8 iterations at t[s]:  30894.90
	FillingsUpdate:  mu: -0.244750000  nElectrons: 644.852583  magneticMoment: [ Abs: 0.00000  Tot: -0.00000 ]
	SubspaceRotationAdjust: set factor to 0.0631
ElecMinimize: Iter:  34  G: -6704.987828964643995  |grad|_K:  4.172e-07  alpha:  1.989e-01  linmin:  3.671e-06  t[s]:  30998.76
	Linear fluid (dielectric constant: 78.4, screening length: 8.12261 Bohr) occupying 0.581666 of unit cell:	Completed after 14 iterations at t[s]:  31097.75
	Linear fluid (dielectric constant: 78.4, screening length: 8.12261 Bohr) occupying 0.581658 of unit cell:	Completed after 7 iterations at t[s]:  31165.80
	FillingsUpdate:  mu: -0.244750000  nElectrons: 644.848053  magneticMoment: [ Abs: 0.00000  Tot: -0.00000 ]
	SubspaceRotationAdjust: set factor to 0.061
ElecMinimize: Iter:  35  G: -6704.987843245854492  |grad|_K:  3.374e-07  alpha:  1.659e-01  linmin:  6.266e-06  t[s]:  31268.90
	Linear fluid (dielectric constant: 78.4, screening length: 8.12261 Bohr) occupying 0.581688 of unit cell:	Completed after 7 iterations at t[s]:  31366.43
	Linear fluid (dielectric constant: 78.4, screening length: 8.12261 Bohr) occupying 0.581691 of unit cell:	Completed after 2 iterations at t[s]:  31432.86
	FillingsUpdate:  mu: -0.244750000  nElectrons: 644.845847  magneticMoment: [ Abs: 0.00000  Tot: -0.00000 ]
	SubspaceRotationAdjust: set factor to 0.0662
ElecMinimize: Iter:  36  G: -6704.987853428595372  |grad|_K:  2.672e-07  alpha:  1.810e-01  linmin: -3.021e-06  t[s]:  31536.51
	Linear fluid (dielectric constant: 78.4, screening length: 8.12261 Bohr) occupying 0.581714 of unit cell:	Completed after 10 iterations at t[s]:  31634.73
	Linear fluid (dielectric constant: 78.4, screening length: 8.12261 Bohr) occupying 0.581714 of unit cell:	Completed after 0 iterations at t[s]:  31700.64
	FillingsUpdate:  mu: -0.244750000  nElectrons: 644.846111  magneticMoment: [ Abs: 0.00000  Tot: -0.00000 ]
	SubspaceRotationAdjust: set factor to 0.0666
ElecMinimize: Iter:  37  G: -6704.987859817797471  |grad|_K:  2.245e-07  alpha:  1.808e-01  linmin:  2.478e-05  t[s]:  31804.10
	Linear fluid (dielectric constant: 78.4, screening length: 8.12261 Bohr) occupying 0.581733 of unit cell:	Completed after 2 iterations at t[s]:  31900.78
	Linear fluid (dielectric constant: 78.4, screening length: 8.12261 Bohr) occupying 0.581733 of unit cell:	Completed after 0 iterations at t[s]:  31966.73
	FillingsUpdate:  mu: -0.244750000  nElectrons: 644.845135  magneticMoment: [ Abs: 0.00000  Tot: -0.00000 ]
	SubspaceRotationAdjust: set factor to 0.0728
ElecMinimize: Iter:  38  G: -6704.987864325980809  |grad|_K:  1.969e-07  alpha:  1.815e-01  linmin: -1.290e-06  t[s]:  32069.75
	Linear fluid (dielectric constant: 78.4, screening length: 8.12261 Bohr) occupying 0.581750 of unit cell:	Completed after 11 iterations at t[s]:  32167.61
	Linear fluid (dielectric constant: 78.4, screening length: 8.12261 Bohr) occupying 0.581750 of unit cell:	Completed after 0 iterations at t[s]:  32234.01
	FillingsUpdate:  mu: -0.244750000  nElectrons: 644.843579  magneticMoment: [ Abs: 0.00000  Tot: -0.00000 ]
	SubspaceRotationAdjust: set factor to 0.0762
ElecMinimize: Iter:  39  G: -6704.987867775535051  |grad|_K:  1.635e-07  alpha:  1.798e-01  linmin: -2.075e-05  t[s]:  32337.23
	Linear fluid (dielectric constant: 78.4, screening length: 8.12261 Bohr) occupying 0.581763 of unit cell:	Completed after 10 iterations at t[s]:  32434.93
	Linear fluid (dielectric constant: 78.4, screening length: 8.12261 Bohr) occupying 0.581765 of unit cell:	Completed after 2 iterations at t[s]:  32501.53
	FillingsUpdate:  mu: -0.244750000  nElectrons: 644.843712  magneticMoment: [ Abs: 0.00000  Tot: -0.00000 ]
	SubspaceRotationAdjust: set factor to 0.0786
ElecMinimize: Iter:  40  G: -6704.987870572731481  |grad|_K:  1.588e-07  alpha:  2.104e-01  linmin: -3.014e-05  t[s]:  32605.61
	Linear fluid (dielectric constant: 78.4, screening length: 8.12261 Bohr) occupying 0.581782 of unit cell:	Completed after 3 iterations at t[s]:  32703.26
	Linear fluid (dielectric constant: 78.4, screening length: 8.12261 Bohr) occupying 0.581779 of unit cell:	Completed after 2 iterations at t[s]:  32770.30
	FillingsUpdate:  mu: -0.244750000  nElectrons: 644.842845  magneticMoment: [ Abs: 0.00000  Tot: -0.00000 ]
	SubspaceRotationAdjust: set factor to 0.0922
ElecMinimize: Iter:  41  G: -6704.987872658170090  |grad|_K:  1.272e-07  alpha:  1.660e-01  linmin:  7.429e-06  t[s]:  32874.21
	Linear fluid (dielectric constant: 78.4, screening length: 8.12261 Bohr) occupying 0.581789 of unit cell:	Completed after 10 iterations at t[s]:  32972.70
	Linear fluid (dielectric constant: 78.4, screening length: 8.12261 Bohr) occupying 0.581791 of unit cell:	Completed after 2 iterations at t[s]:  33039.47
	FillingsUpdate:  mu: -0.244750000  nElectrons: 644.841210  magneticMoment: [ Abs: 0.00000  Tot: -0.00000 ]
	SubspaceRotationAdjust: set factor to 0.0937
ElecMinimize: Iter:  42  G: -6704.987874245695821  |grad|_K:  1.253e-07  alpha:  1.987e-01  linmin: -4.926e-05  t[s]:  33142.81
	Linear fluid (dielectric constant: 78.4, screening length: 8.12261 Bohr) occupying 0.581804 of unit cell:	Completed after 10 iterations at t[s]:  33241.21
	Linear fluid (dielectric constant: 78.4, screening length: 8.12261 Bohr) occupying 0.581806 of unit cell:	Completed after 0 iterations at t[s]:  33309.04
	FillingsUpdate:  mu: -0.244750000  nElectrons: 644.841360  magneticMoment: [ Abs: 0.00000  Tot: -0.00000 ]
	SubspaceRotationAdjust: set factor to 0.0949
ElecMinimize: Iter:  43  G: -6704.987876008423882  |grad|_K:  1.297e-07  alpha:  2.239e-01  linmin: -3.291e-06  t[s]:  33413.24
	Linear fluid (dielectric constant: 78.4, screening length: 8.12261 Bohr) occupying 0.581824 of unit cell:	Completed after 2 iterations at t[s]:  33506.80
	Linear fluid (dielectric constant: 78.4, screening length: 8.12261 Bohr) occupying 0.581820 of unit cell:	Completed after 3 iterations at t[s]:  33572.02
	FillingsUpdate:  mu: -0.244750000  nElectrons: 644.840760  magneticMoment: [ Abs: 0.00000  Tot: -0.00000 ]
	SubspaceRotationAdjust: set factor to 0.106
ElecMinimize: Iter:  44  G: -6704.987877444905280  |grad|_K:  1.108e-07  alpha:  1.730e-01  linmin: -9.210e-06  t[s]:  33676.94
	Linear fluid (dielectric constant: 78.4, screening length: 8.12261 Bohr) occupying 0.581832 of unit cell:	Completed after 9 iterations at t[s]:  33777.01
	Linear fluid (dielectric constant: 78.4, screening length: 8.12261 Bohr) occupying 0.581833 of unit cell:	Completed after 1 iterations at t[s]:  33845.08
	FillingsUpdate:  mu: -0.244750000  nElectrons: 644.839429  magneticMoment: [ Abs: 0.00000  Tot: -0.00000 ]
	SubspaceRotationAdjust: set factor to 0.104
ElecMinimize: Iter:  45  G: -6704.987878612178065  |grad|_K:  1.025e-07  alpha:  1.913e-01  linmin: -1.218e-05  t[s]:  33950.88
	Linear fluid (dielectric constant: 78.4, screening length: 8.12261 Bohr) occupying 0.581845 of unit cell:	Completed after 10 iterations at t[s]:  34051.69
[...]
ElecMinimize: Iter:   6  G: -6704.988632004969986  |grad|_K:  1.279e-07  alpha:  2.755e-01  linmin:  3.994e-04  t[s]:  76658.20
	Linear fluid (dielectric constant: 78.4, screening length: 8.12261 Bohr) occupying 0.582164 of unit cell:	Completed after 11 iterations at t[s]:  76758.02
	Linear fluid (dielectric constant: 78.4, screening length: 8.12261 Bohr) occupying 0.582163 of unit cell:	Completed after 11 iterations at t[s]:  76828.16
	FillingsUpdate:  mu: -0.244750000  nElectrons: 644.806768  magneticMoment: [ Abs: 0.00012  Tot: -0.00004 ]
	SubspaceRotationAdjust: set factor to 0.0919
ElecMinimize: Iter:   7  G: -6704.988632959369170  |grad|_K:  8.169e-08  alpha:  1.207e-01  linmin:  4.820e-05  t[s]:  76933.55
	Linear fluid (dielectric constant: 78.4, screening length: 8.12261 Bohr) occupying 0.582163 of unit cell:	Completed after 2 iterations at t[s]:  77031.72
	Linear fluid (dielectric constant: 78.4, screening length: 8.12261 Bohr) occupying 0.582164 of unit cell:	Completed after 2 iterations at t[s]:  77099.77
	FillingsUpdate:  mu: -0.244750000  nElectrons: 644.806676  magneticMoment: [ Abs: 0.00009  Tot: -0.00004 ]
	SubspaceRotationAdjust: set factor to 0.104
ElecMinimize: Iter:   8  G: -6704.988633901202775  |grad|_K:  1.070e-07  alpha:  2.826e-01  linmin:  5.756e-05  t[s]:  77205.80
	Linear fluid (dielectric constant: 78.4, screening length: 8.12261 Bohr) occupying 0.582166 of unit cell:	Completed after 10 iterations at t[s]:  77305.31
	Linear fluid (dielectric constant: 78.4, screening length: 8.12261 Bohr) occupying 0.582165 of unit cell:	Completed after 7 iterations at t[s]:  77374.22
	FillingsUpdate:  mu: -0.244750000  nElectrons: 644.807107  magneticMoment: [ Abs: 0.00020  Tot: -0.00004 ]
	SubspaceRotationAdjust: set factor to 0.116
ElecMinimize: Iter:   9  G: -6704.988634762917172  |grad|_K:  8.409e-08  alpha:  1.593e-01  linmin:  1.236e-05  t[s]:  77479.76
	Linear fluid (dielectric constant: 78.4, screening length: 8.12261 Bohr) occupying 0.582166 of unit cell:	Completed after 7 iterations at t[s]:  77578.63
	Linear fluid (dielectric constant: 78.4, screening length: 8.12261 Bohr) occupying 0.582166 of unit cell:	Completed after 2 iterations at t[s]:  77646.66
	FillingsUpdate:  mu: -0.244750000  nElectrons: 644.806513  magneticMoment: [ Abs: 0.00017  Tot: -0.00004 ]
	SubspaceRotationAdjust: set factor to 0.124
ElecMinimize: Iter:  10  G: -6704.988635589384103  |grad|_K:  1.077e-07  alpha:  2.357e-01  linmin: -1.095e-04  t[s]:  77751.96
	Linear fluid (dielectric constant: 78.4, screening length: 8.12261 Bohr) occupying 0.582166 of unit cell:	Completed after 9 iterations at t[s]:  77851.60
	Linear fluid (dielectric constant: 78.4, screening length: 8.12261 Bohr) occupying 0.582166 of unit cell:	Completed after 2 iterations at t[s]:  77919.54
	FillingsUpdate:  mu: -0.244750000  nElectrons: 644.806983  magneticMoment: [ Abs: 0.00010  Tot: -0.00003 ]
	SubspaceRotationAdjust: set factor to 0.128
ElecMinimize: Iter:  11  G: -6704.988636713192136  |grad|_K:  9.505e-08  alpha:  1.915e-01  linmin:  7.522e-05  t[s]:  78024.01
	Linear fluid (dielectric constant: 78.4, screening length: 8.12261 Bohr) occupying 0.582166 of unit cell:	Completed after 7 iterations at t[s]:  78122.32
	Linear fluid (dielectric constant: 78.4, screening length: 8.12261 Bohr) occupying 0.582166 of unit cell:	Completed after 2 iterations at t[s]:  78190.14
	FillingsUpdate:  mu: -0.244750000  nElectrons: 644.806659  magneticMoment: [ Abs: 0.00014  Tot: -0.00003 ]
	SubspaceRotationAdjust: set factor to 0.133
ElecMinimize: Iter:  12  G: -6704.988637709029717  |grad|_K:  1.123e-07  alpha:  2.251e-01  linmin: -3.787e-05  t[s]:  78295.76
	Linear fluid (dielectric constant: 78.4, screening length: 8.12261 Bohr) occupying 0.582164 of unit cell:	Completed after 6 iterations at t[s]:  78395.42
	Linear fluid (dielectric constant: 78.4, screening length: 8.12261 Bohr) occupying 0.582165 of unit cell:	Completed after 3 iterations at t[s]:  78464.00
	FillingsUpdate:  mu: -0.244750000  nElectrons: 644.807186  magneticMoment: [ Abs: 0.00013  Tot: -0.00002 ]
	SubspaceRotationAdjust: set factor to 0.133
ElecMinimize: Iter:  13  G: -6704.988638957997864  |grad|_K:  9.946e-08  alpha:  1.991e-01  linmin:  4.534e-05  t[s]:  78569.32
	Linear fluid (dielectric constant: 78.4, screening length: 8.12261 Bohr) occupying 0.582163 of unit cell:	Completed after 11 iterations at t[s]:  78669.15
	Linear fluid (dielectric constant: 78.4, screening length: 8.12261 Bohr) occupying 0.582164 of unit cell:	Completed after 6 iterations at t[s]:  78737.62
	FillingsUpdate:  mu: -0.244750000  nElectrons: 644.806475  magneticMoment: [ Abs: 0.00012  Tot: -0.00001 ]
	SubspaceRotationAdjust: set factor to 0.116
ElecMinimize: Iter:  14  G: -6704.988639595540008  |grad|_K:  9.316e-08  alpha:  1.329e-01  linmin:  2.972e-05  t[s]:  78842.94
	Linear fluid (dielectric constant: 78.4, screening length: 8.12261 Bohr) occupying 0.582163 of unit cell:	Completed after 10 iterations at t[s]:  78942.67
	Linear fluid (dielectric constant: 78.4, screening length: 8.12261 Bohr) occupying 0.582163 of unit cell:	Completed after 0 iterations at t[s]:  79009.93
	FillingsUpdate:  mu: -0.244750000  nElectrons: 644.807316  magneticMoment: [ Abs: 0.00013  Tot: -0.00000 ]
	SubspaceRotationAdjust: set factor to 0.0838
ElecMinimize: Iter:  15  G: -6704.988640142584700  |grad|_K:  8.370e-08  alpha:  1.284e-01  linmin: -3.124e-05  t[s]:  79115.25
	Linear fluid (dielectric constant: 78.4, screening length: 8.12261 Bohr) occupying 0.582162 of unit cell:	Completed after 9 iterations at t[s]:  79214.78
	Linear fluid (dielectric constant: 78.4, screening length: 8.12261 Bohr) occupying 0.582162 of unit cell:	Completed after 2 iterations at t[s]:  79282.70
	FillingsUpdate:  mu: -0.244750000  nElectrons: 644.806899  magneticMoment: [ Abs: 0.00012  Tot: -0.00000 ]
	SubspaceRotationAdjust: set factor to 0.0766
ElecMinimize: Iter:  16  G: -6704.988640512961865  |grad|_K:  5.450e-08  alpha:  1.068e-01  linmin:  8.090e-05  t[s]:  79386.74
	Linear fluid (dielectric constant: 78.4, screening length: 8.12261 Bohr) occupying 0.582162 of unit cell:	Completed after 2 iterations at t[s]:  79485.32
	Linear fluid (dielectric constant: 78.4, screening length: 8.12261 Bohr) occupying 0.582162 of unit cell:	Completed after 2 iterations at t[s]:  79553.71
	FillingsUpdate:  mu: -0.244750000  nElectrons: 644.806987  magneticMoment: [ Abs: 0.00006  Tot: +0.00000 ]
	SubspaceRotationAdjust: set factor to 0.0841
ElecMinimize: Iter:  17  G: -6704.988640783339179  |grad|_K:  5.351e-08  alpha:  1.825e-01  linmin: -1.501e-04  t[s]:  79659.00
	Linear fluid (dielectric constant: 78.4, screening length: 8.12261 Bohr) occupying 0.582161 of unit cell:	Completed after 7 iterations at t[s]:  79758.45
	Linear fluid (dielectric constant: 78.4, screening length: 8.12261 Bohr) occupying 0.582161 of unit cell:	Completed after 2 iterations at t[s]:  79826.36
	FillingsUpdate:  mu: -0.244750000  nElectrons: 644.807177  magneticMoment: [ Abs: 0.00006  Tot: +0.00000 ]
	SubspaceRotationAdjust: set factor to 0.0797
ElecMinimize: Iter:  18  G: -6704.988640985495294  |grad|_K:  3.345e-08  alpha:  1.429e-01  linmin: -1.997e-04  t[s]:  79931.48
	Linear fluid (dielectric constant: 78.4, screening length: 8.12261 Bohr) occupying 0.582161 of unit cell:	Completed after 2 iterations at t[s]:  80029.23
	Linear fluid (dielectric constant: 78.4, screening length: 8.12261 Bohr) occupying 0.582161 of unit cell:	Completed after 1 iterations at t[s]:  80096.94
	FillingsUpdate:  mu: -0.244750000  nElectrons: 644.806988  magneticMoment: [ Abs: 0.00004  Tot: +0.00001 ]
	SubspaceRotationAdjust: set factor to 0.0809
ElecMinimize: Iter:  19  G: -6704.988641052582352  |grad|_K:  2.990e-08  alpha:  1.201e-01  linmin:  1.127e-03  t[s]:  80202.25
	Linear fluid (dielectric constant: 78.4, screening length: 8.12261 Bohr) occupying 0.582161 of unit cell:	Completed after 3 iterations at t[s]:  80300.66
	Linear fluid (dielectric constant: 78.4, screening length: 8.12261 Bohr) occupying 0.582161 of unit cell:	Completed after 0 iterations at t[s]:  80367.61
	FillingsUpdate:  mu: -0.244750000  nElectrons: 644.806868  magneticMoment: [ Abs: 0.00004  Tot: +0.00001 ]
	SubspaceRotationAdjust: set factor to 0.0882
ElecMinimize: Iter:  20  G: -6704.988641097918844  |grad|_K:  2.319e-08  alpha:  1.152e-01  linmin: -2.685e-03  t[s]:  80472.81
ElecMinimize: Converged (|Delta G|<1.000000e-07 for 2 iters).
Setting wave functions to eigenvectors of Hamiltonian
Converging empty states (this may take a while): |deigs|: 9.210e-09

Computing DFT-D3 correction:
# coordination-number Cu 6.847 9.126 5.454 6.876 9.129 9.176 9.180 9.112 9.157 9.170 9.172 9.133 9.150 9.136 9.103 6.862 7.637 9.094 9.127 7.633 9.124 9.165 9.171 9.120 9.178 9.155 9.186 9.139 6.882 9.163 9.131 6.848 6.857 5.452
# diagonal-C6 Cu 175.00 175.00 175.00 175.00 175.00 175.00 175.00 175.00 175.00 175.00 175.00 175.00 175.00 175.00 175.00 175.00 175.00 175.00 175.00 175.00 175.00 175.00 175.00 175.00 175.00 175.00 175.00 175.00 175.00 175.00 175.00 175.00 175.00 175.00
EvdW_6 =   -0.219530
EvdW_8 =   -0.319461

# Ionic positions in cartesian coordinates:
ion Cu  -0.000079216622461  11.549196689817380   1.263006776095130 1
ion Cu  -0.000045724993806  15.093917335197434   4.465055558275665 1
ion Cu   0.000091706126905  -0.000280914177519  27.324584813566521 1
ion Cu  -0.000071195179919   3.478073142776418   2.835143588787984 1
ion Cu  -0.000040589445888   6.932585234089969   6.139108104658172 1
ion Cu  -0.000067693559993  10.390326284271326   9.417824364558106 1
ion Cu  -0.000009735948654  17.351599536952346  15.937793310068461 1
ion Cu  -0.000066482167957  18.482730376340921   7.779971194033093 1
ion Cu  -0.000012156853879   2.299553616646212  11.027864555508293 1
ion Cu   0.000002979020454   5.782482528594088  14.302191393887147 1
ion Cu   0.000001206452617   9.266174361441028  17.580751090788326 1
ion Cu   0.000039998024178  12.734760179595959  20.857970137072282 1
ion Cu  -0.000018711251987  13.866212134820557  12.674228258211656 1
ion Cu   0.000006105960996   1.164140614032622  19.218773821118464 1
ion Cu   0.000057280837850   4.613132881227177  22.446038343216344 1
ion Cu   0.000117325499993   8.089692901714679  25.737478388813411 1
ion Cu   0.000137897928063  16.130984695963260  24.165192660780491 1
ion Cu   2.383247119975393  10.996537222077750   5.347375381764853 1
ion Cu   2.383264138718259  14.444778711303380   8.576670070985768 1
ion Cu   2.383233736346146  19.129880161295844   3.627147775460926 1
ion Cu   2.383265839262083   2.873216496414443   6.936643447847230 1
ion Cu   2.383274227654328   6.341941317958740  10.215662638335813 1
ion Cu   2.383272082113564   9.824849414885929  13.495616719739981 1
ion Cu   2.383371421420754  16.775918402779787  20.014450222634299 1
ion Cu   2.383326387662524  17.909709483808030  11.859725670386077 1
ion Cu   2.383299739154956   1.740482415875892  15.122929243083856 1
ion Cu   2.383334502177222   5.215358130890634  18.377202419325286 1
ion Cu   2.383357121690527   8.672998689327246  21.653671903428805 1
ion Cu   2.383452743779065  12.126961728273024  24.956319324760859 1
ion Cu   2.383312812788596  13.306233306537569  16.768465123857229 1
ion Cu   2.383386985578684   0.513237442176954  23.325825106398547 1
ion Cu   2.383400103222183   4.057624726546761  26.527584562488297 1
ion Cu   2.383250657629609   7.518532065337149   2.054309323619776 1
ion Cu   2.383208386999591  15.605768685206948   0.464803706442790 1

# Forces in Cartesian coordinates:
force Cu   0.000000588069130   0.000226503744819  -0.000088682806687 1
force Cu  -0.000000316073736  -0.000036819840216   0.000085184508762 1
force Cu   0.000001138659233  -0.000249416297953  -0.000043591286401 1
force Cu   0.000000425592771   0.000014940342433   0.000022866273750 1
force Cu   0.000000167878492  -0.000037990295167   0.000066396950954 1
force Cu   0.000000482301684  -0.000088965803535   0.000028479446011 1
force Cu   0.000000361314785  -0.000003626315948  -0.000063301329992 1
force Cu   0.000001561102613  -0.000008570579761   0.000065481334571 1
force Cu   0.000000220030258  -0.000032689311336   0.000188156595350 1
force Cu   0.000000401329623   0.000019209327190  -0.000118183035881 1
force Cu   0.000000455223660   0.000008693135133   0.000055801606773 1
force Cu   0.000000290843286   0.000087331547230  -0.000138773892539 1
force Cu   0.000000383054382   0.000061819867413  -0.000035643731973 1
force Cu   0.000000369727414   0.000031534682839   0.000070599318692 1
force Cu  -0.000000461957325   0.000128876429686   0.000001699533854 1
force Cu   0.000001111724040  -0.000130983134179  -0.000020824822225 1
force Cu  -0.000000257450689  -0.000024041628199  -0.000079906896435 1
force Cu   0.000000687385206  -0.000120315356356  -0.000000594155003 1
force Cu   0.000000629086331  -0.000039677040475  -0.000030534959015 1
force Cu   0.000001060583819   0.000084459538548   0.000075629448094 1
force Cu   0.000000866480335  -0.000095177785802   0.000149905939092 1
force Cu   0.000000174766168  -0.000008581846475   0.000007628008059 1
force Cu   0.000000108439369  -0.000017684970590   0.000109690408554 1
force Cu  -0.000000740967129   0.000005349687160  -0.000034108217142 1
force Cu   0.000000603650305   0.000004462768416   0.000091011661198 1
force Cu   0.000000534032344  -0.000067732748870   0.000028422115232 1
force Cu   0.000001219962263   0.000095476700346   0.000037898981180 1
force Cu  -0.000000038491982   0.000024257025775  -0.000058626611308 1
force Cu  -0.000000598786099  -0.000007037986736  -0.000022314646899 1
force Cu   0.000000154822628   0.000019625981629  -0.000147151164546 1
force Cu   0.000000279587320   0.000042829237667  -0.000069027063799 1
force Cu  -0.000001752213102  -0.000232491085813   0.000107144250651 1
force Cu  -0.000000510369436   0.000122518262074   0.000059817822681 1
force Cu  -0.000001055174733   0.000342555741353   0.000114656264263 1

# Energy components:
   A_diel =        0.0509406943151440
   Eewald =    82469.7904803588317009
       EH =    88618.2798148909496376
     Eloc =  -179239.3898763493925799
      Enl =     1245.2699247111472687
     EvdW =       -0.5389911286654940
      Exc =     -659.6921774296117746
 Exc_core =        1.5969579102153844
       KE =      701.7312297219955326
  MuShift =        0.0979045929755876
-------------------------------------
     Etot =    -6862.8037920272390693
       TS =        0.0013299282945576
-------------------------------------
        F =    -6862.8051219555336502
      muN =     -157.8164808576150051
-------------------------------------
        G =    -6704.9886410979188440


Dumping 'jdft.fillings' ... done
Dumping 'jdft.wfns' ... done
Dumping 'jdft.fluidState' ... done
Dumping 'jdft.ionpos' ... done
Dumping 'jdft.lattice' ... done
Dumping 'jdft.eigenvals' ... done
Dumping 'jdft.eigStats' ... 
	eMin: -4.385047 at state 0 ( [ +0.000000 +0.000000 +0.000000 ] spin 1 )
	HOMO: -0.244838 at state 1 ( [ +0.000000 +0.333333 +0.000000 ] spin 1 )
	mu  : -0.244750
	LUMO: -0.244119 at state 13 ( [ +0.333333 -0.333333 +0.000000 ] spin 1 )
	eMax: +0.162012 at state 36 ( [ +0.500000 +0.000000 +0.000000 ] spin -1 )
	HOMO-LUMO gap: +0.000719
	Optical gap  : +0.001032 at state 5 ( [ +0.166667 +0.000000 +0.000000 ] spin 1 )
Dumping 'jdft.Ecomponents' ... done
IonicMinimize: Iter:   4  G: -6704.988641097918844  |grad|_K:  7.861e-05  alpha:  1.000e+00  linmin: -7.076e-02  t[s]:  80744.39
IonicMinimize: Converged (|grad|_K<1.000000e-04).

#--- Lowdin population analysis ---
# oxidation-state Cu +0.213 +0.040 +0.400 +0.213 +0.064 +0.074 +0.076 +0.072 +0.074 +0.077 +0.074 +0.067 +0.077 +0.074 +0.066 +0.217 +0.098 +0.065 +0.074 +0.098 +0.067 +0.074 +0.077 +0.073 +0.076 +0.077 +0.074 +0.064 +0.213 +0.074 +0.041 +0.213 +0.216 +0.400
# magnetic-moments Cu +0.000 -0.000 -0.000 -0.000 -0.000 +0.000 +0.000 +0.000 +0.000 +0.000 +0.000 -0.000 +0.000 +0.000 -0.000 +0.000 -0.000 -0.000 +0.000 -0.000 +0.000 +0.000 +0.000 +0.000 +0.000 +0.000 +0.000 -0.000 +0.000 +0.000 -0.000 -0.000 +0.000 -0.000


Dumping 'jdft.n_up' ... done
Dumping 'jdft.n_dn' ... done
Dumping 'jdft.tau_up' ... done
Dumping 'jdft.tau_dn' ... done
Dumping 'jdft.eigenvals' ... done
Dumping 'jdft.eigStats' ... 
	eMin: -4.385047 at state 0 ( [ +0.000000 +0.000000 +0.000000 ] spin 1 )
	HOMO: -0.244838 at state 1 ( [ +0.000000 +0.333333 +0.000000 ] spin 1 )
	mu  : -0.244750
	LUMO: -0.244119 at state 13 ( [ +0.333333 -0.333333 +0.000000 ] spin 1 )
	eMax: +0.162012 at state 36 ( [ +0.500000 +0.000000 +0.000000 ] spin -1 )
	HOMO-LUMO gap: +0.000719
	Optical gap  : +0.001032 at state 5 ( [ +0.166667 +0.000000 +0.000000 ] spin 1 )
Dumping 'jdft.kPts' ... done
Dumping 'jdft.kMap' ... done
Dumping 'jdft.dosUp' ... done.
Dumping 'jdft.dosDn' ... done.
End date and time: Fri Sep  9 23:41:31 2022  (Duration: 0-22:28:23.18)
Done!

PROFILER:             augmentDensityGrid    14.139287 +/-     0.645160 s,  599 calls,   8469.433081 s total
PROFILER:         augmentDensityGridGrad     0.673489 +/-     0.138204 s,  304 calls,    204.740739 s total
PROFILER:        augmentDensitySpherical     0.006659 +/-     0.000403 s,  599 calls,      3.988465 s total
PROFILER:    augmentDensitySphericalGrad     0.008720 +/-     0.002099 s,  335 calls,      2.921313 s total
PROFILER:                 augmentOverlap     9.921784 +/-     0.968857 s, 1097 calls,  10884.196791 s total
PROFILER:        ColumnBundle::randomize     0.002340 +/-     0.000000 s,    1 calls,      0.002340 s total
PROFILER:                     diagouterI    12.804360 +/-     0.600037 s,  602 calls,   7708.224954 s total
PROFILER:              EdensityAndVscloc     2.882661 +/-     2.151768 s,  600 calls,   1729.596506 s total
PROFILER:                     EnlAndGrad     0.051239 +/-     0.008739 s,  558 calls,     28.591297 s total
PROFILER:            ExCorrCommunication     0.043614 +/-     0.603024 s, 3668 calls,    159.976039 s total
PROFILER:               ExCorrFunctional     0.006987 +/-     0.000864 s,  619 calls,      4.325145 s total
PROFILER:                    ExCorrTotal     0.343787 +/-     1.447948 s,  619 calls,    212.804311 s total
PROFILER:                   Idag_DiagV_I    24.347951 +/-     4.795439 s,  329 calls,   8010.475716 s total
PROFILER:                    initWeights     2.009565 +/-     0.000000 s,    1 calls,      2.009565 s total
PROFILER:                    inv(matrix)     0.036978 +/-     0.009891 s,  515 calls,     19.043490 s total
PROFILER:            matrix::diagonalize     0.099326 +/-     0.044329 s,  921 calls,     91.479569 s total
PROFILER:                    matrix::set     0.000024 +/-     0.000020 s, 30578 calls,      0.728543 s total
PROFILER:            orthoMatrix(matrix)     0.016938 +/-     0.010703 s,  543 calls,      9.197117 s total
PROFILER:     RadialFunctionR::transform     0.826217 +/-     4.422564 s,   58 calls,     47.920591 s total
PROFILER:                    reduceKmesh     0.000018 +/-     0.000000 s,    1 calls,      0.000018 s total
PROFILER:   VanDerWaalsD3::energyAndGrad     0.025152 +/-     0.002532 s,   13 calls,      0.326982 s total
PROFILER:               WavefunctionDrag    59.790148 +/-    11.005101 s,    6 calls,    358.740888 s total
PROFILER:                            Y*M     3.632654 +/-     0.873044 s, 3681 calls,  13371.800851 s total
PROFILER:                          Y1^Y2     3.715416 +/-     1.037084 s, 2312 calls,   8590.042657 s total

MEMUSAGE:                   ColumnBundle     1.267123 GB
MEMUSAGE:        complexScalarFieldTilde     0.016022 GB
MEMUSAGE:                    IndexArrays     0.018898 GB
MEMUSAGE:                         matrix     0.103312 GB
MEMUSAGE:                           misc     0.016115 GB
MEMUSAGE:                    ScalarField     0.116158 GB
MEMUSAGE:               ScalarFieldTilde     0.084615 GB
MEMUSAGE:                          Total     1.405942 GB
