
*************** JDFTx 1.6.0  ***************

Start date and time: Thu Feb 17 03:57:10 2022
Executable /projects/musgravc/apps/jdftx-1.6.1/build/jdftx with command-line: -i in
Running on hosts (process indices):  shas0401.rc.int.colorado.edu (0-23)
Divided in process groups (process indices):  0 (0)  1 (1)  2 (2)  3 (3)  4 (4)  5 (5)  6 (6)  7 (7)  8 (8)  9 (9)  10 (10)  11 (11)  12 (12)  13 (13)  14 (14)  15 (15)  16 (16)  17 (17)  18 (18)  19 (19)  20 (20)  21 (21)  22 (22)  23 (23)
Resource initialization completed at t[s]:      0.00
Run totals: 24 processes, 24 threads, 0 GPUs


Input parsed successfully to the following command list (including defaults):

basis kpoint-dependent
converge-empty-states yes
coords-type Cartesian
core-overlap-check none
coulomb-interaction Periodic
davidson-band-ratio 1.1
density-of-states Etol 1.000000e-06 Esigma 1.000000e-03 \
		Complete \
	Total \
	OrthoOrbital Pt 1   s \
	OrthoOrbital Pt 1   p \
	OrthoOrbital Pt 1   px \
	OrthoOrbital Pt 1   py \
	OrthoOrbital Pt 1   pz \
	OrthoOrbital Pt 1   d \
	OrthoOrbital Pt 1   dxy \
	OrthoOrbital Pt 1   dyz \
	OrthoOrbital Pt 1   dz2 \
	OrthoOrbital Pt 1   dxz \
	OrthoOrbital Pt 1   dx2-y2 \
	OrthoOrbital Pt 2   s \
	OrthoOrbital Pt 2   p \
	OrthoOrbital Pt 2   px \
	OrthoOrbital Pt 2   py \
	OrthoOrbital Pt 2   pz \
	OrthoOrbital Pt 2   d \
	OrthoOrbital Pt 2   dxy \
	OrthoOrbital Pt 2   dyz \
	OrthoOrbital Pt 2   dz2 \
	OrthoOrbital Pt 2   dxz \
	OrthoOrbital Pt 2   dx2-y2 \
	OrthoOrbital Pt 3   s \
	OrthoOrbital Pt 3   p \
	OrthoOrbital Pt 3   px \
	OrthoOrbital Pt 3   py \
	OrthoOrbital Pt 3   pz \
	OrthoOrbital Pt 3   d \
	OrthoOrbital Pt 3   dxy \
	OrthoOrbital Pt 3   dyz \
	OrthoOrbital Pt 3   dz2 \
	OrthoOrbital Pt 3   dxz \
	OrthoOrbital Pt 3   dx2-y2 \
	OrthoOrbital Pt 4   s \
	OrthoOrbital Pt 4   p \
	OrthoOrbital Pt 4   px \
	OrthoOrbital Pt 4   py \
	OrthoOrbital Pt 4   pz \
	OrthoOrbital Pt 4   d \
	OrthoOrbital Pt 4   dxy \
	OrthoOrbital Pt 4   dyz \
	OrthoOrbital Pt 4   dz2 \
	OrthoOrbital Pt 4   dxz \
	OrthoOrbital Pt 4   dx2-y2 \
	OrthoOrbital Pt 5   s \
	OrthoOrbital Pt 5   p \
	OrthoOrbital Pt 5   px \
	OrthoOrbital Pt 5   py \
	OrthoOrbital Pt 5   pz \
	OrthoOrbital Pt 5   d \
	OrthoOrbital Pt 5   dxy \
	OrthoOrbital Pt 5   dyz \
	OrthoOrbital Pt 5   dz2 \
	OrthoOrbital Pt 5   dxz \
	OrthoOrbital Pt 5   dx2-y2 \
	OrthoOrbital Pt 6   s \
	OrthoOrbital Pt 6   p \
	OrthoOrbital Pt 6   px \
	OrthoOrbital Pt 6   py \
	OrthoOrbital Pt 6   pz \
	OrthoOrbital Pt 6   d \
	OrthoOrbital Pt 6   dxy \
	OrthoOrbital Pt 6   dyz \
	OrthoOrbital Pt 6   dz2 \
	OrthoOrbital Pt 6   dxz \
	OrthoOrbital Pt 6   dx2-y2 \
	OrthoOrbital Pt 7   s \
	OrthoOrbital Pt 7   p \
	OrthoOrbital Pt 7   px \
	OrthoOrbital Pt 7   py \
	OrthoOrbital Pt 7   pz \
	OrthoOrbital Pt 7   d \
	OrthoOrbital Pt 7   dxy \
	OrthoOrbital Pt 7   dyz \
	OrthoOrbital Pt 7   dz2 \
	OrthoOrbital Pt 7   dxz \
	OrthoOrbital Pt 7   dx2-y2 \
	OrthoOrbital Pt 8   s \
	OrthoOrbital Pt 8   p \
	OrthoOrbital Pt 8   px \
	OrthoOrbital Pt 8   py \
	OrthoOrbital Pt 8   pz \
	OrthoOrbital Pt 8   d \
	OrthoOrbital Pt 8   dxy \
	OrthoOrbital Pt 8   dyz \
	OrthoOrbital Pt 8   dz2 \
	OrthoOrbital Pt 8   dxz \
	OrthoOrbital Pt 8   dx2-y2 \
	OrthoOrbital Pt 9   s \
	OrthoOrbital Pt 9   p \
	OrthoOrbital Pt 9   px \
	OrthoOrbital Pt 9   py \
	OrthoOrbital Pt 9   pz \
	OrthoOrbital Pt 9   d \
	OrthoOrbital Pt 9   dxy \
	OrthoOrbital Pt 9   dyz \
	OrthoOrbital Pt 9   dz2 \
	OrthoOrbital Pt 9   dxz \
	OrthoOrbital Pt 9   dx2-y2 \
	OrthoOrbital Pt 10   s \
	OrthoOrbital Pt 10   p \
	OrthoOrbital Pt 10   px \
	OrthoOrbital Pt 10   py \
	OrthoOrbital Pt 10   pz \
	OrthoOrbital Pt 10   d \
	OrthoOrbital Pt 10   dxy \
	OrthoOrbital Pt 10   dyz \
	OrthoOrbital Pt 10   dz2 \
	OrthoOrbital Pt 10   dxz \
	OrthoOrbital Pt 10   dx2-y2 \
	OrthoOrbital Pt 11   s \
	OrthoOrbital Pt 11   p \
	OrthoOrbital Pt 11   px \
	OrthoOrbital Pt 11   py \
	OrthoOrbital Pt 11   pz \
	OrthoOrbital Pt 11   d \
	OrthoOrbital Pt 11   dxy \
	OrthoOrbital Pt 11   dyz \
	OrthoOrbital Pt 11   dz2 \
	OrthoOrbital Pt 11   dxz \
	OrthoOrbital Pt 11   dx2-y2 \
	OrthoOrbital Pt 12   s \
	OrthoOrbital Pt 12   p \
	OrthoOrbital Pt 12   px \
	OrthoOrbital Pt 12   py \
	OrthoOrbital Pt 12   pz \
	OrthoOrbital Pt 12   d \
	OrthoOrbital Pt 12   dxy \
	OrthoOrbital Pt 12   dyz \
	OrthoOrbital Pt 12   dz2 \
	OrthoOrbital Pt 12   dxz \
	OrthoOrbital Pt 12   dx2-y2 \
	OrthoOrbital Pt 13   s \
	OrthoOrbital Pt 13   p \
	OrthoOrbital Pt 13   px \
	OrthoOrbital Pt 13   py \
	OrthoOrbital Pt 13   pz \
	OrthoOrbital Pt 13   d \
	OrthoOrbital Pt 13   dxy \
	OrthoOrbital Pt 13   dyz \
	OrthoOrbital Pt 13   dz2 \
	OrthoOrbital Pt 13   dxz \
	OrthoOrbital Pt 13   dx2-y2 \
	OrthoOrbital Pt 14   s \
	OrthoOrbital Pt 14   p \
	OrthoOrbital Pt 14   px \
	OrthoOrbital Pt 14   py \
	OrthoOrbital Pt 14   pz \
	OrthoOrbital Pt 14   d \
	OrthoOrbital Pt 14   dxy \
	OrthoOrbital Pt 14   dyz \
	OrthoOrbital Pt 14   dz2 \
	OrthoOrbital Pt 14   dxz \
	OrthoOrbital Pt 14   dx2-y2 \
	OrthoOrbital Pt 15   s \
	OrthoOrbital Pt 15   p \
	OrthoOrbital Pt 15   px \
	OrthoOrbital Pt 15   py \
	OrthoOrbital Pt 15   pz \
	OrthoOrbital Pt 15   d \
	OrthoOrbital Pt 15   dxy \
	OrthoOrbital Pt 15   dyz \
	OrthoOrbital Pt 15   dz2 \
	OrthoOrbital Pt 15   dxz \
	OrthoOrbital Pt 15   dx2-y2 \
	OrthoOrbital Pt 16   s \
	OrthoOrbital Pt 16   p \
	OrthoOrbital Pt 16   px \
	OrthoOrbital Pt 16   py \
	OrthoOrbital Pt 16   pz \
	OrthoOrbital Pt 16   d \
	OrthoOrbital Pt 16   dxy \
	OrthoOrbital Pt 16   dyz \
	OrthoOrbital Pt 16   dz2 \
	OrthoOrbital Pt 16   dxz \
	OrthoOrbital Pt 16   dx2-y2 \
	OrthoOrbital Pt 17   s \
	OrthoOrbital Pt 17   p \
	OrthoOrbital Pt 17   px \
	OrthoOrbital Pt 17   py \
	OrthoOrbital Pt 17   pz \
	OrthoOrbital Pt 17   d \
	OrthoOrbital Pt 17   dxy \
	OrthoOrbital Pt 17   dyz \
	OrthoOrbital Pt 17   dz2 \
	OrthoOrbital Pt 17   dxz \
	OrthoOrbital Pt 17   dx2-y2 \
	OrthoOrbital Pt 18   s \
	OrthoOrbital Pt 18   p \
	OrthoOrbital Pt 18   px \
	OrthoOrbital Pt 18   py \
	OrthoOrbital Pt 18   pz \
	OrthoOrbital Pt 18   d \
	OrthoOrbital Pt 18   dxy \
	OrthoOrbital Pt 18   dyz \
	OrthoOrbital Pt 18   dz2 \
	OrthoOrbital Pt 18   dxz \
	OrthoOrbital Pt 18   dx2-y2 \
	OrthoOrbital Pt 19   s \
	OrthoOrbital Pt 19   p \
	OrthoOrbital Pt 19   px \
	OrthoOrbital Pt 19   py \
	OrthoOrbital Pt 19   pz \
	OrthoOrbital Pt 19   d \
	OrthoOrbital Pt 19   dxy \
	OrthoOrbital Pt 19   dyz \
	OrthoOrbital Pt 19   dz2 \
	OrthoOrbital Pt 19   dxz \
	OrthoOrbital Pt 19   dx2-y2 \
	OrthoOrbital Pt 20   s \
	OrthoOrbital Pt 20   p \
	OrthoOrbital Pt 20   px \
	OrthoOrbital Pt 20   py \
	OrthoOrbital Pt 20   pz \
	OrthoOrbital Pt 20   d \
	OrthoOrbital Pt 20   dxy \
	OrthoOrbital Pt 20   dyz \
	OrthoOrbital Pt 20   dz2 \
	OrthoOrbital Pt 20   dxz \
	OrthoOrbital Pt 20   dx2-y2 \
	OrthoOrbital Pt 21   s \
	OrthoOrbital Pt 21   p \
	OrthoOrbital Pt 21   px \
	OrthoOrbital Pt 21   py \
	OrthoOrbital Pt 21   pz \
	OrthoOrbital Pt 21   d \
	OrthoOrbital Pt 21   dxy \
	OrthoOrbital Pt 21   dyz \
	OrthoOrbital Pt 21   dz2 \
	OrthoOrbital Pt 21   dxz \
	OrthoOrbital Pt 21   dx2-y2 \
	OrthoOrbital Pt 22   s \
	OrthoOrbital Pt 22   p \
	OrthoOrbital Pt 22   px \
	OrthoOrbital Pt 22   py \
	OrthoOrbital Pt 22   pz \
	OrthoOrbital Pt 22   d \
	OrthoOrbital Pt 22   dxy \
	OrthoOrbital Pt 22   dyz \
	OrthoOrbital Pt 22   dz2 \
	OrthoOrbital Pt 22   dxz \
	OrthoOrbital Pt 22   dx2-y2 \
	OrthoOrbital Pt 23   s \
	OrthoOrbital Pt 23   p \
	OrthoOrbital Pt 23   px \
	OrthoOrbital Pt 23   py \
	OrthoOrbital Pt 23   pz \
	OrthoOrbital Pt 23   d \
	OrthoOrbital Pt 23   dxy \
	OrthoOrbital Pt 23   dyz \
	OrthoOrbital Pt 23   dz2 \
	OrthoOrbital Pt 23   dxz \
	OrthoOrbital Pt 23   dx2-y2 \
	OrthoOrbital Pt 24   s \
	OrthoOrbital Pt 24   p \
	OrthoOrbital Pt 24   px \
	OrthoOrbital Pt 24   py \
	OrthoOrbital Pt 24   pz \
	OrthoOrbital Pt 24   d \
	OrthoOrbital Pt 24   dxy \
	OrthoOrbital Pt 24   dyz \
	OrthoOrbital Pt 24   dz2 \
	OrthoOrbital Pt 24   dxz \
	OrthoOrbital Pt 24   dx2-y2 \
	OrthoOrbital Pt 25   s \
	OrthoOrbital Pt 25   p \
	OrthoOrbital Pt 25   px \
	OrthoOrbital Pt 25   py \
	OrthoOrbital Pt 25   pz \
	OrthoOrbital Pt 25   d \
	OrthoOrbital Pt 25   dxy \
	OrthoOrbital Pt 25   dyz \
	OrthoOrbital Pt 25   dz2 \
	OrthoOrbital Pt 25   dxz \
	OrthoOrbital Pt 25   dx2-y2 \
	OrthoOrbital Pt 26   s \
	OrthoOrbital Pt 26   p \
	OrthoOrbital Pt 26   px \
	OrthoOrbital Pt 26   py \
	OrthoOrbital Pt 26   pz \
	OrthoOrbital Pt 26   d \
	OrthoOrbital Pt 26   dxy \
	OrthoOrbital Pt 26   dyz \
	OrthoOrbital Pt 26   dz2 \
	OrthoOrbital Pt 26   dxz \
	OrthoOrbital Pt 26   dx2-y2 \
	OrthoOrbital Pt 27   s \
	OrthoOrbital Pt 27   p \
	OrthoOrbital Pt 27   px \
	OrthoOrbital Pt 27   py \
	OrthoOrbital Pt 27   pz \
	OrthoOrbital Pt 27   d \
	OrthoOrbital Pt 27   dxy \
	OrthoOrbital Pt 27   dyz \
	OrthoOrbital Pt 27   dz2 \
	OrthoOrbital Pt 27   dxz \
	OrthoOrbital Pt 27   dx2-y2 \
	OrthoOrbital Pt 28   s \
	OrthoOrbital Pt 28   p \
	OrthoOrbital Pt 28   px \
	OrthoOrbital Pt 28   py \
	OrthoOrbital Pt 28   pz \
	OrthoOrbital Pt 28   d \
	OrthoOrbital Pt 28   dxy \
	OrthoOrbital Pt 28   dyz \
	OrthoOrbital Pt 28   dz2 \
	OrthoOrbital Pt 28   dxz \
	OrthoOrbital Pt 28   dx2-y2 \
	OrthoOrbital Pt 29   s \
	OrthoOrbital Pt 29   p \
	OrthoOrbital Pt 29   px \
	OrthoOrbital Pt 29   py \
	OrthoOrbital Pt 29   pz \
	OrthoOrbital Pt 29   d \
	OrthoOrbital Pt 29   dxy \
	OrthoOrbital Pt 29   dyz \
	OrthoOrbital Pt 29   dz2 \
	OrthoOrbital Pt 29   dxz \
	OrthoOrbital Pt 29   dx2-y2 \
	OrthoOrbital Pt 30   s \
	OrthoOrbital Pt 30   p \
	OrthoOrbital Pt 30   px \
	OrthoOrbital Pt 30   py \
	OrthoOrbital Pt 30   pz \
	OrthoOrbital Pt 30   d \
	OrthoOrbital Pt 30   dxy \
	OrthoOrbital Pt 30   dyz \
	OrthoOrbital Pt 30   dz2 \
	OrthoOrbital Pt 30   dxz \
	OrthoOrbital Pt 30   dx2-y2 \
	OrthoOrbital Pt 31   s \
	OrthoOrbital Pt 31   p \
	OrthoOrbital Pt 31   px \
	OrthoOrbital Pt 31   py \
	OrthoOrbital Pt 31   pz \
	OrthoOrbital Pt 31   d \
	OrthoOrbital Pt 31   dxy \
	OrthoOrbital Pt 31   dyz \
	OrthoOrbital Pt 31   dz2 \
	OrthoOrbital Pt 31   dxz \
	OrthoOrbital Pt 31   dx2-y2 \
	OrthoOrbital Pt 32   s \
	OrthoOrbital Pt 32   p \
	OrthoOrbital Pt 32   px \
	OrthoOrbital Pt 32   py \
	OrthoOrbital Pt 32   pz \
	OrthoOrbital Pt 32   d \
	OrthoOrbital Pt 32   dxy \
	OrthoOrbital Pt 32   dyz \
	OrthoOrbital Pt 32   dz2 \
	OrthoOrbital Pt 32   dxz \
	OrthoOrbital Pt 32   dx2-y2 \
	OrthoOrbital Pt 33   s \
	OrthoOrbital Pt 33   p \
	OrthoOrbital Pt 33   px \
	OrthoOrbital Pt 33   py \
	OrthoOrbital Pt 33   pz \
	OrthoOrbital Pt 33   d \
	OrthoOrbital Pt 33   dxy \
	OrthoOrbital Pt 33   dyz \
	OrthoOrbital Pt 33   dz2 \
	OrthoOrbital Pt 33   dxz \
	OrthoOrbital Pt 33   dx2-y2 \
	OrthoOrbital Pt 34   s \
	OrthoOrbital Pt 34   p \
	OrthoOrbital Pt 34   px \
	OrthoOrbital Pt 34   py \
	OrthoOrbital Pt 34   pz \
	OrthoOrbital Pt 34   d \
	OrthoOrbital Pt 34   dxy \
	OrthoOrbital Pt 34   dyz \
	OrthoOrbital Pt 34   dz2 \
	OrthoOrbital Pt 34   dxz \
	OrthoOrbital Pt 34   dx2-y2 \
	OrthoOrbital Pt 35   s \
	OrthoOrbital Pt 35   p \
	OrthoOrbital Pt 35   px \
	OrthoOrbital Pt 35   py \
	OrthoOrbital Pt 35   pz \
	OrthoOrbital Pt 35   d \
	OrthoOrbital Pt 35   dxy \
	OrthoOrbital Pt 35   dyz \
	OrthoOrbital Pt 35   dz2 \
	OrthoOrbital Pt 35   dxz \
	OrthoOrbital Pt 35   dx2-y2 \
	OrthoOrbital Pt 36   s \
	OrthoOrbital Pt 36   p \
	OrthoOrbital Pt 36   px \
	OrthoOrbital Pt 36   py \
	OrthoOrbital Pt 36   pz \
	OrthoOrbital Pt 36   d \
	OrthoOrbital Pt 36   dxy \
	OrthoOrbital Pt 36   dyz \
	OrthoOrbital Pt 36   dz2 \
	OrthoOrbital Pt 36   dxz \
	OrthoOrbital Pt 36   dx2-y2 \
	OrthoOrbital Pt 37   s \
	OrthoOrbital Pt 37   p \
	OrthoOrbital Pt 37   px \
	OrthoOrbital Pt 37   py \
	OrthoOrbital Pt 37   pz \
	OrthoOrbital Pt 37   d \
	OrthoOrbital Pt 37   dxy \
	OrthoOrbital Pt 37   dyz \
	OrthoOrbital Pt 37   dz2 \
	OrthoOrbital Pt 37   dxz \
	OrthoOrbital Pt 37   dx2-y2 \
	OrthoOrbital Pt 38   s \
	OrthoOrbital Pt 38   p \
	OrthoOrbital Pt 38   px \
	OrthoOrbital Pt 38   py \
	OrthoOrbital Pt 38   pz \
	OrthoOrbital Pt 38   d \
	OrthoOrbital Pt 38   dxy \
	OrthoOrbital Pt 38   dyz \
	OrthoOrbital Pt 38   dz2 \
	OrthoOrbital Pt 38   dxz \
	OrthoOrbital Pt 38   dx2-y2 \
	OrthoOrbital Pt 39   s \
	OrthoOrbital Pt 39   p \
	OrthoOrbital Pt 39   px \
	OrthoOrbital Pt 39   py \
	OrthoOrbital Pt 39   pz \
	OrthoOrbital Pt 39   d \
	OrthoOrbital Pt 39   dxy \
	OrthoOrbital Pt 39   dyz \
	OrthoOrbital Pt 39   dz2 \
	OrthoOrbital Pt 39   dxz \
	OrthoOrbital Pt 39   dx2-y2 \
	OrthoOrbital Pt 40   s \
	OrthoOrbital Pt 40   p \
	OrthoOrbital Pt 40   px \
	OrthoOrbital Pt 40   py \
	OrthoOrbital Pt 40   pz \
	OrthoOrbital Pt 40   d \
	OrthoOrbital Pt 40   dxy \
	OrthoOrbital Pt 40   dyz \
	OrthoOrbital Pt 40   dz2 \
	OrthoOrbital Pt 40   dxz \
	OrthoOrbital Pt 40   dx2-y2 \
	OrthoOrbital Pt 41   s \
	OrthoOrbital Pt 41   p \
	OrthoOrbital Pt 41   px \
	OrthoOrbital Pt 41   py \
	OrthoOrbital Pt 41   pz \
	OrthoOrbital Pt 41   d \
	OrthoOrbital Pt 41   dxy \
	OrthoOrbital Pt 41   dyz \
	OrthoOrbital Pt 41   dz2 \
	OrthoOrbital Pt 41   dxz \
	OrthoOrbital Pt 41   dx2-y2 \
	OrthoOrbital Pt 42   s \
	OrthoOrbital Pt 42   p \
	OrthoOrbital Pt 42   px \
	OrthoOrbital Pt 42   py \
	OrthoOrbital Pt 42   pz \
	OrthoOrbital Pt 42   d \
	OrthoOrbital Pt 42   dxy \
	OrthoOrbital Pt 42   dyz \
	OrthoOrbital Pt 42   dz2 \
	OrthoOrbital Pt 42   dxz \
	OrthoOrbital Pt 42   dx2-y2 \
	OrthoOrbital Pt 43   s \
	OrthoOrbital Pt 43   p \
	OrthoOrbital Pt 43   px \
	OrthoOrbital Pt 43   py \
	OrthoOrbital Pt 43   pz \
	OrthoOrbital Pt 43   d \
	OrthoOrbital Pt 43   dxy \
	OrthoOrbital Pt 43   dyz \
	OrthoOrbital Pt 43   dz2 \
	OrthoOrbital Pt 43   dxz \
	OrthoOrbital Pt 43   dx2-y2 \
	OrthoOrbital Pt 44   s \
	OrthoOrbital Pt 44   p \
	OrthoOrbital Pt 44   px \
	OrthoOrbital Pt 44   py \
	OrthoOrbital Pt 44   pz \
	OrthoOrbital Pt 44   d \
	OrthoOrbital Pt 44   dxy \
	OrthoOrbital Pt 44   dyz \
	OrthoOrbital Pt 44   dz2 \
	OrthoOrbital Pt 44   dxz \
	OrthoOrbital Pt 44   dx2-y2 \
	OrthoOrbital C 1   s \
	OrthoOrbital C 1   p \
	OrthoOrbital C 1   px \
	OrthoOrbital C 1   py \
	OrthoOrbital C 1   pz \
	OrthoOrbital O 1   s \
	OrthoOrbital O 1   p \
	OrthoOrbital O 1   px \
	OrthoOrbital O 1   py \
	OrthoOrbital O 1   pz
dump End ElecDensity KEdensity BandEigs EigStats RhoAtom DOS Kpoints
dump Ionic State IonicPositions Lattice EigStats Ecomponents
dump 
dump 
dump 
dump 
dump 
dump 
dump 
dump 
dump-name jdft.$VAR
elec-cutoff 20
elec-eigen-algo Davidson
elec-ex-corr gga-PBE
elec-initial-magnetization 0.000000 no
elec-n-bands 429
elec-smearing Fermi 0.001
electronic-minimize  \
	dirUpdateScheme      FletcherReeves \
	linminMethod         DirUpdateRecommended \
	nIterations          100 \
	history              15 \
	knormThreshold       0 \
	energyDiffThreshold  1e-07 \
	nEnergyDiff          2 \
	alphaTstart          1 \
	alphaTmin            1e-10 \
	updateTestStepSize   yes \
	alphaTreduceFactor   0.1 \
	alphaTincreaseFactor 3 \
	nAlphaAdjustMax      3 \
	wolfeEnergy          0.0001 \
	wolfeGradient        0.9 \
	fdTest               no
exchange-regularization WignerSeitzTruncated
fluid LinearPCM 298.000000 1.013250
fluid-anion F- 0.5 MeanFieldLJ \
	epsBulk 1 \
	pMol 0 \
	epsInf 1 \
	Pvap 0 \
	sigmaBulk 0 \
	Rvdw 2.24877 \
	Res 0 \
	tauNuc 343133
fluid-cation Na+ 0.5 MeanFieldLJ \
	epsBulk 1 \
	pMol 0 \
	epsInf 1 \
	Pvap 0 \
	sigmaBulk 0 \
	Rvdw 2.19208 \
	Res 0 \
	tauNuc 343133
fluid-ex-corr lda-TF lda-PZ
fluid-gummel-loop 10 1.000000e-05
fluid-minimize  \
	dirUpdateScheme      PolakRibiere \
	linminMethod         DirUpdateRecommended \
	nIterations          400 \
	history              15 \
	knormThreshold       1e-11 \
	energyDiffThreshold  0 \
	nEnergyDiff          2 \
	alphaTstart          1 \
	alphaTmin            1e-10 \
	updateTestStepSize   yes \
	alphaTreduceFactor   0.1 \
	alphaTincreaseFactor 3 \
	nAlphaAdjustMax      6 \
	wolfeEnergy          0.0001 \
	wolfeGradient        0.9 \
	fdTest               no
fluid-solvent H2O 55.338 ScalarEOS \
	epsBulk 78.4 \
	pMol 0.92466 \
	epsInf 1.77 \
	Pvap 1.06736e-10 \
	sigmaBulk 4.62e-05 \
	Rvdw 2.61727 \
	Res 1.42 \
	tauNuc 343133 \
	poleEl 15 7 1
forces-output-coords Positions
ion Pt   5.241340000000000   0.218295000000000  23.220851000000003 0
ion Pt   2.625348000000001   8.894560000000000  23.220851000000003 0
ion Pt   0.009344000000000   0.218295000000000  23.220851000000003 0
ion Pt  -2.606647000000000   8.894560000000000  23.220851000000003 0
ion Pt  -0.009459000000000   4.514096000000000   1.317516000000000 0
ion Pt  -2.625445999999999  13.190378999999998   1.317516000000000 0
ion Pt   5.222547000000000   4.514096000000000   1.317516000000000 0
ion Pt   2.606540000000002  13.190378999999998   1.317516000000000 0
ion Pt   2.606795000000000   0.560262000000000   3.078081000000000 0
ion Pt  -0.009207000000000   9.236561999999999   3.078081000000000 0
ion Pt   7.838791000000000   0.560262000000000   3.078081000000000 0
ion Pt   5.222789000000000   9.236561999999999   3.078081000000000 0
ion Pt   2.609997000000000   5.509561000000000   5.634781000000000 0
ion Pt  -0.006004999999998  14.185860999999997   5.634781000000000 0
ion Pt   7.841993000000000   5.509561000000000   5.634781000000000 0
ion Pt   5.225991000000001  14.185860999999997   5.634781000000000 0
ion Pt  -0.003359000000000   1.572871000000000   7.779941000000001 0
ion Pt  -2.619355999999999  10.249154000000001   7.779941000000001 0
ion Pt   5.228637000000000   1.572871000000000   7.779941000000001 0
ion Pt   2.612640000000000  10.249154000000001   7.779941000000001 0
ion Pt  -0.002505000000000   6.318328999999999  10.051066000000002 0
ion Pt  -2.618501999999999  14.994611999999998  10.051066000000002 0
ion Pt   5.229490000000001   6.318328999999999  10.051066000000002 0
ion Pt   2.613493000000001  14.994611999999998  10.051066000000002 0
ion Pt   2.616171000000000   2.366906999999999  12.270803000000001 0
ion Pt   0.000174000000001  11.043189999999997  12.270803000000001 0
ion Pt   7.848167000000002   2.366906999999999  12.270803000000001 0
ion Pt   5.232170000000000  11.043189999999997  12.270803000000001 0
ion Pt   2.618583000000000   7.091334000000000  14.490026000000002 0
ion Pt   0.002581000000000  15.767633999999997  14.490026000000002 0
ion Pt   7.850579000000000   7.091334000000000  14.490026000000002 0
ion Pt   5.234577000000002  15.767633999999997  14.490026000000002 0
ion Pt   0.003506000000000   3.159276999999999  16.761077000000000 0
ion Pt  -2.612480999999999  11.835559999999999  16.761077000000000 0
ion Pt   5.235502000000000   3.159276999999999  16.761077000000000 0
ion Pt   2.619515000000000  11.835559999999999  16.761077000000000 0
ion Pt   0.005971000000000   7.898454000000000  18.905721000000000 0
ion Pt  -2.610025999999999  16.574736000000001  18.905721000000000 0
ion Pt   5.237966000000002   7.898454000000000  18.905721000000000 0
ion Pt   2.621969000000001  16.574736000000001  18.905721000000000 0
ion Pt   2.624935000000000   4.172007999999999  21.461684999999999 0
ion Pt   0.008938000000001  12.848289999999999  21.461684999999999 0
ion Pt   7.856931000000001   4.172007999999999  21.461684999999999 0
ion Pt   5.240934000000001  12.848289999999999  21.461684999999999 0
ion C   0.009346000000001  11.786659999999999  24.791696000000002 1  Linear 0 0 1
ion O   0.069440000000001  11.786659999999999  26.947016000000001 1  Linear 0 0 1
ion-species /projects/musgravc/apps/jdftx-1.6.0/build/pseudopotentials/GBRV_v1.5/$ID_pbe_v1.uspp
ion-species /projects/musgravc/apps/jdftx-1.6.0/build/pseudopotentials/GBRV_v1.5/$ID_pbe_v1.2.uspp
ion-species /projects/musgravc/apps/jdftx-1.6.0/build/pseudopotentials/GBRV_v1.5/$ID_pbe_v1.4.uspp
ion-species /projects/musgravc/apps/jdftx-1.6.0/build/pseudopotentials/GBRV_v1.5/$ID_pbe_v1.5.uspp
ion-width Ecut
ionic-minimize  \
	dirUpdateScheme      L-BFGS \
	linminMethod         DirUpdateRecommended \
	nIterations          100 \
	history              15 \
	knormThreshold       0.0001 \
	energyDiffThreshold  1e-06 \
	nEnergyDiff          2 \
	alphaTstart          1 \
	alphaTmin            1e-10 \
	updateTestStepSize   yes \
	alphaTreduceFactor   0.1 \
	alphaTincreaseFactor 3 \
	nAlphaAdjustMax      3 \
	wolfeEnergy          0.0001 \
	wolfeGradient        0.9 \
	fdTest               no
kpoint   0.000000000000   0.000000000000   0.000000000000  1.00000000000000
kpoint-folding 6 3 1 
latt-move-scale 0 0 0
latt-scale 1 1 1 
lattice  \
	  10.463991999999999   -5.231994000000000    0.000000000000000  \
	   0.000000000000000   17.352564999999998    0.000000000000000  \
	   0.000000000000000    0.000000000000000   73.620697000000007 
lattice-minimize  \
	dirUpdateScheme      L-BFGS \
	linminMethod         DirUpdateRecommended \
	nIterations          0 \
	history              15 \
	knormThreshold       0 \
	energyDiffThreshold  1e-06 \
	nEnergyDiff          2 \
	alphaTstart          1 \
	alphaTmin            1e-10 \
	updateTestStepSize   yes \
	alphaTreduceFactor   0.1 \
	alphaTincreaseFactor 3 \
	nAlphaAdjustMax      3 \
	wolfeEnergy          0.0001 \
	wolfeGradient        0.9 \
	fdTest               no
lcao-params 30 1e-06 0.001
pcm-variant CANDLE
spintype z-spin
subspace-rotation-factor 1 yes
symmetries automatic
symmetry-threshold 0.0001
van-der-waals D3



---------- Setting up symmetries ----------

Found 8 point-group symmetries of the bravais lattice
Found 1 space-group symmetries with basis
Applied RMS atom displacement 0 bohrs to make symmetries exact.

---------- Initializing the Grid ----------
R = 
[       10.464     -5.23199            0  ]
[            0      17.3526            0  ]
[            0            0      73.6207  ]
unit cell volume = 13367.8
G =
[   0.600458   0.181045         -0  ]
[          0    0.36209          0  ]
[          0         -0  0.0853454  ]
Minimum fftbox size, Smin = [  44  76  300  ]
Chosen fftbox size, S = [  48  80  300  ]

---------- Exchange Correlation functional ----------
Initalized PBE GGA exchange.
Initalized PBE GGA correlation.

---------- Setting up pseudopotentials ----------
Width of ionic core gaussian charges (only for fluid interactions / plotting) set to 0.397384

Reading pseudopotential file '/projects/musgravc/apps/jdftx-1.6.0/build/pseudopotentials/GBRV_v1.5/pt_pbe_v1.4.uspp':
  Title: Pt.  Created by USPP 7.3.6 on 31-3-15
  Reference state energy: -105.002503.  16 valence electrons in orbitals:
    |510>  occupation: 6  eigenvalue: -2.158104
    |520>  occupation: 9.5  eigenvalue: -0.335376
    |600>  occupation: 0  eigenvalue: -0.319640
    |610>  occupation: 0  eigenvalue: -0.122947
  lMax: 2  lLocal: 3  QijEcut: 5.5
  6 projectors sampled on a log grid with 745 points:
    l: 0  eig: -0.319640  rCut: 2.45
    l: 0  eig: 1.500000  rCut: 2.45
    l: 1  eig: -2.158104  rCut: 1.6
    l: 1  eig: -0.122947  rCut: 1.6
    l: 2  eig: -0.500000  rCut: 1.6
    l: 2  eig: -0.335375  rCut: 1.6
  Partial core density with radius 1.1
  Transforming core density to a uniform radial grid of dG=0.02 with 1353 points.
  Transforming local potential to a uniform radial grid of dG=0.02 with 1353 points.
  Transforming nonlocal projectors to a uniform radial grid of dG=0.02 with 432 points.
  Transforming density augmentations to a uniform radial grid of dG=0.02 with 1353 points.
  Transforming atomic orbitals to a uniform radial grid of dG=0.02 with 432 points.
  Core radius for overlap checks: 2.45 bohrs.

Reading pseudopotential file '/projects/musgravc/apps/jdftx-1.6.0/build/pseudopotentials/GBRV_v1.5/c_pbe_v1.2.uspp':
  Title: C.  Created by USPP 7.3.6 on 3-2-2014
  Reference state energy: -5.406344.  4 valence electrons in orbitals:
    |200>  occupation: 2  eigenvalue: -0.504890
    |210>  occupation: 2  eigenvalue: -0.194356
  lMax: 1  lLocal: 2  QijEcut: 5
  4 projectors sampled on a log grid with 503 points:
    l: 0  eig: -0.504890  rCut: 1.3
    l: 0  eig: 0.000000  rCut: 1.3
    l: 1  eig: -0.194357  rCut: 1.3
    l: 1  eig: 0.000000  rCut: 1.3
  Partial core density with radius 1.1
  Transforming core density to a uniform radial grid of dG=0.02 with 1353 points.
  Transforming local potential to a uniform radial grid of dG=0.02 with 1353 points.
  Transforming nonlocal projectors to a uniform radial grid of dG=0.02 with 432 points.
  Transforming density augmentations to a uniform radial grid of dG=0.02 with 1353 points.
  Transforming atomic orbitals to a uniform radial grid of dG=0.02 with 432 points.
  Core radius for overlap checks: 1.30 bohrs.

Reading pseudopotential file '/projects/musgravc/apps/jdftx-1.6.0/build/pseudopotentials/GBRV_v1.5/o_pbe_v1.2.uspp':
  Title: O.  Created by USPP 7.3.6 on 3-2-2014
  Reference state energy: -15.894388.  6 valence electrons in orbitals:
    |200>  occupation: 2  eigenvalue: -0.878823
    |210>  occupation: 4  eigenvalue: -0.332131
  lMax: 2  lLocal: 2  QijEcut: 6
  5 projectors sampled on a log grid with 511 points:
    l: 0  eig: -0.878823  rCut: 1.25
    l: 0  eig: 0.000000  rCut: 1.25
    l: 1  eig: -0.332132  rCut: 1.25
    l: 1  eig: 0.000000  rCut: 1.25
    l: 2  eig: 1.000000  rCut: 1.25
  Partial core density with radius 0.7
  Transforming core density to a uniform radial grid of dG=0.02 with 1353 points.
  Transforming local potential to a uniform radial grid of dG=0.02 with 1353 points.
  Transforming nonlocal projectors to a uniform radial grid of dG=0.02 with 432 points.
  Transforming density augmentations to a uniform radial grid of dG=0.02 with 1353 points.
  Transforming atomic orbitals to a uniform radial grid of dG=0.02 with 432 points.
  Core radius for overlap checks: 1.25 bohrs.

Initialized 3 species with 46 total atoms.

Folded 1 k-points by 6x3x1 to 18 k-points.

---------- Setting up k-points, bands, fillings ----------
Adding inversion symmetry to k-mesh for non-inversion-symmetric unit cell.
Reduced to 10 k-points under symmetry. 
Computing the number of bands and number of electrons
Calculating initial fillings.
nElectrons: 714.000000   nBands: 429   nStates: 20

----- Setting up reduced wavefunction bases (one per k-point) -----
average nbasis = 57117.722 , ideal nbasis = 57108.400

----- Initializing Supercell corresponding to k-point mesh -----
Lattice vector linear combinations in supercell:
[   6   0   0  ]
[   0   3   0  ]
[   0   0   1  ]
Supercell lattice vectors:
[  62.784  -15.696  0  ]
[  0  52.0577  0  ]
[  0  0  73.6207  ]

Initializing DFT-D3 calculator:
	Parameters set for gga-PBE functional
	s6:  1.000  s_r6:  1.217
	s8:  0.722  s_r8:  1.000
	Per-atom parameters loaded for:
	Pt:  sqrtQ[a0]:  5.888  Rcov[a0]:  2.116  CN: [ 0.00 1.92 6.67 ]
	 C:  sqrtQ[a0]:  3.105  Rcov[a0]:  1.417  CN: [ 0.00 0.99 2.00 3.00 3.98 ]
	 O:  sqrtQ[a0]:  2.594  Rcov[a0]:  1.191  CN: [ 0.00 0.99 1.99 ]

Initializing DFT-D2 calculator for fluid / solvation:
	Pt:  C6:  815.23 Eh-a0^6  R0: 3.326 a0 (WARNING: beyond Grimme's data set)
	 C:  C6:   30.35 Eh-a0^6  R0: 2.744 a0
	 O:  C6:   12.14 Eh-a0^6  R0: 2.536 a0

---------- Setting up ewald sum ----------
Optimum gaussian width for ewald sums = 5.001928 bohr.
Real space sum over 585 unit cells with max indices [  6  4  2  ]
Reciprocal space sum over 8085 terms with max indices [  5  7  24  ]

Computing DFT-D3 correction:
# coordination-number Pt 5.992 6.886 5.961 6.879 5.954 5.954 5.954 5.954 7.677 7.677 7.677 7.677 9.494 9.494 9.494 9.494 9.262 9.261 9.262 9.261 9.597 9.597 9.597 9.597 9.519 9.519 9.519 9.519 9.598 9.598 9.598 9.598 9.264 9.265 9.264 9.265 9.502 9.499 9.499 9.499 7.681 8.709 7.681 7.717
# coordination-number C 3.832
# coordination-number O 1.147
# diagonal-C6 Pt 336.87 336.87 336.87 336.87 336.87 336.87 336.87 336.87 336.87 336.87 336.87 336.87 336.87 336.87 336.87 336.87 336.87 336.87 336.87 336.87 336.87 336.87 336.87 336.87 336.87 336.87 336.87 336.87 336.87 336.87 336.87 336.87 336.87 336.87 336.87 336.87 336.87 336.87 336.87 336.87 336.87 336.87 336.87 336.87
# diagonal-C6 C 18.64
# diagonal-C6 O 12.67
EvdW_6 =   -0.391243
EvdW_8 =   -0.631211

---------- Allocating electronic variables ----------
Initializing wave functions:  linear combination of atomic orbitals
Pt pseudo-atom occupations:   s ( 0 )  p ( 6 0 )  d ( 10 )
C pseudo-atom occupations:   s ( 2 )  p ( 2 )
O pseudo-atom occupations:   s ( 2 )  p ( 4 )
	FillingsUpdate:  mu: -1.364221129  nElectrons: 714.000000  magneticMoment: [ Abs: 0.00353  Tot: -0.00001 ]
LCAOMinimize: Iter:   0  F: -3915.0310303633750664  |grad|_K:  1.671e-02  alpha:  1.000e+00
LCAOMinimize: 	Step increased F by 4.977861e+02, reducing alpha to 1.873309e-02.
	FillingsUpdate:  mu: -0.086924622  nElectrons: 714.000000  magneticMoment: [ Abs: 0.00303  Tot: +0.00008 ]
LCAOMinimize: Iter:   1  F: -3928.5777321676364409  |grad|_K:  4.699e-03  alpha:  1.873e-02  linmin:  7.734e-02  cgtest: -5.268e-01  t[s]:    307.22
	FillingsUpdate:  mu: +0.340207597  nElectrons: 714.000000  magneticMoment: [ Abs: 0.00269  Tot: +0.00005 ]
LCAOMinimize: Iter:   2  F: -3930.0343850372787529  |grad|_K:  8.355e-03  alpha:  3.600e-02  linmin:  5.689e-03  cgtest:  3.851e-01  t[s]:    397.54
	FillingsUpdate:  mu: +0.186100939  nElectrons: 714.000000  magneticMoment: [ Abs: 0.00248  Tot: -0.00000 ]
LCAOMinimize: Iter:   3  F: -3932.9406761930085850  |grad|_K:  3.987e-03  alpha:  1.201e-02  linmin: -2.837e-02  cgtest:  1.963e-01  t[s]:    488.24
	FillingsUpdate:  mu: +0.050627640  nElectrons: 714.000000  magneticMoment: [ Abs: 0.00243  Tot: -0.00002 ]
LCAOMinimize: Iter:   4  F: -3933.5519064524978603  |grad|_K:  2.724e-03  alpha:  1.205e-02  linmin:  2.686e-03  cgtest: -1.613e-01  t[s]:    578.90
	FillingsUpdate:  mu: -0.025583553  nElectrons: 714.000000  magneticMoment: [ Abs: 0.00238  Tot: -0.00003 ]
LCAOMinimize: Iter:   5  F: -3933.8059836586940037  |grad|_K:  2.690e-03  alpha:  1.209e-02  linmin:  3.554e-03  cgtest:  1.115e-01  t[s]:    669.73
LCAOMinimize: 	Predicted alpha/alphaT>3.000000, increasing alphaT to 3.626757e-02.
	FillingsUpdate:  mu: +0.085180827  nElectrons: 714.000000  magneticMoment: [ Abs: 0.00215  Tot: +0.00006 ]
LCAOMinimize: Iter:   6  F: -3934.7657276689756145  |grad|_K:  1.834e-03  alpha:  4.714e-02  linmin: -2.795e-03  cgtest:  4.382e-01  t[s]:    784.53
	FillingsUpdate:  mu: +0.097844596  nElectrons: 714.000000  magneticMoment: [ Abs: 0.00213  Tot: +0.00006 ]
LCAOMinimize: Iter:   7  F: -3934.8446145281200188  |grad|_K:  1.557e-03  alpha:  8.184e-03  linmin:  2.396e-03  cgtest: -3.619e-02  t[s]:    875.35
LCAOMinimize: 	Predicted alpha/alphaT>3.000000, increasing alphaT to 2.455190e-02.
	FillingsUpdate:  mu: +0.142009583  nElectrons: 714.000000  magneticMoment: [ Abs: 0.00205  Tot: +0.00006 ]
LCAOMinimize: Iter:   8  F: -3935.0420638727832738  |grad|_K:  1.057e-03  alpha:  2.894e-02  linmin:  5.351e-03  cgtest: -2.082e-02  t[s]:    990.74
	FillingsUpdate:  mu: +0.095880951  nElectrons: 714.000000  magneticMoment: [ Abs: 0.00199  Tot: +0.00007 ]
LCAOMinimize: Iter:   9  F: -3935.1522487785159683  |grad|_K:  1.191e-03  alpha:  3.566e-02  linmin:  1.612e-03  cgtest:  2.758e-02  t[s]:   1081.49
	FillingsUpdate:  mu: +0.184998333  nElectrons: 714.000000  magneticMoment: [ Abs: 0.00190  Tot: +0.00006 ]
LCAOMinimize: Iter:  10  F: -3935.2959157891768882  |grad|_K:  2.275e-03  alpha:  3.587e-02  linmin:  1.268e-04  cgtest:  8.398e-03  t[s]:   1172.41
	FillingsUpdate:  mu: +0.158611438  nElectrons: 714.000000  magneticMoment: [ Abs: 0.00183  Tot: +0.00009 ]
LCAOMinimize: Iter:  11  F: -3935.4287208591686067  |grad|_K:  7.917e-04  alpha:  8.968e-03  linmin:  9.698e-04  cgtest: -1.754e-01  t[s]:   1262.81
LCAOMinimize: 	Predicted alpha/alphaT>3.000000, increasing alphaT to 2.690257e-02.
	FillingsUpdate:  mu: +0.208100625  nElectrons: 714.000000  magneticMoment: [ Abs: 0.00176  Tot: +0.00011 ]
LCAOMinimize: Iter:  12  F: -3935.5200853817168536  |grad|_K:  1.143e-03  alpha:  5.214e-02  linmin:  8.667e-04  cgtest:  1.343e-03  t[s]:   1377.61
	FillingsUpdate:  mu: +0.188874058  nElectrons: 714.000000  magneticMoment: [ Abs: 0.00174  Tot: +0.00012 ]
LCAOMinimize: Iter:  13  F: -3935.5529869105148464  |grad|_K:  9.200e-04  alpha:  9.492e-03  linmin:  1.761e-03  cgtest: -1.580e-02  t[s]:   1468.55
	FillingsUpdate:  mu: +0.145303063  nElectrons: 714.000000  magneticMoment: [ Abs: 0.00174  Tot: +0.00013 ]
LCAOMinimize: Iter:  14  F: -3935.5767108050299612  |grad|_K:  3.908e-04  alpha:  1.025e-02  linmin:  2.901e-04  cgtest:  1.081e-01  t[s]:   1559.43
LCAOMinimize: 	Predicted alpha/alphaT>3.000000, increasing alphaT to 3.073987e-02.
	FillingsUpdate:  mu: +0.142894782  nElectrons: 714.000000  magneticMoment: [ Abs: 0.00173  Tot: +0.00014 ]
LCAOMinimize: Iter:  15  F: -3935.5931784964363942  |grad|_K:  4.515e-04  alpha:  3.746e-02  linmin: -1.418e-04  cgtest: -3.530e-03  t[s]:   1674.12
	FillingsUpdate:  mu: +0.139124432  nElectrons: 714.000000  magneticMoment: [ Abs: 0.00173  Tot: +0.00015 ]
LCAOMinimize: Iter:  16  F: -3935.5967008085908674  |grad|_K:  2.394e-04  alpha:  5.973e-03  linmin: -1.091e-04  cgtest:  6.884e-03  t[s]:   1764.76
LCAOMinimize: 	Predicted alpha/alphaT>3.000000, increasing alphaT to 1.791963e-02.
	FillingsUpdate:  mu: +0.155421740  nElectrons: 714.000000  magneticMoment: [ Abs: 0.00173  Tot: +0.00015 ]
LCAOMinimize: Iter:  17  F: -3935.6035105074752209  |grad|_K:  2.986e-04  alpha:  4.163e-02  linmin:  1.562e-03  cgtest: -1.179e-02  t[s]:   1879.36
	FillingsUpdate:  mu: +0.144820912  nElectrons: 714.000000  magneticMoment: [ Abs: 0.00173  Tot: +0.00015 ]
LCAOMinimize: Iter:  18  F: -3935.6098610911230935  |grad|_K:  3.196e-04  alpha:  2.534e-02  linmin:  4.169e-05  cgtest:  4.902e-02  t[s]:   1970.00
	FillingsUpdate:  mu: +0.137227894  nElectrons: 714.000000  magneticMoment: [ Abs: 0.00173  Tot: +0.00015 ]
LCAOMinimize: Iter:  19  F: -3935.6116141506381609  |grad|_K:  1.421e-04  alpha:  5.946e-03  linmin: -2.196e-04  cgtest: -1.109e-02  t[s]:   2060.67
LCAOMinimize: 	Predicted alpha/alphaT>3.000000, increasing alphaT to 1.783831e-02.
	FillingsUpdate:  mu: +0.129464879  nElectrons: 714.000000  magneticMoment: [ Abs: 0.00173  Tot: +0.00015 ]
LCAOMinimize: Iter:  20  F: -3935.6142049886034329  |grad|_K:  1.561e-04  alpha:  4.442e-02  linmin:  8.114e-05  cgtest: -2.282e-03  t[s]:   2174.95
	FillingsUpdate:  mu: +0.131300793  nElectrons: 714.000000  magneticMoment: [ Abs: 0.00173  Tot: +0.00015 ]
LCAOMinimize: Iter:  21  F: -3935.6149739813836277  |grad|_K:  1.465e-04  alpha:  1.074e-02  linmin: -1.219e-03  cgtest:  3.027e-02  t[s]:   2265.56
	FillingsUpdate:  mu: +0.134484595  nElectrons: 714.000000  magneticMoment: [ Abs: 0.00173  Tot: +0.00015 ]
LCAOMinimize: Iter:  22  F: -3935.6156992604137486  |grad|_K:  1.024e-04  alpha:  1.153e-02  linmin: -9.060e-05  cgtest: -4.076e-02  t[s]:   2356.44
LCAOMinimize: 	Predicted alpha/alphaT>3.000000, increasing alphaT to 3.459673e-02.
	FillingsUpdate:  mu: +0.130217342  nElectrons: 714.000000  magneticMoment: [ Abs: 0.00173  Tot: +0.00015 ]
LCAOMinimize: Iter:  23  F: -3935.6169721234537064  |grad|_K:  1.312e-04  alpha:  4.210e-02  linmin:  2.124e-04  cgtest:  2.113e-02  t[s]:   2470.98
	FillingsUpdate:  mu: +0.126788304  nElectrons: 714.000000  magneticMoment: [ Abs: 0.00173  Tot: +0.00015 ]
LCAOMinimize: Iter:  24  F: -3935.6172731531241880  |grad|_K:  5.583e-05  alpha:  6.202e-03  linmin:  2.099e-03  cgtest: -2.642e-02  t[s]:   2561.28
	FillingsUpdate:  mu: +0.123757922  nElectrons: 714.000000  magneticMoment: [ Abs: 0.00174  Tot: +0.00015 ]
LCAOMinimize: Iter:  25  F: -3935.6173864391653296  |grad|_K:  3.275e-05  alpha:  1.283e-02  linmin:  6.491e-05  cgtest:  3.727e-02  t[s]:   2652.16
	FillingsUpdate:  mu: +0.123050397  nElectrons: 714.000000  magneticMoment: [ Abs: 0.00174  Tot: +0.00015 ]
LCAOMinimize: Iter:  26  F: -3935.6174638492088889  |grad|_K:  5.295e-05  alpha:  2.504e-02  linmin:  1.383e-05  cgtest: -7.398e-03  t[s]:   2742.81
	FillingsUpdate:  mu: +0.123071279  nElectrons: 714.000000  magneticMoment: [ Abs: 0.00174  Tot: +0.00015 ]
LCAOMinimize: Iter:  27  F: -3935.6175425207825356  |grad|_K:  2.475e-05  alpha:  9.735e-03  linmin:  3.183e-05  cgtest:  1.515e-03  t[s]:   2833.65
LCAOMinimize: 	Predicted alpha/alphaT>3.000000, increasing alphaT to 2.920451e-02.
	FillingsUpdate:  mu: +0.124492354  nElectrons: 714.000000  magneticMoment: [ Abs: 0.00174  Tot: +0.00015 ]
LCAOMinimize: Iter:  28  F: -3935.6175957732234565  |grad|_K:  3.456e-05  alpha:  3.016e-02  linmin:  4.173e-06  cgtest:  9.693e-04  t[s]:   2948.08
	FillingsUpdate:  mu: +0.124925937  nElectrons: 714.000000  magneticMoment: [ Abs: 0.00174  Tot: +0.00015 ]
LCAOMinimize: Iter:  29  F: -3935.6176456364687510  |grad|_K:  4.297e-05  alpha:  1.446e-02  linmin: -2.253e-05  cgtest:  1.327e-03  t[s]:   3038.84
	FillingsUpdate:  mu: +0.123897522  nElectrons: 714.000000  magneticMoment: [ Abs: 0.00175  Tot: +0.00015 ]
LCAOMinimize: Iter:  30  F: -3935.6177349262306961  |grad|_K:  2.371e-05  alpha:  1.675e-02  linmin: -5.019e-05  cgtest: -2.127e-03  t[s]:   3129.82
LCAOMinimize: None of the convergence criteria satisfied after 30 iterations.
----- createFluidSolver() ----- (Fluid-side solver setup)
   Initializing fluid molecule 'H2O'
     Initializing site 'O'
       Electron density: proportional to exp(-r/0.36935)*erfc((r-0.51523)/0.36823) with norm 6.826
       Charge density: gaussian nuclear width 0.478731 with net site charge 0.826
       Polarizability: cuspless exponential with width 0.32 and norm 3.73
       Hard sphere radius: 2.57003 bohrs
       Positions in reference frame:
         [ +0.000000 +0.000000 +0.000000 ]
     Initializing site 'H'
       Electron density: proportional to exp(-r/0.34641)*erfc((r-0)/0.390882) with norm 0.587
       Charge density: gaussian nuclear width 0.377945 with net site charge -0.413
       Polarizability: cuspless exponential with width 0.39 and norm 3.3
       Positions in reference frame:
         [ +0.000000 -1.441945 +1.122523 ]
         [ +0.000000 +1.441945 +1.122523 ]
     Net charge: 0   dipole magnitude: 0.927204
     Initializing spherical shell mfKernel with radius 2.61727 Bohr
     deltaS corrections:
       site 'O': -7.54299
       site 'H': -6.83917
   Initializing fluid molecule 'Na+'
     Initializing site 'Na'
       Electron density: proportional to exp(-r/0.19682)*erfc((r-0.71491)/0.41314) with norm 8.1383
       Charge density: gaussian nuclear width 0.365347 with net site charge -1
       Hard sphere radius: 1.86327 bohrs
       Positions in reference frame:
         [ +0.000000 +0.000000 +0.000000 ]
     Net charge: -1   dipole magnitude: 0
     Initializing gaussian mfKernel with width: 1.55004 Bohr
     deltaS corrections:
       site 'Na': -22.3555
   Initializing fluid molecule 'F-'
     Initializing site 'F'
       Electron density: proportional to exp(-r/0.38886)*erfc((r-0)/0.438782) with norm 8
       Charge density: gaussian nuclear width 0.374796 with net site charge 1
       Hard sphere radius: 2.39995 bohrs
       Positions in reference frame:
         [ +0.000000 +0.000000 +0.000000 ]
     Net charge: 1   dipole magnitude: 0
     Initializing gaussian mfKernel with width: 1.59012 Bohr
     deltaS corrections:
       site 'F': -9.04335

Correction to mu due to finite nuclear width = -0.0529952
   Cavity determined by nc: 0.00142 and sigma: 0.707107
   Nonlocal vdW cavity from gaussian model electron density with norm = 8 and sigma = 0.993594 bohr
   Charge asymmetry in cavity with sensitivity pCavity = 36.5 e-bohr/Eh
   Electrostatic cavity expanded by eta = 1.46 bohrs
   Weighted density cavitation model constrained by Nbulk: 0.0049383 bohr^-3, Pvap: 3.14029 kPa, Rvdw: 2.61727 bohr and sigmaBulk: 4.62e-05 Eh/bohr^2 at T: 298 K.
   Weighted density dispersion model using vdW pair potentials with single solvent site with sqrtC6eff: 0.77 SI.


---- Citations for features of the code used in this run ----

   Software package:
      R. Sundararaman, K. Letchworth-Weaver, K.A. Schwarz, D. Gunceler, Y. Ozhabes and T.A. Arias, 'JDFTx: software for joint density-functional theory', SoftwareX 6, 278 (2017)

   gga-PBE exchange-correlation functional:
      J.P. Perdew, K. Burke and M. Ernzerhof, Phys. Rev. Lett. 77, 3865 (1996)

   Pseudopotentials:
      KF Garrity, JW Bennett, KM Rabe and D Vanderbilt, Comput. Mater. Sci. 81, 446 (2014)

   DFT-D3 dispersion correction:
      S. Grimme, J. Antony, S. Ehrlich and H. Krieg, J. Chem. Phys. 132, 154104 (2010)

   DFT-D2 dispersion correction:
      S. Grimme, J. Comput. Chem. 27, 1787 (2006)

   Charge-asymmetric nonlocally-determined local-electric (CANDLE) solvation model:
      R. Sundararaman and W.A. Goddard III, J. Chem. Phys. 142, 064107 (2015)

   Total energy minimization with Auxiliary Hamiltonian:
      C. Freysoldt, S. Boeck, and J. Neugebauer, Phys. Rev. B 79, 241103(R) (2009)

   Linear-tetrahedron sampling for density of states:
      G. Lehmann and M. Taut, Phys. status solidi (b) 54, 469 (1972)

This list may not be complete. Please suggest additional citations or
report any other bugs at https://github.com/shankar1729/jdftx/issues

Initialization completed successfully at t[s]:   3157.03


Computing DFT-D3 correction:
# coordination-number Pt 5.992 6.886 5.961 6.879 5.954 5.954 5.954 5.954 7.677 7.677 7.677 7.677 9.494 9.494 9.494 9.494 9.262 9.261 9.262 9.261 9.597 9.597 9.597 9.597 9.519 9.519 9.519 9.519 9.598 9.598 9.598 9.598 9.264 9.265 9.264 9.265 9.502 9.499 9.499 9.499 7.681 8.709 7.681 7.717
# coordination-number C 3.832
# coordination-number O 1.147
# diagonal-C6 Pt 336.87 336.87 336.87 336.87 336.87 336.87 336.87 336.87 336.87 336.87 336.87 336.87 336.87 336.87 336.87 336.87 336.87 336.87 336.87 336.87 336.87 336.87 336.87 336.87 336.87 336.87 336.87 336.87 336.87 336.87 336.87 336.87 336.87 336.87 336.87 336.87 336.87 336.87 336.87 336.87 336.87 336.87 336.87 336.87
# diagonal-C6 C 18.64
# diagonal-C6 O 12.67
EvdW_6 =   -0.391243
EvdW_8 =   -0.631211
Fluid solver invoked on fresh (random / LCAO) wavefunctions
Running a vacuum solve first:

-------- Initial electronic minimization -----------
	FillingsUpdate:  mu: +0.123897834  nElectrons: 714.000000  magneticMoment: [ Abs: 0.00175  Tot: +0.00015 ]
ElecMinimize: Iter:   0  F: -3935.617734926245703  |grad|_K:  5.420e-05  alpha:  1.000e+00
	FillingsUpdate:  mu: +0.182387186  nElectrons: 714.000000  magneticMoment: [ Abs: 0.00134  Tot: +0.00017 ]
	SubspaceRotationAdjust: set factor to 0.56
ElecMinimize: Iter:   1  F: -3936.226780486457756  |grad|_K:  7.747e-05  alpha:  4.253e-01  linmin:  3.050e-05  t[s]:   3392.28
	FillingsUpdate:  mu: +0.192422056  nElectrons: 714.000000  magneticMoment: [ Abs: 0.00132  Tot: +0.00016 ]
	SubspaceRotationAdjust: set factor to 0.267
ElecMinimize: Iter:   2  F: -3936.228247159499006  |grad|_K:  7.432e-05  alpha:  9.078e-03  linmin:  2.981e-03  t[s]:   3544.85
	FillingsUpdate:  mu: +0.199803015  nElectrons: 714.000000  magneticMoment: [ Abs: 0.00130  Tot: +0.00016 ]
	SubspaceRotationAdjust: set factor to 0.161
ElecMinimize: Iter:   3  F: -3936.229393690527104  |grad|_K:  6.262e-05  alpha:  5.853e-03  linmin:  1.798e-08  t[s]:   3697.44
ElecMinimize: 	Predicted alpha/alphaT>3.000000, increasing alphaT to 1.755973e-02.
	FillingsUpdate:  mu: +0.168896484  nElectrons: 714.000000  magneticMoment: [ Abs: 0.00123  Tot: +0.00017 ]
	SubspaceRotationAdjust: set factor to 0.0699
	SubspaceRotationAdjust: resetting CG because factor has changed by 0.0698513
ElecMinimize: 	State modified externally: resetting search direction.
ElecMinimize: Iter:   4  F: -3936.285167284746422  |grad|_K:  2.628e-05  alpha:  2.894e-02
ElecMinimize: 	Predicted alpha/alphaT>3.000000, increasing alphaT to 8.682366e-02.
	FillingsUpdate:  mu: +0.183161033  nElectrons: 714.000000  magneticMoment: [ Abs: 0.00114  Tot: +0.00016 ]
	SubspaceRotationAdjust: set factor to 0.0507
ElecMinimize: Iter:   5  F: -3936.334282917960536  |grad|_K:  2.645e-05  alpha:  1.443e-01  linmin: -3.051e-04  t[s]:   4152.92
	FillingsUpdate:  mu: +0.151332838  nElectrons: 714.000000  magneticMoment: [ Abs: 0.00099  Tot: +0.00016 ]
	SubspaceRotationAdjust: set factor to 0.0373
ElecMinimize: Iter:   6  F: -3936.381200074939898  |grad|_K:  1.086e-05  alpha:  1.356e-01  linmin:  3.513e-05  t[s]:   4305.49
ElecMinimize: 	Predicted alpha/alphaT>3.000000, increasing alphaT to 4.069390e-01.
	FillingsUpdate:  mu: +0.151026426  nElectrons: 714.000000  magneticMoment: [ Abs: 0.00070  Tot: +0.00016 ]
	SubspaceRotationAdjust: set factor to 0.0418
ElecMinimize: Iter:   7  F: -3936.414628479335988  |grad|_K:  7.257e-06  alpha:  5.771e-01  linmin:  3.778e-06  t[s]:   4497.04
	FillingsUpdate:  mu: +0.156077814  nElectrons: 714.000000  magneticMoment: [ Abs: 0.00060  Tot: +0.00016 ]
	SubspaceRotationAdjust: set factor to 0.0301
ElecMinimize: Iter:   8  F: -3936.422175209782381  |grad|_K:  6.134e-06  alpha:  2.917e-01  linmin:  1.291e-05  t[s]:   4650.04
	FillingsUpdate:  mu: +0.153909233  nElectrons: 714.000000  magneticMoment: [ Abs: 0.00055  Tot: +0.00016 ]
	SubspaceRotationAdjust: set factor to 0.0201
ElecMinimize: Iter:   9  F: -3936.424868006771248  |grad|_K:  2.885e-06  alpha:  1.455e-01  linmin: -3.789e-06  t[s]:   4802.69
ElecMinimize: 	Predicted alpha/alphaT>3.000000, increasing alphaT to 4.365768e-01.
	FillingsUpdate:  mu: +0.151464610  nElectrons: 714.000000  magneticMoment: [ Abs: 0.00047  Tot: +0.00016 ]
	SubspaceRotationAdjust: set factor to 0.0269
ElecMinimize: Iter:  10  F: -3936.427583876177323  |grad|_K:  2.432e-06  alpha:  6.636e-01  linmin:  5.205e-06  t[s]:   4993.93
	FillingsUpdate:  mu: +0.152027631  nElectrons: 714.000000  magneticMoment: [ Abs: 0.00044  Tot: +0.00016 ]
	SubspaceRotationAdjust: set factor to 0.0233
ElecMinimize: Iter:  11  F: -3936.428805955094504  |grad|_K:  2.228e-06  alpha:  4.205e-01  linmin:  1.207e-07  t[s]:   5146.51
	FillingsUpdate:  mu: +0.152017806  nElectrons: 714.000000  magneticMoment: [ Abs: 0.00043  Tot: +0.00016 ]
	SubspaceRotationAdjust: set factor to 0.02
ElecMinimize: Iter:  12  F: -3936.429538846714422  |grad|_K:  1.717e-06  alpha:  3.003e-01  linmin:  1.010e-07  t[s]:   5298.91
	FillingsUpdate:  mu: +0.150303485  nElectrons: 714.000000  magneticMoment: [ Abs: 0.00041  Tot: +0.00015 ]
	SubspaceRotationAdjust: set factor to 0.0228
ElecMinimize: Iter:  13  F: -3936.430664079255166  |grad|_K:  1.911e-06  alpha:  7.761e-01  linmin:  1.864e-06  t[s]:   5451.73
	FillingsUpdate:  mu: +0.149945043  nElectrons: 714.000000  magneticMoment: [ Abs: 0.00041  Tot: +0.00015 ]
	SubspaceRotationAdjust: set factor to 0.0248
ElecMinimize: Iter:  14  F: -3936.431856465863802  |grad|_K:  1.961e-06  alpha:  6.641e-01  linmin:  1.151e-06  t[s]:   5604.30
	FillingsUpdate:  mu: +0.149506196  nElectrons: 714.000000  magneticMoment: [ Abs: 0.00041  Tot: +0.00015 ]
	SubspaceRotationAdjust: set factor to 0.0222
ElecMinimize: Iter:  15  F: -3936.432748578632072  |grad|_K:  2.133e-06  alpha:  4.718e-01  linmin:  7.845e-07  t[s]:   5756.91
	FillingsUpdate:  mu: +0.147630053  nElectrons: 714.000000  magneticMoment: [ Abs: 0.00039  Tot: +0.00015 ]
	SubspaceRotationAdjust: set factor to 0.0183
ElecMinimize: Iter:  16  F: -3936.433899193303660  |grad|_K:  2.242e-06  alpha:  5.142e-01  linmin: -2.616e-06  t[s]:   5909.41
	FillingsUpdate:  mu: +0.145828025  nElectrons: 714.000000  magneticMoment: [ Abs: 0.00037  Tot: +0.00014 ]
	SubspaceRotationAdjust: set factor to 0.0185
ElecMinimize: Iter:  17  F: -3936.435093616545146  |grad|_K:  1.877e-06  alpha:  4.820e-01  linmin: -3.522e-07  t[s]:   6061.88
	FillingsUpdate:  mu: +0.145125391  nElectrons: 714.000000  magneticMoment: [ Abs: 0.00034  Tot: +0.00014 ]
	SubspaceRotationAdjust: set factor to 0.0192
ElecMinimize: Iter:  18  F: -3936.435952877862292  |grad|_K:  1.553e-06  alpha:  4.957e-01  linmin: -7.180e-07  t[s]:   6214.67
	FillingsUpdate:  mu: +0.144318867  nElectrons: 714.000000  magneticMoment: [ Abs: 0.00031  Tot: +0.00014 ]
	SubspaceRotationAdjust: set factor to 0.0166
ElecMinimize: Iter:  19  F: -3936.436551758847145  |grad|_K:  1.376e-06  alpha:  5.045e-01  linmin: -1.846e-06  t[s]:   6367.32
	FillingsUpdate:  mu: +0.143884053  nElectrons: 714.000000  magneticMoment: [ Abs: 0.00029  Tot: +0.00014 ]
	SubspaceRotationAdjust: set factor to 0.0133
ElecMinimize: Iter:  20  F: -3936.436903344952952  |grad|_K:  9.345e-07  alpha:  3.771e-01  linmin: -4.530e-07  t[s]:   6519.95
	FillingsUpdate:  mu: +0.143662331  nElectrons: 714.000000  magneticMoment: [ Abs: 0.00027  Tot: +0.00014 ]
	SubspaceRotationAdjust: set factor to 0.0149
ElecMinimize: Iter:  21  F: -3936.437093195170746  |grad|_K:  7.036e-07  alpha:  4.418e-01  linmin: -9.120e-08  t[s]:   6672.89
	FillingsUpdate:  mu: +0.143283171  nElectrons: 714.000000  magneticMoment: [ Abs: 0.00026  Tot: +0.00014 ]
	SubspaceRotationAdjust: set factor to 0.0151
ElecMinimize: Iter:  22  F: -3936.437212981567427  |grad|_K:  5.556e-07  alpha:  4.918e-01  linmin: -4.557e-08  t[s]:   6825.49
	FillingsUpdate:  mu: +0.143166222  nElectrons: 714.000000  magneticMoment: [ Abs: 0.00025  Tot: +0.00014 ]
	SubspaceRotationAdjust: set factor to 0.0141
ElecMinimize: Iter:  23  F: -3936.437281027777317  |grad|_K:  4.106e-07  alpha:  4.481e-01  linmin: -7.696e-08  t[s]:   6978.31
	FillingsUpdate:  mu: +0.143177383  nElectrons: 714.000000  magneticMoment: [ Abs: 0.00025  Tot: +0.00013 ]
	SubspaceRotationAdjust: set factor to 0.0159
ElecMinimize: Iter:  24  F: -3936.437323906891834  |grad|_K:  3.570e-07  alpha:  5.170e-01  linmin:  1.651e-07  t[s]:   7131.04
	FillingsUpdate:  mu: +0.143144939  nElectrons: 714.000000  magneticMoment: [ Abs: 0.00024  Tot: +0.00013 ]
	SubspaceRotationAdjust: set factor to 0.0185
ElecMinimize: Iter:  25  F: -3936.437361211814732  |grad|_K:  3.574e-07  alpha:  5.950e-01  linmin:  5.641e-08  t[s]:   7283.39
	FillingsUpdate:  mu: +0.143212642  nElectrons: 714.000000  magneticMoment: [ Abs: 0.00024  Tot: +0.00013 ]
	SubspaceRotationAdjust: set factor to 0.0192
ElecMinimize: Iter:  26  F: -3936.437394887490427  |grad|_K:  3.548e-07  alpha:  5.360e-01  linmin:  8.771e-08  t[s]:   7435.66
	FillingsUpdate:  mu: +0.143313814  nElectrons: 714.000000  magneticMoment: [ Abs: 0.00023  Tot: +0.00013 ]
	SubspaceRotationAdjust: set factor to 0.0187
ElecMinimize: Iter:  27  F: -3936.437433949136448  |grad|_K:  3.965e-07  alpha:  6.309e-01  linmin:  1.871e-08  t[s]:   7588.50
	FillingsUpdate:  mu: +0.143300288  nElectrons: 714.000000  magneticMoment: [ Abs: 0.00023  Tot: +0.00013 ]
	SubspaceRotationAdjust: set factor to 0.0192
ElecMinimize: Iter:  28  F: -3936.437482509460551  |grad|_K:  4.096e-07  alpha:  6.279e-01  linmin:  1.582e-07  t[s]:   7741.16
	FillingsUpdate:  mu: +0.143333251  nElectrons: 714.000000  magneticMoment: [ Abs: 0.00022  Tot: +0.00013 ]
	SubspaceRotationAdjust: set factor to 0.0204
ElecMinimize: Iter:  29  F: -3936.437528096826099  |grad|_K:  3.897e-07  alpha:  5.525e-01  linmin:  6.580e-08  t[s]:   7893.71
	FillingsUpdate:  mu: +0.143551853  nElectrons: 714.000000  magneticMoment: [ Abs: 0.00020  Tot: +0.00013 ]
	SubspaceRotationAdjust: set factor to 0.0203
ElecMinimize: Iter:  30  F: -3936.437570874737503  |grad|_K:  3.616e-07  alpha:  5.726e-01  linmin: -3.360e-08  t[s]:   8046.24
	FillingsUpdate:  mu: +0.143638163  nElectrons: 714.000000  magneticMoment: [ Abs: 0.00019  Tot: +0.00012 ]
	SubspaceRotationAdjust: set factor to 0.0172
ElecMinimize: Iter:  31  F: -3936.437601675899714  |grad|_K:  3.194e-07  alpha:  4.788e-01  linmin: -7.977e-08  t[s]:   8198.66
	FillingsUpdate:  mu: +0.143632474  nElectrons: 714.000000  magneticMoment: [ Abs: 0.00019  Tot: +0.00012 ]
	SubspaceRotationAdjust: set factor to 0.016
ElecMinimize: Iter:  32  F: -3936.437621457032492  |grad|_K:  2.422e-07  alpha:  3.941e-01  linmin: -1.602e-07  t[s]:   8351.09
	FillingsUpdate:  mu: +0.143696081  nElectrons: 714.000000  magneticMoment: [ Abs: 0.00018  Tot: +0.00012 ]
	SubspaceRotationAdjust: set factor to 0.019
ElecMinimize: Iter:  33  F: -3936.437637726508910  |grad|_K:  1.944e-07  alpha:  5.636e-01  linmin: -8.693e-08  t[s]:   8503.58
	FillingsUpdate:  mu: +0.143687813  nElectrons: 714.000000  magneticMoment: [ Abs: 0.00017  Tot: +0.00012 ]
	SubspaceRotationAdjust: set factor to 0.0196
ElecMinimize: Iter:  34  F: -3936.437647252526403  |grad|_K:  1.754e-07  alpha:  5.125e-01  linmin: -9.367e-08  t[s]:   8656.28
	FillingsUpdate:  mu: +0.143666506  nElectrons: 714.000000  magneticMoment: [ Abs: 0.00017  Tot: +0.00012 ]
	SubspaceRotationAdjust: set factor to 0.0186
ElecMinimize: Iter:  35  F: -3936.437654314346219  |grad|_K:  1.656e-07  alpha:  4.664e-01  linmin:  9.826e-09  t[s]:   8808.99
	FillingsUpdate:  mu: +0.143698667  nElectrons: 714.000000  magneticMoment: [ Abs: 0.00017  Tot: +0.00012 ]
	SubspaceRotationAdjust: set factor to 0.0207
ElecMinimize: Iter:  36  F: -3936.437662271873251  |grad|_K:  1.562e-07  alpha:  5.902e-01  linmin:  4.171e-08  t[s]:   8961.81
	FillingsUpdate:  mu: +0.143683818  nElectrons: 714.000000  magneticMoment: [ Abs: 0.00016  Tot: +0.00012 ]
	SubspaceRotationAdjust: set factor to 0.0235
ElecMinimize: Iter:  37  F: -3936.437670630410139  |grad|_K:  1.676e-07  alpha:  6.961e-01  linmin:  3.269e-08  t[s]:   9114.60
	FillingsUpdate:  mu: +0.143650965  nElectrons: 714.000000  magneticMoment: [ Abs: 0.00016  Tot: +0.00012 ]
	SubspaceRotationAdjust: set factor to 0.0233
ElecMinimize: Iter:  38  F: -3936.437678786933702  |grad|_K:  1.881e-07  alpha:  5.903e-01  linmin:  2.629e-08  t[s]:   9267.27
	FillingsUpdate:  mu: +0.143639144  nElectrons: 714.000000  magneticMoment: [ Abs: 0.00015  Tot: +0.00011 ]
	SubspaceRotationAdjust: set factor to 0.0195
ElecMinimize: Iter:  39  F: -3936.437687031063433  |grad|_K:  1.840e-07  alpha:  4.735e-01  linmin: -5.428e-09  t[s]:   9419.92
	FillingsUpdate:  mu: +0.143583012  nElectrons: 714.000000  magneticMoment: [ Abs: 0.00014  Tot: +0.00011 ]
	SubspaceRotationAdjust: set factor to 0.0178
ElecMinimize: Iter:  40  F: -3936.437694450147319  |grad|_K:  1.568e-07  alpha:  4.456e-01  linmin: -4.917e-08  t[s]:   9572.71
	FillingsUpdate:  mu: +0.143546476  nElectrons: 714.000000  magneticMoment: [ Abs: 0.00014  Tot: +0.00011 ]
	SubspaceRotationAdjust: set factor to 0.0195
ElecMinimize: Iter:  41  F: -3936.437700835913347  |grad|_K:  1.338e-07  alpha:  5.280e-01  linmin:  3.764e-09  t[s]:   9726.17
	FillingsUpdate:  mu: +0.143571469  nElectrons: 714.000000  magneticMoment: [ Abs: 0.00013  Tot: +0.00011 ]
	SubspaceRotationAdjust: set factor to 0.0197
ElecMinimize: Iter:  42  F: -3936.437705135530905  |grad|_K:  1.097e-07  alpha:  4.886e-01  linmin: -2.336e-07  t[s]:   9878.48
	FillingsUpdate:  mu: +0.143566047  nElectrons: 714.000000  magneticMoment: [ Abs: 0.00013  Tot: +0.00011 ]
	SubspaceRotationAdjust: set factor to 0.0174
ElecMinimize: Iter:  43  F: -3936.437707712596421  |grad|_K:  9.088e-08  alpha:  4.349e-01  linmin:  3.454e-07  t[s]:  10032.20
	FillingsUpdate:  mu: +0.143554212  nElectrons: 714.000000  magneticMoment: [ Abs: 0.00013  Tot: +0.00011 ]
	SubspaceRotationAdjust: set factor to 0.0176
ElecMinimize: Iter:  44  F: -3936.437709485323921  |grad|_K:  7.346e-08  alpha:  4.368e-01  linmin:  1.659e-07  t[s]:  10184.69
	FillingsUpdate:  mu: +0.143555829  nElectrons: 714.000000  magneticMoment: [ Abs: 0.00012  Tot: +0.00010 ]
	SubspaceRotationAdjust: set factor to 0.0213
ElecMinimize: Iter:  45  F: -3936.437710898019304  |grad|_K:  6.042e-08  alpha:  5.320e-01  linmin: -1.537e-07  t[s]:  10337.48
	FillingsUpdate:  mu: +0.143561505  nElectrons: 714.000000  magneticMoment: [ Abs: 0.00012  Tot: +0.00010 ]
	SubspaceRotationAdjust: set factor to 0.0222
ElecMinimize: Iter:  46  F: -3936.437711844800106  |grad|_K:  5.921e-08  alpha:  5.270e-01  linmin: -1.120e-06  t[s]:  10490.29
	FillingsUpdate:  mu: +0.143568053  nElectrons: 714.000000  magneticMoment: [ Abs: 0.00012  Tot: +0.00010 ]
	SubspaceRotationAdjust: set factor to 0.0199
ElecMinimize: Iter:  47  F: -3936.437712607898902  |grad|_K:  5.545e-08  alpha:  4.423e-01  linmin:  7.146e-07  t[s]:  10642.96
	FillingsUpdate:  mu: +0.143574627  nElectrons: 714.000000  magneticMoment: [ Abs: 0.00012  Tot: +0.00010 ]
	SubspaceRotationAdjust: set factor to 0.0204
ElecMinimize: Iter:  48  F: -3936.437713364978663  |grad|_K:  4.808e-08  alpha:  5.005e-01  linmin:  1.065e-06  t[s]:  10795.51
	FillingsUpdate:  mu: +0.143598661  nElectrons: 714.000000  magneticMoment: [ Abs: 0.00012  Tot: +0.00010 ]
	SubspaceRotationAdjust: set factor to 0.0229
ElecMinimize: Iter:  49  F: -3936.437714009573483  |grad|_K:  4.297e-08  alpha:  5.673e-01  linmin: -1.839e-06  t[s]:  10948.45
	FillingsUpdate:  mu: +0.143608591  nElectrons: 714.000000  magneticMoment: [ Abs: 0.00012  Tot: +0.00010 ]
	SubspaceRotationAdjust: set factor to 0.0229
ElecMinimize: Iter:  50  F: -3936.437714489715745  |grad|_K:  3.965e-08  alpha:  5.280e-01  linmin: -1.064e-06  t[s]:  11101.04
	FillingsUpdate:  mu: +0.143611416  nElectrons: 714.000000  magneticMoment: [ Abs: 0.00011  Tot: +0.00010 ]
	SubspaceRotationAdjust: set factor to 0.0191
ElecMinimize: Iter:  51  F: -3936.437714806909298  |grad|_K:  3.548e-08  alpha:  4.100e-01  linmin:  1.740e-07  t[s]:  11253.67
	FillingsUpdate:  mu: +0.143624142  nElectrons: 714.000000  magneticMoment: [ Abs: 0.00011  Tot: +0.00010 ]
	SubspaceRotationAdjust: set factor to 0.0183
ElecMinimize: Iter:  52  F: -3936.437715065525481  |grad|_K:  2.782e-08  alpha:  4.175e-01  linmin:  4.588e-06  t[s]:  11406.17
	FillingsUpdate:  mu: +0.143633307  nElectrons: 714.000000  magneticMoment: [ Abs: 0.00011  Tot: +0.00010 ]
	SubspaceRotationAdjust: set factor to 0.0219
ElecMinimize: Iter:  53  F: -3936.437715277405914  |grad|_K:  2.370e-08  alpha:  5.571e-01  linmin: -5.070e-06  t[s]:  11559.19
	FillingsUpdate:  mu: +0.143636925  nElectrons: 714.000000  magneticMoment: [ Abs: 0.00011  Tot: +0.00010 ]
	SubspaceRotationAdjust: set factor to 0.0231
ElecMinimize: Iter:  54  F: -3936.437715420673612  |grad|_K:  2.262e-08  alpha:  5.177e-01  linmin:  2.171e-07  t[s]:  11711.72
	FillingsUpdate:  mu: +0.143644783  nElectrons: 714.000000  magneticMoment: [ Abs: 0.00011  Tot: +0.00010 ]
	SubspaceRotationAdjust: set factor to 0.0212
ElecMinimize: Iter:  55  F: -3936.437715534939798  |grad|_K:  2.194e-08  alpha:  4.502e-01  linmin:  2.783e-06  t[s]:  11864.22
	FillingsUpdate:  mu: +0.143649598  nElectrons: 714.000000  magneticMoment: [ Abs: 0.00011  Tot: +0.00009 ]
	SubspaceRotationAdjust: set factor to 0.0213
ElecMinimize: Iter:  56  F: -3936.437715650251448  |grad|_K:  2.008e-08  alpha:  4.897e-01  linmin: -2.341e-06  t[s]:  12017.05
	FillingsUpdate:  mu: +0.143651791  nElectrons: 714.000000  magneticMoment: [ Abs: 0.00011  Tot: +0.00009 ]
	SubspaceRotationAdjust: set factor to 0.0242
ElecMinimize: Iter:  57  F: -3936.437715766745441  |grad|_K:  1.871e-08  alpha:  5.814e-01  linmin: -3.269e-06  t[s]:  12170.87
	FillingsUpdate:  mu: +0.143659931  nElectrons: 714.000000  magneticMoment: [ Abs: 0.00010  Tot: +0.00009 ]
	SubspaceRotationAdjust: set factor to 0.0257
ElecMinimize: Iter:  58  F: -3936.437715870158627  |grad|_K:  1.873e-08  alpha:  5.977e-01  linmin: -6.057e-08  t[s]:  12323.24
	FillingsUpdate:  mu: +0.143664417  nElectrons: 714.000000  magneticMoment: [ Abs: 0.00010  Tot: +0.00009 ]
	SubspaceRotationAdjust: set factor to 0.0226
ElecMinimize: Iter:  59  F: -3936.437715950658458  |grad|_K:  1.910e-08  alpha:  4.675e-01  linmin:  3.231e-06  t[s]:  12476.11
	FillingsUpdate:  mu: +0.143667246  nElectrons: 714.000000  magneticMoment: [ Abs: 0.00010  Tot: +0.00009 ]
	SubspaceRotationAdjust: set factor to 0.0191
ElecMinimize: Iter:  60  F: -3936.437716017358525  |grad|_K:  1.580e-08  alpha:  3.712e-01  linmin:  1.553e-06  t[s]:  12628.65
ElecMinimize: Converged (|Delta F|<1.000000e-07 for 2 iters).
Setting wave functions to eigenvectors of Hamiltonian
Converging empty states (this may take a while): |deigs|: 1.984e-03
Vacuum energy after initial minimize, F = -3936.437716017358525


-------- Electronic minimization -----------
	Linear fluid (dielectric constant: 78.4, screening length: 8.12261 Bohr) occupying 0.541329 of unit cell:	Completed after 29 iterations at t[s]:  13463.79
	FillingsUpdate:  mu: -0.199964449  nElectrons: 714.000000  magneticMoment: [ Abs: 0.00008  Tot: +0.00007 ]
ElecMinimize: Iter:   0  F: -3936.445716340926083  |grad|_K:  8.670e-07  alpha:  1.000e+00
	Linear fluid (dielectric constant: 78.4, screening length: 8.12261 Bohr) occupying 0.541727 of unit cell:	Completed after 19 iterations at t[s]:  13595.34
	Linear fluid (dielectric constant: 78.4, screening length: 8.12261 Bohr) occupying 0.541476 of unit cell:	Completed after 14 iterations at t[s]:  13641.21
	FillingsUpdate:  mu: -0.199580858  nElectrons: 714.000000  magneticMoment: [ Abs: 0.00008  Tot: +0.00007 ]
	SubspaceRotationAdjust: set factor to 0.0157
ElecMinimize: Iter:   1  F: -3936.445852201728485  |grad|_K:  5.397e-07  alpha:  3.677e-01  linmin:  5.877e-07  t[s]:  13700.56
	Linear fluid (dielectric constant: 78.4, screening length: 8.12261 Bohr) occupying 0.541651 of unit cell:	Completed after 11 iterations at t[s]:  13761.29
	Linear fluid (dielectric constant: 78.4, screening length: 8.12261 Bohr) occupying 0.541851 of unit cell:	Completed after 12 iterations at t[s]:  13806.22
	FillingsUpdate:  mu: -0.198817670  nElectrons: 714.000000  magneticMoment: [ Abs: 0.00008  Tot: +0.00007 ]
	SubspaceRotationAdjust: set factor to 0.0183
ElecMinimize: Iter:   2  F: -3936.445965042188618  |grad|_K:  4.266e-07  alpha:  7.889e-01  linmin:  1.139e-06  t[s]:  13865.85
	Linear fluid (dielectric constant: 78.4, screening length: 8.12261 Bohr) occupying 0.542171 of unit cell:	Completed after 12 iterations at t[s]:  13927.82
	Linear fluid (dielectric constant: 78.4, screening length: 8.12261 Bohr) occupying 0.542063 of unit cell:	Completed after 9 iterations at t[s]:  13972.44
	FillingsUpdate:  mu: -0.198422730  nElectrons: 714.000000  magneticMoment: [ Abs: 0.00008  Tot: +0.00007 ]
	SubspaceRotationAdjust: set factor to 0.0214
ElecMinimize: Iter:   3  F: -3936.446011790771536  |grad|_K:  2.922e-07  alpha:  5.234e-01  linmin:  1.481e-07  t[s]:  14031.91
	Linear fluid (dielectric constant: 78.4, screening length: 8.12261 Bohr) occupying 0.542171 of unit cell:	Completed after 10 iterations at t[s]:  14092.51
	Linear fluid (dielectric constant: 78.4, screening length: 8.12261 Bohr) occupying 0.542180 of unit cell:	Completed after 2 iterations at t[s]:  14134.62
	FillingsUpdate:  mu: -0.198281179  nElectrons: 714.000000  magneticMoment: [ Abs: 0.00008  Tot: +0.00007 ]
	SubspaceRotationAdjust: set factor to 0.0265
ElecMinimize: Iter:   4  F: -3936.446035581302567  |grad|_K:  2.285e-07  alpha:  5.666e-01  linmin: -5.167e-07  t[s]:  14194.28
	Linear fluid (dielectric constant: 78.4, screening length: 8.12261 Bohr) occupying 0.542243 of unit cell:	Completed after 8 iterations at t[s]:  14254.19
	Linear fluid (dielectric constant: 78.4, screening length: 8.12261 Bohr) occupying 0.542273 of unit cell:	Completed after 4 iterations at t[s]:  14296.92
	FillingsUpdate:  mu: -0.197890809  nElectrons: 714.000000  magneticMoment: [ Abs: 0.00008  Tot: +0.00007 ]
	SubspaceRotationAdjust: set factor to 0.0329
ElecMinimize: Iter:   5  F: -3936.446057116379961  |grad|_K:  2.391e-07  alpha:  8.349e-01  linmin: -9.710e-07  t[s]:  14356.48
	Linear fluid (dielectric constant: 78.4, screening length: 8.12261 Bohr) occupying 0.542361 of unit cell:	Completed after 10 iterations at t[s]:  14416.87
	Linear fluid (dielectric constant: 78.4, screening length: 8.12261 Bohr) occupying 0.542368 of unit cell:	Completed after 0 iterations at t[s]:  14458.13
	FillingsUpdate:  mu: -0.197576687  nElectrons: 714.000000  magneticMoment: [ Abs: 0.00008  Tot: +0.00007 ]
	SubspaceRotationAdjust: set factor to 0.0384
ElecMinimize: Iter:   6  F: -3936.446082777018091  |grad|_K:  2.854e-07  alpha:  9.050e-01  linmin: -5.440e-07  t[s]:  14517.58
	Linear fluid (dielectric constant: 78.4, screening length: 8.12261 Bohr) occupying 0.542490 of unit cell:	Completed after 11 iterations at t[s]:  14578.32
	Linear fluid (dielectric constant: 78.4, screening length: 8.12261 Bohr) occupying 0.542478 of unit cell:	Completed after 2 iterations at t[s]:  14620.59
	FillingsUpdate:  mu: -0.197244935  nElectrons: 714.000000  magneticMoment: [ Abs: 0.00008  Tot: +0.00007 ]
	SubspaceRotationAdjust: set factor to 0.0425
ElecMinimize: Iter:   7  F: -3936.446115523023764  |grad|_K:  3.324e-07  alpha:  8.114e-01  linmin: -8.608e-08  t[s]:  14680.18
	Linear fluid (dielectric constant: 78.4, screening length: 8.12261 Bohr) occupying 0.542612 of unit cell:	Completed after 12 iterations at t[s]:  14741.04
	Linear fluid (dielectric constant: 78.4, screening length: 8.12261 Bohr) occupying 0.542585 of unit cell:	Completed after 3 iterations at t[s]:  14784.24
	FillingsUpdate:  mu: -0.196843190  nElectrons: 714.000000  magneticMoment: [ Abs: 0.00007  Tot: +0.00007 ]
	SubspaceRotationAdjust: set factor to 0.0457
ElecMinimize: Iter:   8  F: -3936.446150641631903  |grad|_K:  3.435e-07  alpha:  6.446e-01  linmin:  5.563e-08  t[s]:  14843.73
	Linear fluid (dielectric constant: 78.4, screening length: 8.12261 Bohr) occupying 0.542685 of unit cell:	Completed after 10 iterations at t[s]:  14904.14
	Linear fluid (dielectric constant: 78.4, screening length: 8.12261 Bohr) occupying 0.542682 of unit cell:	Completed after 0 iterations at t[s]:  14945.69
	FillingsUpdate:  mu: -0.196806117  nElectrons: 714.000000  magneticMoment: [ Abs: 0.00007  Tot: +0.00007 ]
	SubspaceRotationAdjust: set factor to 0.0488
ElecMinimize: Iter:   9  F: -3936.446186561632203  |grad|_K:  2.942e-07  alpha:  6.198e-01  linmin:  9.598e-08  t[s]:  15005.02
	Linear fluid (dielectric constant: 78.4, screening length: 8.12261 Bohr) occupying 0.542739 of unit cell:	Completed after 11 iterations at t[s]:  15065.47
	Linear fluid (dielectric constant: 78.4, screening length: 8.12261 Bohr) occupying 0.542741 of unit cell:	Completed after 0 iterations at t[s]:  15106.94
	FillingsUpdate:  mu: -0.196387956  nElectrons: 714.000000  magneticMoment: [ Abs: 0.00007  Tot: +0.00006 ]
	SubspaceRotationAdjust: set factor to 0.0518
ElecMinimize: Iter:  10  F: -3936.446213958929548  |grad|_K:  2.423e-07  alpha:  6.450e-01  linmin: -1.512e-07  t[s]:  15166.46
	Linear fluid (dielectric constant: 78.4, screening length: 8.12261 Bohr) occupying 0.542772 of unit cell:	Completed after 9 iterations at t[s]:  15226.48
	Linear fluid (dielectric constant: 78.4, screening length: 8.12261 Bohr) occupying 0.542768 of unit cell:	Completed after 2 iterations at t[s]:  15268.68
	FillingsUpdate:  mu: -0.196604203  nElectrons: 714.000000  magneticMoment: [ Abs: 0.00007  Tot: +0.00006 ]
	SubspaceRotationAdjust: set factor to 0.0509
ElecMinimize: Iter:  11  F: -3936.446230101152651  |grad|_K:  2.129e-07  alpha:  5.569e-01  linmin:  2.290e-07  t[s]:  15328.26
	Linear fluid (dielectric constant: 78.4, screening length: 8.12261 Bohr) occupying 0.542779 of unit cell:	Completed after 12 iterations at t[s]:  15389.05
	Linear fluid (dielectric constant: 78.4, screening length: 8.12261 Bohr) occupying 0.542775 of unit cell:	Completed after 8 iterations at t[s]:  15433.31
	FillingsUpdate:  mu: -0.196234055  nElectrons: 714.000000  magneticMoment: [ Abs: 0.00007  Tot: +0.00006 ]
	SubspaceRotationAdjust: set factor to 0.0429
ElecMinimize: Iter:  12  F: -3936.446238378638554  |grad|_K:  1.796e-07  alpha:  3.755e-01  linmin: -1.392e-07  t[s]:  15492.92
	Linear fluid (dielectric constant: 78.4, screening length: 8.12261 Bohr) occupying 0.542781 of unit cell:	Completed after 8 iterations at t[s]:  15552.60
	Linear fluid (dielectric constant: 78.4, screening length: 8.12261 Bohr) occupying 0.542781 of unit cell:	Completed after 0 iterations at t[s]:  15594.15
	FillingsUpdate:  mu: -0.196176077  nElectrons: 714.000000  magneticMoment: [ Abs: 0.00007  Tot: +0.00006 ]
	SubspaceRotationAdjust: set factor to 0.0428
ElecMinimize: Iter:  13  F: -3936.446244788831791  |grad|_K:  1.327e-07  alpha:  4.021e-01  linmin: -1.358e-06  t[s]:  15653.64
	Linear fluid (dielectric constant: 78.4, screening length: 8.12261 Bohr) occupying 0.542782 of unit cell:	Completed after 6 iterations at t[s]:  15712.82
	Linear fluid (dielectric constant: 78.4, screening length: 8.12261 Bohr) occupying 0.542783 of unit cell:	Completed after 2 iterations at t[s]:  15755.11
	FillingsUpdate:  mu: -0.196453901  nElectrons: 714.000000  magneticMoment: [ Abs: 0.00006  Tot: +0.00006 ]
	SubspaceRotationAdjust: set factor to 0.0493
ElecMinimize: Iter:  14  F: -3936.446249246875141  |grad|_K:  1.142e-07  alpha:  5.036e-01  linmin: -1.512e-07  t[s]:  15814.66
	Linear fluid (dielectric constant: 78.4, screening length: 8.12261 Bohr) occupying 0.542784 of unit cell:	Completed after 8 iterations at t[s]:  15874.45
	Linear fluid (dielectric constant: 78.4, screening length: 8.12261 Bohr) occupying 0.542784 of unit cell:	Completed after 0 iterations at t[s]:  15915.85
	FillingsUpdate:  mu: -0.196283359  nElectrons: 714.000000  magneticMoment: [ Abs: 0.00006  Tot: +0.00006 ]
	SubspaceRotationAdjust: set factor to 0.0516
ElecMinimize: Iter:  15  F: -3936.446252327611546  |grad|_K:  1.080e-07  alpha:  4.788e-01  linmin:  9.736e-07  t[s]:  15976.26
	Linear fluid (dielectric constant: 78.4, screening length: 8.12261 Bohr) occupying 0.542789 of unit cell:	Completed after 8 iterations at t[s]:  16035.85
	Linear fluid (dielectric constant: 78.4, screening length: 8.12261 Bohr) occupying 0.542788 of unit cell:	Completed after 3 iterations at t[s]:  16078.16
	FillingsUpdate:  mu: -0.196261066  nElectrons: 714.000000  magneticMoment: [ Abs: 0.00006  Tot: +0.00006 ]
	SubspaceRotationAdjust: set factor to 0.0463
ElecMinimize: Iter:  16  F: -3936.446254364997912  |grad|_K:  9.969e-08  alpha:  3.611e-01  linmin:  6.327e-07  t[s]:  16137.90
	Linear fluid (dielectric constant: 78.4, screening length: 8.12261 Bohr) occupying 0.542792 of unit cell:	Completed after 6 iterations at t[s]:  16197.10
	Linear fluid (dielectric constant: 78.4, screening length: 8.12261 Bohr) occupying 0.542793 of unit cell:	Completed after 2 iterations at t[s]:  16239.33
	FillingsUpdate:  mu: -0.196416662  nElectrons: 714.000000  magneticMoment: [ Abs: 0.00006  Tot: +0.00006 ]
	SubspaceRotationAdjust: set factor to 0.0495
ElecMinimize: Iter:  17  F: -3936.446256423439536  |grad|_K:  7.846e-08  alpha:  4.240e-01  linmin: -1.623e-06  t[s]:  16299.00
	Linear fluid (dielectric constant: 78.4, screening length: 8.12261 Bohr) occupying 0.542798 of unit cell:	Completed after 3 iterations at t[s]:  16357.22
	Linear fluid (dielectric constant: 78.4, screening length: 8.12261 Bohr) occupying 0.542800 of unit cell:	Completed after 3 iterations at t[s]:  16399.99
	FillingsUpdate:  mu: -0.196296039  nElectrons: 714.000000  magneticMoment: [ Abs: 0.00006  Tot: +0.00006 ]
	SubspaceRotationAdjust: set factor to 0.0548
ElecMinimize: Iter:  18  F: -3936.446258173773913  |grad|_K:  7.562e-08  alpha:  5.667e-01  linmin:  5.280e-07  t[s]:  16459.55
	Linear fluid (dielectric constant: 78.4, screening length: 8.12261 Bohr) occupying 0.542811 of unit cell:	Completed after 7 iterations at t[s]:  16518.96
	Linear fluid (dielectric constant: 78.4, screening length: 8.12261 Bohr) occupying 0.542809 of unit cell:	Completed after 2 iterations at t[s]:  16561.10
	FillingsUpdate:  mu: -0.196301570  nElectrons: 714.000000  magneticMoment: [ Abs: 0.00006  Tot: +0.00006 ]
	SubspaceRotationAdjust: set factor to 0.0494
ElecMinimize: Iter:  19  F: -3936.446259361945977  |grad|_K:  7.666e-08  alpha:  4.237e-01  linmin:  1.664e-06  t[s]:  16620.83
	Linear fluid (dielectric constant: 78.4, screening length: 8.12261 Bohr) occupying 0.542817 of unit cell:	Completed after 7 iterations at t[s]:  16680.16
	Linear fluid (dielectric constant: 78.4, screening length: 8.12261 Bohr) occupying 0.542815 of unit cell:	Completed after 2 iterations at t[s]:  16722.40
	FillingsUpdate:  mu: -0.196367716  nElectrons: 714.000000  magneticMoment: [ Abs: 0.00006  Tot: +0.00005 ]
	SubspaceRotationAdjust: set factor to 0.0423
ElecMinimize: Iter:  20  F: -3936.446260278701175  |grad|_K:  5.999e-08  alpha:  3.295e-01  linmin:  1.393e-07  t[s]:  16782.00
	Linear fluid (dielectric constant: 78.4, screening length: 8.12261 Bohr) occupying 0.542821 of unit cell:	Completed after 3 iterations at t[s]:  16840.33
	Linear fluid (dielectric constant: 78.4, screening length: 8.12261 Bohr) occupying 0.542823 of unit cell:	Completed after 2 iterations at t[s]:  16883.04
	FillingsUpdate:  mu: -0.196269380  nElectrons: 714.000000  magneticMoment: [ Abs: 0.00006  Tot: +0.00005 ]
	SubspaceRotationAdjust: set factor to 0.0478
ElecMinimize: Iter:  21  F: -3936.446261137728925  |grad|_K:  4.833e-08  alpha:  4.836e-01  linmin: -9.976e-07  t[s]:  16942.52
	Linear fluid (dielectric constant: 78.4, screening length: 8.12261 Bohr) occupying 0.542829 of unit cell:	Completed after 2 iterations at t[s]:  17000.61
	Linear fluid (dielectric constant: 78.4, screening length: 8.12261 Bohr) occupying 0.542829 of unit cell:	Completed after 0 iterations at t[s]:  17041.67
	FillingsUpdate:  mu: -0.196281286  nElectrons: 714.000000  magneticMoment: [ Abs: 0.00006  Tot: +0.00005 ]
	SubspaceRotationAdjust: set factor to 0.0545
ElecMinimize: Iter:  22  F: -3936.446261768169734  |grad|_K:  4.136e-08  alpha:  5.400e-01  linmin: -1.372e-06  t[s]:  17101.17
	Linear fluid (dielectric constant: 78.4, screening length: 8.12261 Bohr) occupying 0.542833 of unit cell:	Completed after 2 iterations at t[s]:  17158.94
	Linear fluid (dielectric constant: 78.4, screening length: 8.12261 Bohr) occupying 0.542832 of unit cell:	Completed after 0 iterations at t[s]:  17200.40
	FillingsUpdate:  mu: -0.196318672  nElectrons: 714.000000  magneticMoment: [ Abs: 0.00006  Tot: +0.00005 ]
	SubspaceRotationAdjust: set factor to 0.0547
ElecMinimize: Iter:  23  F: -3936.446262208926328  |grad|_K:  3.835e-08  alpha:  5.154e-01  linmin:  1.369e-06  t[s]:  17259.83
	Linear fluid (dielectric constant: 78.4, screening length: 8.12261 Bohr) occupying 0.542834 of unit cell:	Completed after 3 iterations at t[s]:  17317.95
	Linear fluid (dielectric constant: 78.4, screening length: 8.12261 Bohr) occupying 0.542834 of unit cell:	Completed after 0 iterations at t[s]:  17359.09
	FillingsUpdate:  mu: -0.196283650  nElectrons: 714.000000  magneticMoment: [ Abs: 0.00005  Tot: +0.00005 ]
	SubspaceRotationAdjust: set factor to 0.056
ElecMinimize: Iter:  24  F: -3936.446262553471115  |grad|_K:  3.230e-08  alpha:  4.826e-01  linmin:  1.122e-06  t[s]:  17418.71
	Linear fluid (dielectric constant: 78.4, screening length: 8.12261 Bohr) occupying 0.542834 of unit cell:	Completed after 2 iterations at t[s]:  17476.58
	Linear fluid (dielectric constant: 78.4, screening length: 8.12261 Bohr) occupying 0.542834 of unit cell:	Completed after 0 iterations at t[s]:  17518.41
	FillingsUpdate:  mu: -0.196270367  nElectrons: 714.000000  magneticMoment: [ Abs: 0.00005  Tot: +0.00005 ]
	SubspaceRotationAdjust: set factor to 0.0658
ElecMinimize: Iter:  25  F: -3936.446262820167249  |grad|_K:  2.756e-08  alpha:  5.239e-01  linmin: -2.898e-06  t[s]:  17577.98
	Linear fluid (dielectric constant: 78.4, screening length: 8.12261 Bohr) occupying 0.542832 of unit cell:	Completed after 2 iterations at t[s]:  17635.84
	Linear fluid (dielectric constant: 78.4, screening length: 8.12261 Bohr) occupying 0.542832 of unit cell:	Completed after 0 iterations at t[s]:  17677.31
	FillingsUpdate:  mu: -0.196297152  nElectrons: 714.000000  magneticMoment: [ Abs: 0.00005  Tot: +0.00005 ]
	SubspaceRotationAdjust: set factor to 0.0732
ElecMinimize: Iter:  26  F: -3936.446263014904616  |grad|_K:  2.441e-08  alpha:  5.097e-01  linmin: -3.474e-06  t[s]:  17736.82
	Linear fluid (dielectric constant: 78.4, screening length: 8.12261 Bohr) occupying 0.542830 of unit cell:	Completed after 2 iterations at t[s]:  17794.84
	Linear fluid (dielectric constant: 78.4, screening length: 8.12261 Bohr) occupying 0.542830 of unit cell:	Completed after 0 iterations at t[s]:  17836.26
	FillingsUpdate:  mu: -0.196288158  nElectrons: 714.000000  magneticMoment: [ Abs: 0.00005  Tot: +0.00005 ]
	SubspaceRotationAdjust: set factor to 0.0682
ElecMinimize: Iter:  27  F: -3936.446263148092839  |grad|_K:  2.481e-08  alpha:  4.403e-01  linmin:  1.607e-05  t[s]:  17895.83
	Linear fluid (dielectric constant: 78.4, screening length: 8.12261 Bohr) occupying 0.542827 of unit cell:	Completed after 2 iterations at t[s]:  17953.59
	Linear fluid (dielectric constant: 78.4, screening length: 8.12261 Bohr) occupying 0.542828 of unit cell:	Completed after 0 iterations at t[s]:  17995.10
	FillingsUpdate:  mu: -0.196293527  nElectrons: 714.000000  magneticMoment: [ Abs: 0.00005  Tot: +0.00005 ]
	SubspaceRotationAdjust: set factor to 0.0523
ElecMinimize: Iter:  28  F: -3936.446263236039613  |grad|_K:  2.399e-08  alpha:  2.987e-01  linmin:  5.558e-05  t[s]:  18054.74
	Linear fluid (dielectric constant: 78.4, screening length: 8.12261 Bohr) occupying 0.542826 of unit cell:	Completed after 3 iterations at t[s]:  18113.34
	Linear fluid (dielectric constant: 78.4, screening length: 8.12261 Bohr) occupying 0.542826 of unit cell:	Completed after 0 iterations at t[s]:  18154.57
	FillingsUpdate:  mu: -0.196312517  nElectrons: 714.000000  magneticMoment: [ Abs: 0.00005  Tot: +0.00005 ]
	SubspaceRotationAdjust: set factor to 0.0391
ElecMinimize: Iter:  29  F: -3936.446263283537064  |grad|_K:  1.650e-08  alpha:  2.140e-01  linmin: -3.613e-05  t[s]:  18214.14
ElecMinimize: Converged (|Delta F|<1.000000e-07 for 2 iters).
Setting wave functions to eigenvectors of Hamiltonian
Converging empty states (this may take a while): |deigs|: 1.364e-04
Single-point solvation energy estimate, DeltaF = -0.008547266178539

Computing DFT-D3 correction:
# coordination-number Pt 5.992 6.886 5.961 6.879 5.954 5.954 5.954 5.954 7.677 7.677 7.677 7.677 9.494 9.494 9.494 9.494 9.262 9.261 9.262 9.261 9.597 9.597 9.597 9.597 9.519 9.519 9.519 9.519 9.598 9.598 9.598 9.598 9.264 9.265 9.264 9.265 9.502 9.499 9.499 9.499 7.681 8.709 7.681 7.717
# coordination-number C 3.832
# coordination-number O 1.147
# diagonal-C6 Pt 336.87 336.87 336.87 336.87 336.87 336.87 336.87 336.87 336.87 336.87 336.87 336.87 336.87 336.87 336.87 336.87 336.87 336.87 336.87 336.87 336.87 336.87 336.87 336.87 336.87 336.87 336.87 336.87 336.87 336.87 336.87 336.87 336.87 336.87 336.87 336.87 336.87 336.87 336.87 336.87 336.87 336.87 336.87 336.87
# diagonal-C6 C 18.64
# diagonal-C6 O 12.67
EvdW_6 =   -0.391243
EvdW_8 =   -0.631211

# Ionic positions in cartesian coordinates:
ion Pt   5.241340000000000   0.218295000000000  23.220851000000003 0
ion Pt   2.625348000000001   8.894560000000000  23.220851000000003 0
ion Pt   0.009344000000000   0.218295000000000  23.220851000000003 0
ion Pt  -2.606647000000000   8.894560000000000  23.220851000000003 0
ion Pt  -0.009459000000000   4.514096000000000   1.317516000000000 0
ion Pt  -2.625445999999999  13.190378999999998   1.317516000000000 0
ion Pt   5.222547000000000   4.514096000000000   1.317516000000000 0
ion Pt   2.606540000000002  13.190378999999998   1.317516000000000 0
ion Pt   2.606795000000000   0.560262000000000   3.078081000000000 0
ion Pt  -0.009207000000000   9.236561999999999   3.078081000000000 0
ion Pt   7.838791000000000   0.560262000000000   3.078081000000000 0
ion Pt   5.222789000000000   9.236561999999999   3.078081000000000 0
ion Pt   2.609997000000000   5.509561000000000   5.634781000000000 0
ion Pt  -0.006004999999998  14.185860999999997   5.634781000000000 0
ion Pt   7.841993000000000   5.509561000000000   5.634781000000000 0
ion Pt   5.225991000000001  14.185860999999997   5.634781000000000 0
ion Pt  -0.003359000000000   1.572871000000000   7.779941000000001 0
ion Pt  -2.619355999999999  10.249154000000001   7.779941000000001 0
ion Pt   5.228637000000000   1.572871000000000   7.779941000000001 0
ion Pt   2.612640000000000  10.249154000000001   7.779941000000001 0
ion Pt  -0.002505000000000   6.318328999999999  10.051066000000002 0
[...]
	Linear fluid (dielectric constant: 78.4, screening length: 8.12261 Bohr) occupying 0.541128 of unit cell:	Completed after 6 iterations at t[s]:  66016.23
	Linear fluid (dielectric constant: 78.4, screening length: 8.12261 Bohr) occupying 0.541128 of unit cell:	Completed after 2 iterations at t[s]:  66058.95
	FillingsUpdate:  mu: -0.197312407  nElectrons: 714.000000  magneticMoment: [ Abs: 0.00000  Tot: +0.00000 ]
	SubspaceRotationAdjust: set factor to 0.0599
ElecMinimize: Iter:   4  F: -3936.456925242036505  |grad|_K:  3.200e-08  alpha:  1.765e-01  linmin:  1.056e-03  t[s]:  66118.59
	Linear fluid (dielectric constant: 78.4, screening length: 8.12261 Bohr) occupying 0.541128 of unit cell:	Completed after 2 iterations at t[s]:  66176.92
	Linear fluid (dielectric constant: 78.4, screening length: 8.12261 Bohr) occupying 0.541128 of unit cell:	Completed after 2 iterations at t[s]:  66219.50
	FillingsUpdate:  mu: -0.197368920  nElectrons: 714.000000  magneticMoment: [ Abs: 0.00000  Tot: +0.00000 ]
	SubspaceRotationAdjust: set factor to 0.0483
ElecMinimize: Iter:   5  F: -3936.456925360561854  |grad|_K:  1.922e-08  alpha:  2.473e-01  linmin: -2.155e-03  t[s]:  66279.10
	Linear fluid (dielectric constant: 78.4, screening length: 8.12261 Bohr) occupying 0.541128 of unit cell:	Completed after 0 iterations at t[s]:  66336.67
	Linear fluid (dielectric constant: 78.4, screening length: 8.12261 Bohr) occupying 0.541128 of unit cell:	Completed after 2 iterations at t[s]:  66379.82
	FillingsUpdate:  mu: -0.197353877  nElectrons: 714.000000  magneticMoment: [ Abs: 0.00000  Tot: +0.00000 ]
	SubspaceRotationAdjust: set factor to 0.0532
ElecMinimize: Iter:   6  F: -3936.456925443682394  |grad|_K:  1.869e-08  alpha:  5.899e-01  linmin:  5.113e-03  t[s]:  66439.34
	Linear fluid (dielectric constant: 78.4, screening length: 8.12261 Bohr) occupying 0.541129 of unit cell:	Completed after 3 iterations at t[s]:  66497.90
	Linear fluid (dielectric constant: 78.4, screening length: 8.12261 Bohr) occupying 0.541129 of unit cell:	Completed after 1 iterations at t[s]:  66540.58
	FillingsUpdate:  mu: -0.197314325  nElectrons: 714.000000  magneticMoment: [ Abs: 0.00000  Tot: +0.00000 ]
	SubspaceRotationAdjust: set factor to 0.0511
ElecMinimize: Iter:   7  F: -3936.456925482204952  |grad|_K:  1.688e-08  alpha:  3.090e-01  linmin:  1.450e-03  t[s]:  66600.12
ElecMinimize: Converged (|Delta F|<1.000000e-07 for 2 iters).
Setting wave functions to eigenvectors of Hamiltonian
Converging empty states (this may take a while): |deigs|: 6.922e-10

Computing DFT-D3 correction:
# coordination-number Pt 5.987 6.807 5.960 6.804 5.954 5.954 5.954 5.954 7.677 7.677 7.677 7.677 9.494 9.494 9.494 9.494 9.261 9.261 9.261 9.261 9.597 9.597 9.597 9.597 9.519 9.519 9.519 9.519 9.598 9.598 9.598 9.598 9.264 9.265 9.264 9.265 9.501 9.499 9.498 9.499 7.681 8.681 7.681 7.709
# coordination-number C 3.692
# coordination-number O 1.085
# diagonal-C6 Pt 336.87 336.87 336.87 336.87 336.87 336.87 336.87 336.87 336.87 336.87 336.87 336.87 336.87 336.87 336.87 336.87 336.87 336.87 336.87 336.87 336.87 336.87 336.87 336.87 336.87 336.87 336.87 336.87 336.87 336.87 336.87 336.87 336.87 336.87 336.87 336.87 336.87 336.87 336.87 336.87 336.87 336.87 336.87 336.87
# diagonal-C6 C 19.37
# diagonal-C6 O 12.74
EvdW_6 =   -0.391125
EvdW_8 =   -0.631160
IonicMinimize: 	Wolfe criterion not satisfied: alpha: 3  (E-E0)/|gdotd0|: 0.224355  gdotd/gdotd0: -0.460542 (taking cubic step)

Computing DFT-D3 correction:
# coordination-number Pt 5.987 6.807 5.960 6.804 5.954 5.954 5.954 5.954 7.677 7.677 7.677 7.677 9.494 9.494 9.494 9.494 9.261 9.261 9.261 9.261 9.597 9.597 9.597 9.597 9.519 9.519 9.519 9.519 9.598 9.598 9.598 9.598 9.264 9.265 9.264 9.265 9.501 9.499 9.498 9.499 7.681 8.681 7.681 7.709
# coordination-number C 3.693
# coordination-number O 1.085
# diagonal-C6 Pt 336.87 336.87 336.87 336.87 336.87 336.87 336.87 336.87 336.87 336.87 336.87 336.87 336.87 336.87 336.87 336.87 336.87 336.87 336.87 336.87 336.87 336.87 336.87 336.87 336.87 336.87 336.87 336.87 336.87 336.87 336.87 336.87 336.87 336.87 336.87 336.87 336.87 336.87 336.87 336.87 336.87 336.87 336.87 336.87
# diagonal-C6 C 19.36
# diagonal-C6 O 12.74
EvdW_6 =   -0.391125
EvdW_8 =   -0.631160

-------- Electronic minimization -----------
	Linear fluid (dielectric constant: 78.4, screening length: 8.12261 Bohr) occupying 0.541127 of unit cell:	Completed after 14 iterations at t[s]:  66838.22
	FillingsUpdate:  mu: -0.199858079  nElectrons: 714.000000  magneticMoment: [ Abs: 0.00000  Tot: +0.00000 ]
ElecMinimize: Iter:   0  F: -3936.456861512921023  |grad|_K:  8.812e-07  alpha:  1.000e+00
	Linear fluid (dielectric constant: 78.4, screening length: 8.12261 Bohr) occupying 0.541184 of unit cell:	Completed after 22 iterations at t[s]:  66970.88
	Linear fluid (dielectric constant: 78.4, screening length: 8.12261 Bohr) occupying 0.541135 of unit cell:	Completed after 21 iterations at t[s]:  67019.91
	FillingsUpdate:  mu: -0.197565770  nElectrons: 714.000000  magneticMoment: [ Abs: 0.00000  Tot: +0.00000 ]
	SubspaceRotationAdjust: set factor to 0.0475
ElecMinimize: Iter:   1  F: -3936.456920925243594  |grad|_K:  1.546e-07  alpha:  1.557e-01  linmin:  3.710e-04  t[s]:  67079.53
	Linear fluid (dielectric constant: 78.4, screening length: 8.12261 Bohr) occupying 0.541134 of unit cell:	Completed after 8 iterations at t[s]:  67139.59
	Linear fluid (dielectric constant: 78.4, screening length: 8.12261 Bohr) occupying 0.541134 of unit cell:	Completed after 6 iterations at t[s]:  67183.39
	FillingsUpdate:  mu: -0.197226153  nElectrons: 714.000000  magneticMoment: [ Abs: 0.00000  Tot: +0.00000 ]
	SubspaceRotationAdjust: set factor to 0.0335
ElecMinimize: Iter:   2  F: -3936.456923665322392  |grad|_K:  7.952e-08  alpha:  2.352e-01  linmin:  1.799e-03  t[s]:  67242.90
	Linear fluid (dielectric constant: 78.4, screening length: 8.12261 Bohr) occupying 0.541134 of unit cell:	Completed after 2 iterations at t[s]:  67301.24
	Linear fluid (dielectric constant: 78.4, screening length: 8.12261 Bohr) occupying 0.541135 of unit cell:	Completed after 2 iterations at t[s]:  67343.82
	FillingsUpdate:  mu: -0.197323864  nElectrons: 714.000000  magneticMoment: [ Abs: 0.00000  Tot: +0.00000 ]
	SubspaceRotationAdjust: set factor to 0.0406
ElecMinimize: Iter:   3  F: -3936.456924777078711  |grad|_K:  4.138e-08  alpha:  3.633e-01  linmin: -7.812e-04  t[s]:  67403.34
	Linear fluid (dielectric constant: 78.4, screening length: 8.12261 Bohr) occupying 0.541135 of unit cell:	Completed after 3 iterations at t[s]:  67462.26
	Linear fluid (dielectric constant: 78.4, screening length: 8.12261 Bohr) occupying 0.541135 of unit cell:	Completed after 0 iterations at t[s]:  67504.05
	FillingsUpdate:  mu: -0.197343700  nElectrons: 714.000000  magneticMoment: [ Abs: 0.00000  Tot: +0.00000 ]
	SubspaceRotationAdjust: set factor to 0.0443
ElecMinimize: Iter:   4  F: -3936.456925161920935  |grad|_K:  3.017e-08  alpha:  4.477e-01  linmin: -1.049e-02  t[s]:  67563.57
	Linear fluid (dielectric constant: 78.4, screening length: 8.12261 Bohr) occupying 0.541135 of unit cell:	Completed after 2 iterations at t[s]:  67622.06
	Linear fluid (dielectric constant: 78.4, screening length: 8.12261 Bohr) occupying 0.541135 of unit cell:	Completed after 0 iterations at t[s]:  67663.92
	FillingsUpdate:  mu: -0.197310867  nElectrons: 714.000000  magneticMoment: [ Abs: 0.00000  Tot: +0.00000 ]
	SubspaceRotationAdjust: set factor to 0.0432
ElecMinimize: Iter:   5  F: -3936.456925386509738  |grad|_K:  2.149e-08  alpha:  4.638e-01  linmin: -4.404e-04  t[s]:  67723.34
	Linear fluid (dielectric constant: 78.4, screening length: 8.12261 Bohr) occupying 0.541135 of unit cell:	Completed after 2 iterations at t[s]:  67781.73
	Linear fluid (dielectric constant: 78.4, screening length: 8.12261 Bohr) occupying 0.541135 of unit cell:	Completed after 0 iterations at t[s]:  67823.40
	FillingsUpdate:  mu: -0.197299759  nElectrons: 714.000000  magneticMoment: [ Abs: 0.00000  Tot: +0.00000 ]
	SubspaceRotationAdjust: set factor to 0.0509
ElecMinimize: Iter:   6  F: -3936.456925498097007  |grad|_K:  1.535e-08  alpha:  4.894e-01  linmin: -2.095e-03  t[s]:  67882.98
	Linear fluid (dielectric constant: 78.4, screening length: 8.12261 Bohr) occupying 0.541135 of unit cell:	Completed after 2 iterations at t[s]:  67941.38
	Linear fluid (dielectric constant: 78.4, screening length: 8.12261 Bohr) occupying 0.541135 of unit cell:	Completed after 0 iterations at t[s]:  67983.06
	FillingsUpdate:  mu: -0.197309123  nElectrons: 714.000000  magneticMoment: [ Abs: 0.00000  Tot: +0.00000 ]
	SubspaceRotationAdjust: set factor to 0.054
ElecMinimize: Iter:   7  F: -3936.456925545547165  |grad|_K:  1.217e-08  alpha:  4.030e-01  linmin: -4.167e-04  t[s]:  68042.66
	Linear fluid (dielectric constant: 78.4, screening length: 8.12261 Bohr) occupying 0.541134 of unit cell:	Completed after 0 iterations at t[s]:  68100.45
	Linear fluid (dielectric constant: 78.4, screening length: 8.12261 Bohr) occupying 0.541134 of unit cell:	Completed after 0 iterations at t[s]:  68142.51
	FillingsUpdate:  mu: -0.197308947  nElectrons: 714.000000  magneticMoment: [ Abs: 0.00000  Tot: +0.00000 ]
	SubspaceRotationAdjust: set factor to 0.0662
ElecMinimize: Iter:   8  F: -3936.456925580526786  |grad|_K:  1.116e-08  alpha:  4.964e-01  linmin: -1.073e-03  t[s]:  68202.25
ElecMinimize: Converged (|Delta F|<1.000000e-07 for 2 iters).
Setting wave functions to eigenvectors of Hamiltonian
Converging empty states (this may take a while): |deigs|: 5.524e-10

Computing DFT-D3 correction:
# coordination-number Pt 5.987 6.807 5.960 6.804 5.954 5.954 5.954 5.954 7.677 7.677 7.677 7.677 9.494 9.494 9.494 9.494 9.261 9.261 9.261 9.261 9.597 9.597 9.597 9.597 9.519 9.519 9.519 9.519 9.598 9.598 9.598 9.598 9.264 9.265 9.264 9.265 9.501 9.499 9.498 9.499 7.681 8.681 7.681 7.709
# coordination-number C 3.693
# coordination-number O 1.085
# diagonal-C6 Pt 336.87 336.87 336.87 336.87 336.87 336.87 336.87 336.87 336.87 336.87 336.87 336.87 336.87 336.87 336.87 336.87 336.87 336.87 336.87 336.87 336.87 336.87 336.87 336.87 336.87 336.87 336.87 336.87 336.87 336.87 336.87 336.87 336.87 336.87 336.87 336.87 336.87 336.87 336.87 336.87 336.87 336.87 336.87 336.87
# diagonal-C6 C 19.36
# diagonal-C6 O 12.74
EvdW_6 =   -0.391125
EvdW_8 =   -0.631160

# Ionic positions in cartesian coordinates:
ion Pt   5.241340000000000   0.218295000000000  23.220851000000003 0
ion Pt   2.625348000000001   8.894560000000000  23.220851000000003 0
ion Pt   0.009344000000000   0.218295000000000  23.220851000000003 0
ion Pt  -2.606647000000000   8.894560000000000  23.220851000000003 0
ion Pt  -0.009459000000000   4.514096000000000   1.317516000000000 0
ion Pt  -2.625445999999999  13.190378999999998   1.317516000000000 0
ion Pt   5.222547000000000   4.514096000000000   1.317516000000000 0
ion Pt   2.606540000000002  13.190378999999998   1.317516000000000 0
ion Pt   2.606795000000000   0.560262000000000   3.078081000000000 0
ion Pt  -0.009207000000000   9.236561999999999   3.078081000000000 0
ion Pt   7.838791000000000   0.560262000000000   3.078081000000000 0
ion Pt   5.222789000000000   9.236561999999999   3.078081000000000 0
ion Pt   2.609997000000000   5.509561000000000   5.634781000000000 0
ion Pt  -0.006004999999998  14.185860999999997   5.634781000000000 0
ion Pt   7.841993000000000   5.509561000000000   5.634781000000000 0
ion Pt   5.225991000000001  14.185860999999997   5.634781000000000 0
ion Pt  -0.003359000000000   1.572871000000000   7.779941000000001 0
ion Pt  -2.619355999999999  10.249154000000001   7.779941000000001 0
ion Pt   5.228637000000000   1.572871000000000   7.779941000000001 0
ion Pt   2.612640000000000  10.249154000000001   7.779941000000001 0
ion Pt  -0.002505000000000   6.318328999999999  10.051066000000002 0
ion Pt  -2.618501999999999  14.994611999999998  10.051066000000002 0
ion Pt   5.229490000000001   6.318328999999999  10.051066000000002 0
ion Pt   2.613493000000001  14.994611999999998  10.051066000000002 0
ion Pt   2.616171000000000   2.366906999999999  12.270803000000001 0
ion Pt   0.000174000000001  11.043189999999997  12.270803000000001 0
ion Pt   7.848167000000002   2.366906999999999  12.270803000000001 0
ion Pt   5.232170000000000  11.043189999999997  12.270803000000001 0
ion Pt   2.618583000000000   7.091334000000000  14.490026000000002 0
ion Pt   0.002581000000000  15.767633999999997  14.490026000000002 0
ion Pt   7.850579000000000   7.091334000000000  14.490026000000002 0
ion Pt   5.234577000000002  15.767633999999997  14.490026000000002 0
ion Pt   0.003506000000000   3.159276999999999  16.761077000000000 0
ion Pt  -2.612480999999999  11.835559999999999  16.761077000000000 0
ion Pt   5.235502000000000   3.159276999999999  16.761077000000000 0
ion Pt   2.619515000000000  11.835559999999999  16.761077000000000 0
ion Pt   0.005971000000000   7.898454000000000  18.905721000000000 0
ion Pt  -2.610025999999999  16.574736000000001  18.905721000000000 0
ion Pt   5.237966000000002   7.898454000000000  18.905721000000000 0
ion Pt   2.621969000000001  16.574736000000001  18.905721000000000 0
ion Pt   2.624935000000000   4.172007999999999  21.461684999999999 0
ion Pt   0.008938000000001  12.848289999999999  21.461684999999999 0
ion Pt   7.856931000000001   4.172007999999999  21.461684999999999 0
ion Pt   5.240934000000001  12.848289999999999  21.461684999999999 0
ion C   0.009346000000001  11.786659999999999  25.050283157736136 1  Linear 0 0 1
ion O   0.069440000000001  11.786659999999999  27.289125843843500 1  Linear 0 0 1

# Forces in Cartesian coordinates:
force Pt  -0.000052391296219   0.009803845183843   0.001306600677419 0
force Pt   0.007660766657413  -0.006741901167157   0.006730778440857 0
force Pt  -0.000001063049838   0.000015101135007   0.002000972144217 0
force Pt  -0.007120280700812  -0.005600073815550   0.007889156546792 0
force Pt  -0.000036518091105   0.000080790405171  -0.000636867457765 0
force Pt   0.000043192072684  -0.000024807889919  -0.000913356239440 0
force Pt  -0.000023329729739   0.000021969132689  -0.000159945599561 0
force Pt  -0.000037416738839  -0.000179295496826  -0.000819596932775 0
force Pt  -0.000047023316421  -0.000373088763457   0.000341434105330 0
force Pt   0.000228948787710   0.000127988407496   0.000185346282947 0
force Pt   0.000515595165258  -0.000319964035426   0.000343953096053 0
force Pt   0.000130667783977   0.000418609707480  -0.000013373982379 0
force Pt  -0.000298531230574  -0.000618279728230  -0.000201032063718 0
force Pt  -0.000175435881708  -0.000367771262685  -0.000493263367661 0
force Pt   0.000235218402202  -0.000637698671999  -0.000184478256409 0
force Pt  -0.000082755503398  -0.000824944081209   0.000501540302192 0
force Pt  -0.000115058978667   0.000741385998069  -0.000495476637373 0
force Pt   0.001039172807054   0.000420498571776  -0.000783012508708 0
force Pt   0.000139549355244   0.000337253314059   0.000283875833462 0
force Pt  -0.000902708675847   0.000514381458895  -0.000558575249935 0
force Pt   0.000200415175301   0.000311581361980  -0.001298158587982 0
force Pt  -0.000020533129286   0.000403761100999   0.000300032850704 0
force Pt  -0.000038982760641   0.001056910975525   0.000163408303973 0
force Pt   0.000392709129824   0.000295260193555   0.000036917670162 0
force Pt  -0.000029182642787   0.000156002221174   0.000356954357172 0
force Pt   0.000099252714417   0.000104868319204   0.001099510335969 0
force Pt   0.000145897278099   0.000345663807529   0.000444101480714 0
force Pt  -0.000073957846041  -0.000248483550889  -0.000643562173147 0
force Pt  -0.000200020646428  -0.000895004188927  -0.001356966726591 0
force Pt  -0.000284638963243  -0.000172887244788  -0.000451210085781 0
force Pt  -0.000074107405097  -0.000712355764267  -0.001128565934377 0
force Pt  -0.000293870375033  -0.001105634530922   0.000288820647425 0
force Pt   0.000105291668585   0.000006181686986  -0.000586690083849 0
force Pt   0.001174636457660  -0.000655422602832   0.000723253261011 0
force Pt   0.000145757493899  -0.000164175360730  -0.000027094352181 0
force Pt  -0.001100844899200  -0.000710284406738   0.000981313087853 0
force Pt  -0.000024911910905  -0.003235710272746  -0.005311478790821 0
force Pt  -0.001340859951333   0.001914071676728  -0.002317133736247 0
force Pt   0.000115584155171   0.001163017412803   0.001558567028326 0
force Pt   0.001267902370553   0.001923953927390  -0.002284587003567 0
force Pt  -0.000074982120610  -0.001235279355941  -0.001794009645622 0
force Pt  -0.000045243465834   0.016412073470361   0.006293148197108 0
force Pt  -0.000497319978618  -0.001192111418626  -0.001810841542219 0
force Pt  -0.000141141170940   0.005386507632439  -0.008166965908750 0
force C   0.000435531543642  -0.036357337591850   0.000088470656543 1  Linear 0 0 1
force O  -0.000991578806533   0.020333045855419  -0.000067288107712 1  Linear 0 0 1

# Energy components:
   A_diel =       -0.0095363431511277
   Eewald =    43910.9206508000934264
       EH =    47478.3189576113436488
     Eloc =   -96013.0433452819852391
      Enl =      -43.3067544632796455
     EvdW =       -1.0222843889430757
      Exc =    -1257.2279758617587504
 Exc_core =      721.3195258057419323
       KE =     1267.6014508825728626
-------------------------------------
     Etot =    -3936.4493112393683987
       TS =        0.0076143411584209
-------------------------------------
        F =    -3936.4569255805267858


Dumping 'jdft.fillings' ... done
Dumping 'jdft.wfns' ... done
Dumping 'jdft.fluidState' ... done
Dumping 'jdft.ionpos' ... done
Dumping 'jdft.lattice' ... done
Dumping 'jdft.eigenvals' ... done
Dumping 'jdft.eigStats' ... 
	eMin: -2.166472 at state 0 ( [ +0.000000 +0.000000 +0.000000 ] spin 1 )
	HOMO: -0.197331 at state 17 ( [ +0.333333 -0.333333 +0.000000 ] spin -1 )
	mu  : -0.197309
	LUMO: -0.197251 at state 2 ( [ +0.166667 +0.000000 +0.000000 ] spin 1 )
	eMax: +0.084876 at state 15 ( [ +0.333333 +0.000000 +0.000000 ] spin -1 )
	HOMO-LUMO gap: +0.000080
	Optical gap  : +0.000464 at state 12 ( [ +0.166667 +0.000000 +0.000000 ] spin -1 )
Dumping 'jdft.Ecomponents' ... done
IonicMinimize: Iter:   9  F: -3936.456925580526786  |grad|_K:  7.860e-05  alpha:  1.359e+00  linmin: -7.597e-04  t[s]:  68368.92
IonicMinimize: Converged (|grad|_K<1.000000e-04).

#--- Lowdin population analysis ---
# oxidation-state Pt +0.043 +0.008 +0.063 +0.007 +0.068 +0.067 +0.070 +0.068 -0.016 -0.015 -0.016 -0.014 -0.012 -0.013 -0.012 -0.013 +0.010 +0.009 +0.010 +0.009 +0.011 +0.010 +0.011 +0.010 +0.011 +0.013 +0.011 +0.005 +0.008 +0.009 +0.009 +0.011 +0.010 -0.001 +0.012 -0.001 -0.009 -0.017 -0.027 -0.017 -0.021 -0.063 -0.021 -0.016
# magnetic-moments Pt +0.000 +0.000 +0.000 +0.000 +0.000 +0.000 +0.000 +0.000 +0.000 +0.000 +0.000 +0.000 +0.000 +0.000 +0.000 +0.000 +0.000 +0.000 +0.000 +0.000 +0.000 +0.000 +0.000 +0.000 +0.000 +0.000 +0.000 +0.000 +0.000 +0.000 +0.000 +0.000 +0.000 +0.000 +0.000 +0.000 +0.000 +0.000 +0.000 +0.000 +0.000 +0.000 +0.000 +0.000
# oxidation-state C +0.423
# magnetic-moments C -0.000
# oxidation-state O -0.139
# magnetic-moments O +0.000


Dumping 'jdft.n_up' ... done
Dumping 'jdft.n_dn' ... done
Dumping 'jdft.tau_up' ... done
Dumping 'jdft.tau_dn' ... done
Dumping 'jdft.eigenvals' ... done
Dumping 'jdft.eigStats' ... 
	eMin: -2.166472 at state 0 ( [ +0.000000 +0.000000 +0.000000 ] spin 1 )
	HOMO: -0.197331 at state 17 ( [ +0.333333 -0.333333 +0.000000 ] spin -1 )
	mu  : -0.197309
	LUMO: -0.197251 at state 2 ( [ +0.166667 +0.000000 +0.000000 ] spin 1 )
	eMax: +0.084876 at state 15 ( [ +0.333333 +0.000000 +0.000000 ] spin -1 )
	HOMO-LUMO gap: +0.000080
	Optical gap  : +0.000464 at state 12 ( [ +0.166667 +0.000000 +0.000000 ] spin -1 )
Dumping 'jdft.kPts' ... done
Dumping 'jdft.kMap' ... done
Dumping 'jdft.dosUp' ... done.
Dumping 'jdft.dosDn' ... done.
End date and time: Thu Feb 17 22:58:11 2022  (Duration: 0-19:01:00.77)
Done!
