
*************** JDFTx 1.6.0  ***************

Start date and time: Mon Dec  6 17:15:34 2021
Executable /projects/musgravc/apps/jdftx-1.6.1/build/jdftx with command-line: -i in
Running on hosts (process indices):  shas0123.rc.int.colorado.edu (0-23)
Divided in process groups (process indices):  0 (0)  1 (1)  2 (2)  3 (3)  4 (4)  5 (5)  6 (6)  7 (7)  8 (8)  9 (9)  10 (10)  11 (11)  12 (12)  13 (13)  14 (14)  15 (15)  16 (16)  17 (17)  18 (18)  19 (19)  20 (20)  21 (21)  22 (22)  23 (23)
Resource initialization completed at t[s]:      0.00
Run totals: 24 processes, 24 threads, 0 GPUs


Input parsed successfully to the following command list (including defaults):

basis kpoint-dependent
converge-empty-states yes
coords-type Cartesian
core-overlap-check none
coulomb-interaction Periodic
davidson-band-ratio 1.1
density-of-states Etol 1.000000e-06 Esigma 1.000000e-03 \
		Complete \
	Total \
	OrthoOrbital Ag 1   s \
	OrthoOrbital Ag 1   p \
	OrthoOrbital Ag 1   px \
	OrthoOrbital Ag 1   py \
	OrthoOrbital Ag 1   pz \
	OrthoOrbital Ag 1   d \
	OrthoOrbital Ag 1   dxy \
	OrthoOrbital Ag 1   dyz \
	OrthoOrbital Ag 1   dz2 \
	OrthoOrbital Ag 1   dxz \
	OrthoOrbital Ag 1   dx2-y2 \
	OrthoOrbital Ag 2   s \
	OrthoOrbital Ag 2   p \
	OrthoOrbital Ag 2   px \
	OrthoOrbital Ag 2   py \
	OrthoOrbital Ag 2   pz \
	OrthoOrbital Ag 2   d \
	OrthoOrbital Ag 2   dxy \
	OrthoOrbital Ag 2   dyz \
	OrthoOrbital Ag 2   dz2 \
	OrthoOrbital Ag 2   dxz \
	OrthoOrbital Ag 2   dx2-y2 \
	OrthoOrbital Ag 3   s \
	OrthoOrbital Ag 3   p \
	OrthoOrbital Ag 3   px \
	OrthoOrbital Ag 3   py \
	OrthoOrbital Ag 3   pz \
	OrthoOrbital Ag 3   d \
	OrthoOrbital Ag 3   dxy \
	OrthoOrbital Ag 3   dyz \
	OrthoOrbital Ag 3   dz2 \
	OrthoOrbital Ag 3   dxz \
	OrthoOrbital Ag 3   dx2-y2 \
	OrthoOrbital Ag 4   s \
	OrthoOrbital Ag 4   p \
	OrthoOrbital Ag 4   px \
	OrthoOrbital Ag 4   py \
	OrthoOrbital Ag 4   pz \
	OrthoOrbital Ag 4   d \
	OrthoOrbital Ag 4   dxy \
	OrthoOrbital Ag 4   dyz \
	OrthoOrbital Ag 4   dz2 \
	OrthoOrbital Ag 4   dxz \
	OrthoOrbital Ag 4   dx2-y2
dump End ElecDensity KEdensity BandEigs EigStats RhoAtom DOS Kpoints
dump Ionic State IonicPositions Lattice EigStats Ecomponents
dump 
dump 
dump 
dump 
dump 
dump 
dump 
dump 
dump-name jdft.$VAR
elec-cutoff 20
elec-eigen-algo Davidson
elec-ex-corr gga-PBE
elec-initial-magnetization 0.000000 no
elec-n-bands 48
elec-smearing Fermi 0.001
electronic-minimize  \
	dirUpdateScheme      FletcherReeves \
	linminMethod         DirUpdateRecommended \
	nIterations          100 \
	history              15 \
	knormThreshold       0 \
	energyDiffThreshold  1e-07 \
	nEnergyDiff          2 \
	alphaTstart          1 \
	alphaTmin            1e-10 \
	updateTestStepSize   yes \
	alphaTreduceFactor   0.1 \
	alphaTincreaseFactor 3 \
	nAlphaAdjustMax      3 \
	wolfeEnergy          0.0001 \
	wolfeGradient        0.9 \
	fdTest               no
exchange-regularization WignerSeitzTruncated
fluid LinearPCM 298.000000 1.013250
fluid-anion F- 0.5 MeanFieldLJ \
	epsBulk 1 \
	pMol 0 \
	epsInf 1 \
	Pvap 0 \
	sigmaBulk 0 \
	Rvdw 2.24877 \
	Res 0 \
	tauNuc 343133
fluid-cation Na+ 0.5 MeanFieldLJ \
	epsBulk 1 \
	pMol 0 \
	epsInf 1 \
	Pvap 0 \
	sigmaBulk 0 \
	Rvdw 2.19208 \
	Res 0 \
	tauNuc 343133
fluid-ex-corr lda-TF lda-PZ
fluid-gummel-loop 10 1.000000e-05
fluid-minimize  \
	dirUpdateScheme      PolakRibiere \
	linminMethod         DirUpdateRecommended \
	nIterations          400 \
	history              15 \
	knormThreshold       1e-11 \
	energyDiffThreshold  0 \
	nEnergyDiff          2 \
	alphaTstart          1 \
	alphaTmin            1e-10 \
	updateTestStepSize   yes \
	alphaTreduceFactor   0.1 \
	alphaTincreaseFactor 3 \
	nAlphaAdjustMax      6 \
	wolfeEnergy          0.0001 \
	wolfeGradient        0.9 \
	fdTest               no
fluid-solvent H2O 55.338 ScalarEOS \
	epsBulk 78.4 \
	pMol 0.92466 \
	epsInf 1.77 \
	Pvap 1.06736e-10 \
	sigmaBulk 4.62e-05 \
	Rvdw 2.61727 \
	Res 1.42 \
	tauNuc 343133 \
	poleEl 15 7 1
forces-output-coords Positions
ion Ag   0.000000000000000   0.000000000000000  40.244759000000002 1
ion Ag   2.710223000000000   2.710223000000000  44.077578000000003 1
ion Ag   0.000000000000000   5.420446999999999  32.579075000000003 1
ion Ag   2.710223000000000   2.710223000000000  36.411940000000001 1
ion-species /projects/musgravc/apps/jdftx-1.6.0/build/pseudopotentials/GBRV_v1.5/$ID_pbe_v1.uspp
ion-species /projects/musgravc/apps/jdftx-1.6.0/build/pseudopotentials/GBRV_v1.5/$ID_pbe_v1.2.uspp
ion-species /projects/musgravc/apps/jdftx-1.6.0/build/pseudopotentials/GBRV_v1.5/$ID_pbe_v1.4.uspp
ion-species /projects/musgravc/apps/jdftx-1.6.0/build/pseudopotentials/GBRV_v1.5/$ID_pbe_v1.5.uspp
ion-width Ecut
ionic-minimize  \
	dirUpdateScheme      L-BFGS \
	linminMethod         DirUpdateRecommended \
	nIterations          100 \
	history              15 \
	knormThreshold       0.0001 \
	energyDiffThreshold  1e-06 \
	nEnergyDiff          2 \
	alphaTstart          1 \
	alphaTmin            1e-10 \
	updateTestStepSize   yes \
	alphaTreduceFactor   0.1 \
	alphaTincreaseFactor 3 \
	nAlphaAdjustMax      3 \
	wolfeEnergy          0.0001 \
	wolfeGradient        0.9 \
	fdTest               no
kpoint   0.000000000000   0.000000000000   0.000000000000  1.00000000000000
kpoint-folding 12 12 1 
latt-move-scale 0 0 0
latt-scale 1 1 1 
lattice  \
	   5.420447000000000    0.000000000000000    0.000000000000000  \
	   0.000000000000000    5.420447000000000    0.000000000000000  \
	   0.000000000000000    0.000000000000000   45.994010000000003 
lattice-minimize  \
	dirUpdateScheme      L-BFGS \
	linminMethod         DirUpdateRecommended \
	nIterations          0 \
	history              15 \
	knormThreshold       0 \
	energyDiffThreshold  1e-06 \
	nEnergyDiff          2 \
	alphaTstart          1 \
	alphaTmin            1e-10 \
	updateTestStepSize   yes \
	alphaTreduceFactor   0.1 \
	alphaTincreaseFactor 3 \
	nAlphaAdjustMax      3 \
	wolfeEnergy          0.0001 \
	wolfeGradient        0.9 \
	fdTest               no
lcao-params 30 1e-06 0.001
pcm-variant CANDLE
spintype z-spin
subspace-rotation-factor 1 yes
symmetries none
symmetry-threshold 0.0001
van-der-waals D3


Applied RMS atom displacement 0 bohrs to make symmetries exact.

---------- Initializing the Grid ----------
R = 
[      5.42045            0            0  ]
[            0      5.42045            0  ]
[            0            0       45.994  ]
unit cell volume = 1351.36
G =
[    1.15916          0          0  ]
[          0    1.15916          0  ]
[          0          0   0.136609  ]
Minimum fftbox size, Smin = [  24  24  188  ]
Chosen fftbox size, S = [  24  24  192  ]

---------- Exchange Correlation functional ----------
Initalized PBE GGA exchange.
Initalized PBE GGA correlation.

---------- Setting up pseudopotentials ----------
Width of ionic core gaussian charges (only for fluid interactions / plotting) set to 0.397384

Reading pseudopotential file '/projects/musgravc/apps/jdftx-1.6.0/build/pseudopotentials/GBRV_v1.5/ag_pbe_v1.4.uspp':
  Title: Ag.  Created by USPP 7.3.6 on 1-4-15
  Reference state energy: -147.606242.  19 valence electrons in orbitals:
    |400>  occupation: 2  eigenvalue: -3.637437
    |410>  occupation: 6  eigenvalue: -2.297267
    |420>  occupation: 10  eigenvalue: -0.417763
    |500>  occupation: 0.5  eigenvalue: -0.283525
    |510>  occupation: 0  eigenvalue: -0.122889
  lMax: 2  lLocal: 0  QijEcut: 5.5
  6 projectors sampled on a log grid with 717 points:
    l: 0  eig: -0.283528  rCut: 1.5
    l: 0  eig: -3.637440  rCut: 1.5
    l: 1  eig: -0.122892  rCut: 1.5
    l: 1  eig: -2.297267  rCut: 1.5
    l: 2  eig: -0.417762  rCut: 1.7
    l: 2  eig: -1.000000  rCut: 1.7
  Partial core density with radius 1.2
  Transforming core density to a uniform radial grid of dG=0.02 with 1188 points.
  Transforming local potential to a uniform radial grid of dG=0.02 with 1188 points.
  Transforming nonlocal projectors to a uniform radial grid of dG=0.02 with 432 points.
  Transforming density augmentations to a uniform radial grid of dG=0.02 with 1188 points.
  Transforming atomic orbitals to a uniform radial grid of dG=0.02 with 432 points.
  Core radius for overlap checks: 1.70 bohrs.

Initialized 1 species with 4 total atoms.

Folded 1 k-points by 12x12x1 to 144 k-points.

---------- Setting up k-points, bands, fillings ----------
No reducable k-points. 
Computing the number of bands and number of electrons
Calculating initial fillings.
nElectrons:  76.000000   nBands: 48   nStates: 288

----- Setting up reduced wavefunction bases (one per k-point) -----
average nbasis = 5774.063 , ideal nbasis = 5773.118

----- Initializing Supercell corresponding to k-point mesh -----
Lattice vector linear combinations in supercell:
[  12   0   0  ]
[   0  12   0  ]
[   0   0   1  ]
Supercell lattice vectors:
[  65.0454  0  0  ]
[  0  65.0454  0  ]
[  0  0  45.994  ]

Initializing DFT-D3 calculator:
	Parameters set for gga-PBE functional
	s6:  1.000  s_r6:  1.217
	s8:  0.722  s_r8:  1.000
	Per-atom parameters loaded for:
	Ag:  sqrtQ[a0]:  5.443  Rcov[a0]:  2.173  CN: [ 0.00 0.97 ]

Initializing DFT-D2 calculator for fluid / solvation:
	Ag:  C6:  427.91 Eh-a0^6  R0: 3.097 a0

---------- Setting up ewald sum ----------
Optimum gaussian width for ewald sums = 3.500719 bohr.
Real space sum over 1445 unit cells with max indices [  8  8  2  ]
Reciprocal space sum over 3483 terms with max indices [  4  4  21  ]

Computing DFT-D3 correction:
# coordination-number Ag 9.174 6.151 6.151 9.174
# diagonal-C6 Ag 268.61 268.61 268.61 268.61
EvdW_6 =   -0.020757
EvdW_8 =   -0.031120

---------- Allocating electronic variables ----------
Initializing wave functions:  linear combination of atomic orbitals
Ag pseudo-atom occupations:   s ( 2 1 )  p ( 6 0 )  d ( 10 )
	FillingsUpdate:  mu: +0.015719953  nElectrons: 76.000000  magneticMoment: [ Abs: 0.00076  Tot: -0.00000 ]
LCAOMinimize: Iter:   0  F: -590.3513714297217803  |grad|_K:  7.582e-04  alpha:  1.000e+00
	FillingsUpdate:  mu: +0.205093057  nElectrons: 76.000000  magneticMoment: [ Abs: 0.00053  Tot: +0.00002 ]
LCAOMinimize: Iter:   1  F: -590.3645738934145584  |grad|_K:  8.009e-04  alpha:  3.229e-01  linmin:  7.195e-02  cgtest: -7.958e-01  t[s]:     11.40
	FillingsUpdate:  mu: +0.225607264  nElectrons: 76.000000  magneticMoment: [ Abs: 0.00043  Tot: +0.00003 ]
LCAOMinimize: Iter:   2  F: -590.3673094572799300  |grad|_K:  7.723e-04  alpha:  8.895e-02  linmin:  2.714e-03  cgtest:  1.033e+00  t[s]:     16.08
LCAOMinimize: Encountered beta<0, resetting CG.
	FillingsUpdate:  mu: +0.086300701  nElectrons: 76.000000  magneticMoment: [ Abs: 0.00049  Tot: +0.00006 ]
LCAOMinimize: Iter:   3  F: -590.4012864599284285  |grad|_K:  1.940e-04  alpha:  1.645e-01  linmin:  1.602e-01  cgtest: -9.414e-01  t[s]:     20.78
LCAOMinimize: 	Bad step direction: g.d > 0.
LCAOMinimize: 	Undoing step.
LCAOMinimize: 	Step failed: resetting search direction.
	FillingsUpdate:  mu: +0.086300701  nElectrons: 76.000000  magneticMoment: [ Abs: 0.00049  Tot: +0.00006 ]
LCAOMinimize: Iter:   4  F: -590.4012864599284285  |grad|_K:  1.940e-04  alpha:  0.000e+00
	FillingsUpdate:  mu: +0.115054238  nElectrons: 76.000000  magneticMoment: [ Abs: 0.00048  Tot: +0.00007 ]
LCAOMinimize: Iter:   5  F: -590.4033909293290208  |grad|_K:  2.779e-05  alpha:  1.357e-01  linmin:  9.758e-03  cgtest: -8.595e-02  t[s]:     29.20
	FillingsUpdate:  mu: +0.111289775  nElectrons: 76.000000  magneticMoment: [ Abs: 0.00048  Tot: +0.00009 ]
LCAOMinimize: Iter:   6  F: -590.4035110570889628  |grad|_K:  8.750e-06  alpha:  4.053e-01  linmin:  1.498e-02  cgtest: -7.988e-02  t[s]:     33.87
	FillingsUpdate:  mu: +0.111262992  nElectrons: 76.000000  magneticMoment: [ Abs: 0.00048  Tot: +0.00009 ]
LCAOMinimize: Iter:   7  F: -590.4035129813912590  |grad|_K:  4.198e-06  alpha:  6.587e-02  linmin:  3.682e-03  cgtest:  7.334e-02  t[s]:     38.55
LCAOMinimize: 	Predicted alpha/alphaT>3.000000, increasing alphaT to 1.976013e-01.
	FillingsUpdate:  mu: +0.111349262  nElectrons: 76.000000  magneticMoment: [ Abs: 0.00048  Tot: +0.00011 ]
LCAOMinimize: Iter:   8  F: -590.4035160117661007  |grad|_K:  1.964e-06  alpha:  4.283e-01  linmin: -5.518e-04  cgtest: -5.104e-02  t[s]:     44.43
	FillingsUpdate:  mu: +0.111562419  nElectrons: 76.000000  magneticMoment: [ Abs: 0.00048  Tot: +0.00011 ]
LCAOMinimize: Iter:   9  F: -590.4035162226244893  |grad|_K:  7.502e-07  alpha:  1.339e-01  linmin: -1.032e-03  cgtest: -2.036e-03  t[s]:     49.12
	FillingsUpdate:  mu: +0.111575303  nElectrons: 76.000000  magneticMoment: [ Abs: 0.00048  Tot: +0.00011 ]
LCAOMinimize: Iter:  10  F: -590.4035162484207149  |grad|_K:  6.957e-07  alpha:  1.128e-01  linmin: -2.938e-05  cgtest: -3.681e-03  t[s]:     53.81
LCAOMinimize: Converged (|Delta F|<1.000000e-06 for 2 iters).
----- createFluidSolver() ----- (Fluid-side solver setup)
   Initializing fluid molecule 'H2O'
     Initializing site 'O'
       Electron density: proportional to exp(-r/0.36935)*erfc((r-0.51523)/0.36823) with norm 6.826
       Charge density: gaussian nuclear width 0.478731 with net site charge 0.826
       Polarizability: cuspless exponential with width 0.32 and norm 3.73
       Hard sphere radius: 2.57003 bohrs
       Positions in reference frame:
         [ +0.000000 +0.000000 +0.000000 ]
     Initializing site 'H'
       Electron density: proportional to exp(-r/0.34641)*erfc((r-0)/0.390882) with norm 0.587
       Charge density: gaussian nuclear width 0.377945 with net site charge -0.413
       Polarizability: cuspless exponential with width 0.39 and norm 3.3
       Positions in reference frame:
         [ +0.000000 -1.441945 +1.122523 ]
         [ +0.000000 +1.441945 +1.122523 ]
     Net charge: 0   dipole magnitude: 0.927204
     Initializing spherical shell mfKernel with radius 2.61727 Bohr
     deltaS corrections:
       site 'O': -7.54299
       site 'H': -6.83917
   Initializing fluid molecule 'Na+'
     Initializing site 'Na'
       Electron density: proportional to exp(-r/0.19682)*erfc((r-0.71491)/0.41314) with norm 8.1383
       Charge density: gaussian nuclear width 0.365347 with net site charge -1
       Hard sphere radius: 1.86327 bohrs
       Positions in reference frame:
         [ +0.000000 +0.000000 +0.000000 ]
     Net charge: -1   dipole magnitude: 0
     Initializing gaussian mfKernel with width: 1.55004 Bohr
     deltaS corrections:
       site 'Na': -22.3555
   Initializing fluid molecule 'F-'
     Initializing site 'F'
       Electron density: proportional to exp(-r/0.38886)*erfc((r-0)/0.438782) with norm 8
       Charge density: gaussian nuclear width 0.374796 with net site charge 1
       Hard sphere radius: 2.39995 bohrs
       Positions in reference frame:
         [ +0.000000 +0.000000 +0.000000 ]
     Net charge: 1   dipole magnitude: 0
     Initializing gaussian mfKernel with width: 1.59012 Bohr
     deltaS corrections:
       site 'F': -9.04335

Correction to mu due to finite nuclear width = -0.055801
   Cavity determined by nc: 0.00142 and sigma: 0.707107
   Nonlocal vdW cavity from gaussian model electron density with norm = 8 and sigma = 0.993594 bohr
   Charge asymmetry in cavity with sensitivity pCavity = 36.5 e-bohr/Eh
   Electrostatic cavity expanded by eta = 1.46 bohrs
   Weighted density cavitation model constrained by Nbulk: 0.0049383 bohr^-3, Pvap: 3.14029 kPa, Rvdw: 2.61727 bohr and sigmaBulk: 4.62e-05 Eh/bohr^2 at T: 298 K.
   Weighted density dispersion model using vdW pair potentials with single solvent site with sqrtC6eff: 0.77 SI.


---- Citations for features of the code used in this run ----

   Software package:
      R. Sundararaman, K. Letchworth-Weaver, K.A. Schwarz, D. Gunceler, Y. Ozhabes and T.A. Arias, 'JDFTx: software for joint density-functional theory', SoftwareX 6, 278 (2017)

   gga-PBE exchange-correlation functional:
      J.P. Perdew, K. Burke and M. Ernzerhof, Phys. Rev. Lett. 77, 3865 (1996)

   Pseudopotentials:
      KF Garrity, JW Bennett, KM Rabe and D Vanderbilt, Comput. Mater. Sci. 81, 446 (2014)

   DFT-D3 dispersion correction:
      S. Grimme, J. Antony, S. Ehrlich and H. Krieg, J. Chem. Phys. 132, 154104 (2010)

   DFT-D2 dispersion correction:
      S. Grimme, J. Comput. Chem. 27, 1787 (2006)

   Charge-asymmetric nonlocally-determined local-electric (CANDLE) solvation model:
      R. Sundararaman and W.A. Goddard III, J. Chem. Phys. 142, 064107 (2015)

   Total energy minimization with Auxiliary Hamiltonian:
      C. Freysoldt, S. Boeck, and J. Neugebauer, Phys. Rev. B 79, 241103(R) (2009)

   Linear-tetrahedron sampling for density of states:
      G. Lehmann and M. Taut, Phys. status solidi (b) 54, 469 (1972)

This list may not be complete. Please suggest additional citations or
report any other bugs at https://github.com/shankar1729/jdftx/issues

Initialization completed successfully at t[s]:     57.23


Computing DFT-D3 correction:
# coordination-number Ag 9.174 6.151 6.151 9.174
# diagonal-C6 Ag 268.61 268.61 268.61 268.61
EvdW_6 =   -0.020757
EvdW_8 =   -0.031120
Fluid solver invoked on fresh (random / LCAO) wavefunctions
Running a vacuum solve first:

-------- Initial electronic minimization -----------
	FillingsUpdate:  mu: +0.111575304  nElectrons: 76.000000  magneticMoment: [ Abs: 0.00048  Tot: +0.00011 ]
ElecMinimize: Iter:   0  F: -590.403516248420260  |grad|_K:  2.159e-05  alpha:  1.000e+00
	FillingsUpdate:  mu: +0.116693461  nElectrons: 76.000000  magneticMoment: [ Abs: 0.00037  Tot: +0.00012 ]
	SubspaceRotationAdjust: set factor to 1
ElecMinimize: Iter:   1  F: -590.420260654869367  |grad|_K:  1.522e-05  alpha:  4.491e-01  linmin:  3.303e-05  t[s]:     68.31
	FillingsUpdate:  mu: +0.108960962  nElectrons: 76.000000  magneticMoment: [ Abs: 0.00029  Tot: +0.00008 ]
	SubspaceRotationAdjust: set factor to 0.911
ElecMinimize: Iter:   2  F: -590.425452030124234  |grad|_K:  7.509e-06  alpha:  2.796e-01  linmin: -1.683e-05  t[s]:     74.98
	FillingsUpdate:  mu: +0.114215848  nElectrons: 76.000000  magneticMoment: [ Abs: 0.00022  Tot: +0.00007 ]
	SubspaceRotationAdjust: set factor to 0.625
ElecMinimize: Iter:   3  F: -590.426866504255827  |grad|_K:  7.210e-06  alpha:  3.129e-01  linmin:  1.943e-05  t[s]:     81.64
	FillingsUpdate:  mu: +0.113665554  nElectrons: 76.000000  magneticMoment: [ Abs: 0.00019  Tot: +0.00004 ]
	SubspaceRotationAdjust: set factor to 0.438
ElecMinimize: Iter:   4  F: -590.427345416459389  |grad|_K:  4.718e-06  alpha:  1.197e-01  linmin:  3.705e-04  t[s]:     89.81
	FillingsUpdate:  mu: +0.111960227  nElectrons: 76.000000  magneticMoment: [ Abs: 0.00014  Tot: +0.00001 ]
	SubspaceRotationAdjust: set factor to 0.412
ElecMinimize: Iter:   5  F: -590.427785544695666  |grad|_K:  2.782e-06  alpha:  2.488e-01  linmin: -4.984e-04  t[s]:     96.50
	FillingsUpdate:  mu: +0.112933700  nElectrons: 76.000000  magneticMoment: [ Abs: 0.00011  Tot: -0.00001 ]
	SubspaceRotationAdjust: set factor to 0.46
ElecMinimize: Iter:   6  F: -590.428008011595466  |grad|_K:  2.294e-06  alpha:  3.474e-01  linmin:  1.328e-06  t[s]:    103.15
	FillingsUpdate:  mu: +0.115585826  nElectrons: 76.000000  magneticMoment: [ Abs: 0.00009  Tot: -0.00002 ]
	SubspaceRotationAdjust: set factor to 0.344
ElecMinimize: Iter:   7  F: -590.428111286832177  |grad|_K:  1.482e-06  alpha:  2.454e-01  linmin: -6.894e-06  t[s]:    109.80
	FillingsUpdate:  mu: +0.116348172  nElectrons: 76.000000  magneticMoment: [ Abs: 0.00008  Tot: -0.00003 ]
	SubspaceRotationAdjust: set factor to 0.392
ElecMinimize: Iter:   8  F: -590.428164649427686  |grad|_K:  1.007e-06  alpha:  3.031e-01  linmin:  2.498e-05  t[s]:    116.55
	FillingsUpdate:  mu: +0.115905632  nElectrons: 76.000000  magneticMoment: [ Abs: 0.00008  Tot: -0.00003 ]
	SubspaceRotationAdjust: set factor to 0.406
ElecMinimize: Iter:   9  F: -590.428193315615431  |grad|_K:  7.319e-07  alpha:  3.543e-01  linmin:  3.462e-05  t[s]:    123.37
	FillingsUpdate:  mu: +0.116134901  nElectrons: 76.000000  magneticMoment: [ Abs: 0.00007  Tot: -0.00003 ]
	SubspaceRotationAdjust: set factor to 0.346
ElecMinimize: Iter:  10  F: -590.428206874042189  |grad|_K:  5.774e-07  alpha:  3.171e-01  linmin:  7.000e-06  t[s]:    130.03
	FillingsUpdate:  mu: +0.116593754  nElectrons: 76.000000  magneticMoment: [ Abs: 0.00007  Tot: -0.00002 ]
	SubspaceRotationAdjust: set factor to 0.363
ElecMinimize: Iter:  11  F: -590.428214628515661  |grad|_K:  3.664e-07  alpha:  2.905e-01  linmin:  5.567e-06  t[s]:    136.71
	FillingsUpdate:  mu: +0.116619761  nElectrons: 76.000000  magneticMoment: [ Abs: 0.00006  Tot: -0.00002 ]
	SubspaceRotationAdjust: set factor to 0.421
ElecMinimize: Iter:  12  F: -590.428219010153043  |grad|_K:  2.761e-07  alpha:  4.084e-01  linmin:  1.587e-05  t[s]:    143.35
	FillingsUpdate:  mu: +0.116562316  nElectrons: 76.000000  magneticMoment: [ Abs: 0.00005  Tot: -0.00002 ]
	SubspaceRotationAdjust: set factor to 0.352
ElecMinimize: Iter:  13  F: -590.428220835785851  |grad|_K:  2.186e-07  alpha:  2.999e-01  linmin:  8.625e-07  t[s]:    150.31
	FillingsUpdate:  mu: +0.116564415  nElectrons: 76.000000  magneticMoment: [ Abs: 0.00004  Tot: -0.00001 ]
	SubspaceRotationAdjust: set factor to 0.367
ElecMinimize: Iter:  14  F: -590.428222093574732  |grad|_K:  1.396e-07  alpha:  3.287e-01  linmin:  4.514e-06  t[s]:    156.98
	FillingsUpdate:  mu: +0.116629645  nElectrons: 76.000000  magneticMoment: [ Abs: 0.00003  Tot: -0.00001 ]
	SubspaceRotationAdjust: set factor to 0.411
ElecMinimize: Iter:  15  F: -590.428222741317995  |grad|_K:  1.102e-07  alpha:  4.161e-01  linmin:  2.647e-06  t[s]:    163.60
	FillingsUpdate:  mu: +0.116636813  nElectrons: 76.000000  magneticMoment: [ Abs: 0.00002  Tot: -0.00000 ]
	SubspaceRotationAdjust: set factor to 0.373
ElecMinimize: Iter:  16  F: -590.428223045717573  |grad|_K:  8.139e-08  alpha:  3.134e-01  linmin:  3.626e-07  t[s]:    170.27
	FillingsUpdate:  mu: +0.116606875  nElectrons: 76.000000  magneticMoment: [ Abs: 0.00001  Tot: -0.00000 ]
	SubspaceRotationAdjust: set factor to 0.36
ElecMinimize: Iter:  17  F: -590.428223220731752  |grad|_K:  5.818e-08  alpha:  3.298e-01  linmin:  1.195e-06  t[s]:    177.09
	FillingsUpdate:  mu: +0.116594303  nElectrons: 76.000000  magneticMoment: [ Abs: 0.00001  Tot: -0.00000 ]
	SubspaceRotationAdjust: set factor to 0.423
ElecMinimize: Iter:  18  F: -590.428223320937377  |grad|_K:  4.404e-08  alpha:  3.701e-01  linmin:  1.243e-06  t[s]:    183.86
	FillingsUpdate:  mu: +0.116603685  nElectrons: 76.000000  magneticMoment: [ Abs: 0.00001  Tot: +0.00000 ]
	SubspaceRotationAdjust: set factor to 0.467
ElecMinimize: Iter:  19  F: -590.428223379191877  |grad|_K:  3.396e-08  alpha:  3.756e-01  linmin:  8.354e-07  t[s]:    190.53
	FillingsUpdate:  mu: +0.116606346  nElectrons: 76.000000  magneticMoment: [ Abs: 0.00001  Tot: +0.00000 ]
	SubspaceRotationAdjust: set factor to 0.433
ElecMinimize: Iter:  20  F: -590.428223410587066  |grad|_K:  2.980e-08  alpha:  3.402e-01  linmin:  4.842e-07  t[s]:    197.21
ElecMinimize: Converged (|Delta F|<1.000000e-07 for 2 iters).
Setting wave functions to eigenvectors of Hamiltonian
Converging empty states (this may take a while): |deigs|: 1.949e-02
Vacuum energy after initial minimize, F = -590.428223410587066


-------- Electronic minimization -----------
	Linear fluid (dielectric constant: 78.4, screening length: 8.12261 Bohr) occupying 0.493224 of unit cell:	Completed after 18 iterations at t[s]:    217.49
	FillingsUpdate:  mu: -0.147498195  nElectrons: 76.000000  magneticMoment: [ Abs: 0.00000  Tot: +0.00000 ]
ElecMinimize: Iter:   0  F: -590.428430224338740  |grad|_K:  5.832e-07  alpha:  1.000e+00
	Linear fluid (dielectric constant: 78.4, screening length: 8.12261 Bohr) occupying 0.494891 of unit cell:	Completed after 16 iterations at t[s]:    223.51
	Linear fluid (dielectric constant: 78.4, screening length: 8.12261 Bohr) occupying 0.494565 of unit cell:	Completed after 13 iterations at t[s]:    225.70
	FillingsUpdate:  mu: -0.144121244  nElectrons: 76.000000  magneticMoment: [ Abs: 0.00000  Tot: +0.00000 ]
	SubspaceRotationAdjust: set factor to 0.382
ElecMinimize: Iter:   1  F: -590.428452045425956  |grad|_K:  6.511e-07  alpha:  8.001e-01  linmin: -1.770e-08  t[s]:    228.69
	Linear fluid (dielectric constant: 78.4, screening length: 8.12261 Bohr) occupying 0.496456 of unit cell:	Completed after 16 iterations at t[s]:    231.25
	Linear fluid (dielectric constant: 78.4, screening length: 8.12261 Bohr) occupying 0.495660 of unit cell:	Completed after 16 iterations at t[s]:    233.52
	FillingsUpdate:  mu: -0.144043237  nElectrons: 76.000000  magneticMoment: [ Abs: 0.00000  Tot: +0.00000 ]
	SubspaceRotationAdjust: set factor to 0.514
ElecMinimize: Iter:   2  F: -590.428467372896989  |grad|_K:  3.125e-07  alpha:  4.537e-01  linmin:  3.455e-07  t[s]:    236.72
	Linear fluid (dielectric constant: 78.4, screening length: 8.12261 Bohr) occupying 0.495933 of unit cell:	Completed after 10 iterations at t[s]:    239.29
	Linear fluid (dielectric constant: 78.4, screening length: 8.12261 Bohr) occupying 0.495855 of unit cell:	Completed after 6 iterations at t[s]:    241.32
	FillingsUpdate:  mu: -0.144164770  nElectrons: 76.000000  magneticMoment: [ Abs: 0.00000  Tot: +0.00000 ]
	SubspaceRotationAdjust: set factor to 0.601
ElecMinimize: Iter:   3  F: -590.428469883569278  |grad|_K:  1.970e-07  alpha:  3.214e-01  linmin:  1.020e-08  t[s]:    244.31
	Linear fluid (dielectric constant: 78.4, screening length: 8.12261 Bohr) occupying 0.495948 of unit cell:	Completed after 4 iterations at t[s]:    246.60
	Linear fluid (dielectric constant: 78.4, screening length: 8.12261 Bohr) occupying 0.495972 of unit cell:	Completed after 2 iterations at t[s]:    248.55
	FillingsUpdate:  mu: -0.144221398  nElectrons: 76.000000  magneticMoment: [ Abs: 0.00000  Tot: +0.00000 ]
	SubspaceRotationAdjust: set factor to 0.75
ElecMinimize: Iter:   4  F: -590.428471142129297  |grad|_K:  1.076e-07  alpha:  4.044e-01  linmin: -1.354e-07  t[s]:    251.58
	Linear fluid (dielectric constant: 78.4, screening length: 8.12261 Bohr) occupying 0.496018 of unit cell:	Completed after 6 iterations at t[s]:    253.94
	Linear fluid (dielectric constant: 78.4, screening length: 8.12261 Bohr) occupying 0.496027 of unit cell:	Completed after 2 iterations at t[s]:    255.88
	FillingsUpdate:  mu: -0.144266093  nElectrons: 76.000000  magneticMoment: [ Abs: 0.00000  Tot: +0.00000 ]
	SubspaceRotationAdjust: set factor to 0.889
ElecMinimize: Iter:   5  F: -590.428471590910476  |grad|_K:  6.255e-08  alpha:  4.833e-01  linmin: -1.105e-07  t[s]:    258.86
	Linear fluid (dielectric constant: 78.4, screening length: 8.12261 Bohr) occupying 0.496059 of unit cell:	Completed after 6 iterations at t[s]:    261.21
	Linear fluid (dielectric constant: 78.4, screening length: 8.12261 Bohr) occupying 0.496053 of unit cell:	Completed after 2 iterations at t[s]:    263.15
	FillingsUpdate:  mu: -0.144224324  nElectrons: 76.000000  magneticMoment: [ Abs: 0.00000  Tot: +0.00000 ]
	SubspaceRotationAdjust: set factor to 0.915
ElecMinimize: Iter:   6  F: -590.428471714851185  |grad|_K:  3.626e-08  alpha:  3.950e-01  linmin:  2.874e-07  t[s]:    266.29
	Linear fluid (dielectric constant: 78.4, screening length: 8.12261 Bohr) occupying 0.496059 of unit cell:	Completed after 6 iterations at t[s]:    268.82
	Linear fluid (dielectric constant: 78.4, screening length: 8.12261 Bohr) occupying 0.496059 of unit cell:	Completed after 0 iterations at t[s]:    270.68
	FillingsUpdate:  mu: -0.144266381  nElectrons: 76.000000  magneticMoment: [ Abs: 0.00000  Tot: +0.00000 ]
	SubspaceRotationAdjust: set factor to 0.751
ElecMinimize: Iter:   7  F: -590.428471753177746  |grad|_K:  2.295e-08  alpha:  3.640e-01  linmin:  2.396e-06  t[s]:    273.66
	Linear fluid (dielectric constant: 78.4, screening length: 8.12261 Bohr) occupying 0.496064 of unit cell:	Completed after 6 iterations at t[s]:    276.02
	Linear fluid (dielectric constant: 78.4, screening length: 8.12261 Bohr) occupying 0.496063 of unit cell:	Completed after 2 iterations at t[s]:    277.97
	FillingsUpdate:  mu: -0.144226758  nElectrons: 76.000000  magneticMoment: [ Abs: 0.00000  Tot: +0.00000 ]
	SubspaceRotationAdjust: set factor to 0.502
ElecMinimize: Iter:   8  F: -590.428471763694006  |grad|_K:  1.511e-08  alpha:  2.586e-01  linmin: -2.557e-06  t[s]:    280.94
ElecMinimize: Converged (|Delta F|<1.000000e-07 for 2 iters).
Setting wave functions to eigenvectors of Hamiltonian
Converging empty states (this may take a while): |deigs|: 2.305e-04
Single-point solvation energy estimate, DeltaF = -0.000248353106940

Computing DFT-D3 correction:
# coordination-number Ag 9.174 6.151 6.151 9.174
# diagonal-C6 Ag 268.61 268.61 268.61 268.61
EvdW_6 =   -0.020757
EvdW_8 =   -0.031120

# Ionic positions in cartesian coordinates:
ion Ag   0.000000000000000   0.000000000000000  40.244759000000002 1
ion Ag   2.710223000000000   2.710223000000000  44.077578000000003 1
ion Ag   0.000000000000000   5.420446999999999  32.579075000000003 1
ion Ag   2.710223000000000   2.710223000000000  36.411940000000001 1

# Forces in Cartesian coordinates:
force Ag  -0.000002369486519  -0.000002368885842  -0.000142318657067 1
force Ag   0.000003946278743   0.000003948661592   0.002935805032946 1
force Ag  -0.000003946943013  -0.000003943989114  -0.002887706779908 1
force Ag   0.000002372120518   0.000002372408977   0.000073550383480 1

# Energy components:
   A_diel =       -0.0002900286960280
   Eewald =     1740.7638028353221671
       EH =     2273.6861115416786561
     Eloc =    -4697.6591866613371167
      Enl =       15.7835181147516455
     EvdW =       -0.0518779201202508
      Exc =      -57.9506121234645235
 Exc_core =        0.8326852544852748
       KE =      134.1674389065968853
-------------------------------------
     Etot =     -590.4284100807835785
       TS =        0.0000616829104709
-------------------------------------
        F =     -590.4284717636940059


Dumping 'jdft.fillings' ... done
Dumping 'jdft.wfns' ... done
Dumping 'jdft.fluidState' ... done
Dumping 'jdft.ionpos' ... done
Dumping 'jdft.lattice' ... done
Dumping 'jdft.eigenvals' ... done
Dumping 'jdft.eigStats' ... 
	eMin: -3.529894 at state 0 ( [ +0.000000 +0.000000 +0.000000 ] spin 1 )
	HOMO: -0.145873 at state 155 ( [ +0.000000 -0.083333 +0.000000 ] spin -1 )
	mu  : -0.144227
	LUMO: -0.141586 at state 216 ( [ +0.500000 +0.000000 +0.000000 ] spin -1 )
	eMax: +0.236312 at state 277 ( [ -0.083333 +0.083333 +0.000000 ] spin -1 )
	HOMO-LUMO gap: +0.004286
	Optical gap  : +0.020965 at state 6 ( [ +0.000000 +0.500000 +0.000000 ] spin 1 )
Dumping 'jdft.Ecomponents' ... done
IonicMinimize: Iter:   0  F: -590.428471763694006  |grad|_K:  1.190e-03  t[s]:    295.99

#--- Lowdin population analysis ---
# oxidation-state Ag -0.041 +0.053 +0.053 -0.041
# magnetic-moments Ag +0.000 -0.000 +0.000 +0.000


Computing DFT-D3 correction:
# coordination-number Ag 9.169 6.146 6.146 9.169
# diagonal-C6 Ag 268.61 268.61 268.61 268.61
EvdW_6 =   -0.020752
EvdW_8 =   -0.031113

-------- Electronic minimization -----------
	Linear fluid (dielectric constant: 78.4, screening length: 8.12261 Bohr) occupying 0.495770 of unit cell:	Completed after 12 iterations at t[s]:    298.76
	FillingsUpdate:  mu: -0.144380200  nElectrons: 76.000000  magneticMoment: [ Abs: 0.00000  Tot: +0.00000 ]
ElecMinimize: Iter:   0  F: -590.428485320592813  |grad|_K:  1.628e-07  alpha:  1.000e+00
	Linear fluid (dielectric constant: 78.4, screening length: 8.12261 Bohr) occupying 0.495852 of unit cell:	Completed after 10 iterations at t[s]:    304.63
	Linear fluid (dielectric constant: 78.4, screening length: 8.12261 Bohr) occupying 0.495848 of unit cell:	Completed after 2 iterations at t[s]:    306.58
	FillingsUpdate:  mu: -0.144288639  nElectrons: 76.000000  magneticMoment: [ Abs: 0.00000  Tot: +0.00000 ]
	SubspaceRotationAdjust: set factor to 0.565
ElecMinimize: Iter:   1  F: -590.428487335196905  |grad|_K:  1.905e-07  alpha:  9.480e-01  linmin:  1.279e-06  t[s]:    309.56
	Linear fluid (dielectric constant: 78.4, screening length: 8.12261 Bohr) occupying 0.495981 of unit cell:	Completed after 9 iterations at t[s]:    311.99
	Linear fluid (dielectric constant: 78.4, screening length: 8.12261 Bohr) occupying 0.495901 of unit cell:	Completed after 10 iterations at t[s]:    314.13
	FillingsUpdate:  mu: -0.144316250  nElectrons: 76.000000  magneticMoment: [ Abs: 0.00000  Tot: +0.00000 ]
	SubspaceRotationAdjust: set factor to 0.541
ElecMinimize: Iter:   2  F: -590.428488423206204  |grad|_K:  1.100e-07  alpha:  3.751e-01  linmin:  2.023e-05  t[s]:    317.12
	Linear fluid (dielectric constant: 78.4, screening length: 8.12261 Bohr) occupying 0.495926 of unit cell:	Completed after 7 iterations at t[s]:    319.47
	Linear fluid (dielectric constant: 78.4, screening length: 8.12261 Bohr) occupying 0.495923 of unit cell:	Completed after 2 iterations at t[s]:    321.41
	FillingsUpdate:  mu: -0.144274090  nElectrons: 76.000000  magneticMoment: [ Abs: 0.00000  Tot: -0.00000 ]
	SubspaceRotationAdjust: set factor to 0.623
ElecMinimize: Iter:   3  F: -590.428488732519781  |grad|_K:  4.540e-08  alpha:  3.192e-01  linmin:  4.199e-06  t[s]:    324.39
	Linear fluid (dielectric constant: 78.4, screening length: 8.12261 Bohr) occupying 0.495927 of unit cell:	Completed after 5 iterations at t[s]:    326.90
	Linear fluid (dielectric constant: 78.4, screening length: 8.12261 Bohr) occupying 0.495927 of unit cell:	Completed after 0 iterations at t[s]:    328.90
	FillingsUpdate:  mu: -0.144271134  nElectrons: 76.000000  magneticMoment: [ Abs: 0.00000  Tot: -0.00000 ]
	SubspaceRotationAdjust: set factor to 0.599
ElecMinimize: Iter:   4  F: -590.428488783961711  |grad|_K:  2.003e-08  alpha:  3.114e-01  linmin:  3.513e-04  t[s]:    331.88
	Linear fluid (dielectric constant: 78.4, screening length: 8.12261 Bohr) occupying 0.495928 of unit cell:	Completed after 2 iterations at t[s]:    334.14
	Linear fluid (dielectric constant: 78.4, screening length: 8.12261 Bohr) occupying 0.495928 of unit cell:	Completed after 0 iterations at t[s]:    336.01
	FillingsUpdate:  mu: -0.144270024  nElectrons: 76.000000  magneticMoment: [ Abs: 0.00000  Tot: -0.00000 ]
	SubspaceRotationAdjust: set factor to 0.648
ElecMinimize: Iter:   5  F: -590.428488795020598  |grad|_K:  8.260e-09  alpha:  3.452e-01  linmin: -6.863e-04  t[s]:    339.01
ElecMinimize: Converged (|Delta F|<1.000000e-07 for 2 iters).
Setting wave functions to eigenvectors of Hamiltonian
Converging empty states (this may take a while): |deigs|: 1.056e-07

Computing DFT-D3 correction:
# coordination-number Ag 9.169 6.146 6.146 9.169
# diagonal-C6 Ag 268.61 268.61 268.61 268.61
EvdW_6 =   -0.020752
EvdW_8 =   -0.031113
IonicMinimize: 	Wolfe criterion not satisfied: alpha: 1  (E-E0)/|gdotd0|: -1.00282  gdotd/gdotd0: 0.986059 (taking cubic step)

Computing DFT-D3 correction:
# coordination-number Ag 9.159 6.135 6.135 9.160
# diagonal-C6 Ag 268.61 268.61 268.61 268.61
EvdW_6 =   -0.020740
EvdW_8 =   -0.031099

-------- Electronic minimization -----------
	Linear fluid (dielectric constant: 78.4, screening length: 8.12261 Bohr) occupying 0.495365 of unit cell:	Completed after 12 iterations at t[s]:    348.71
	FillingsUpdate:  mu: -0.144326091  nElectrons: 76.000000  magneticMoment: [ Abs: 0.00000  Tot: -0.00000 ]
ElecMinimize: Iter:   0  F: -590.428507200039348  |grad|_K:  3.600e-07  alpha:  1.000e+00
	Linear fluid (dielectric constant: 78.4, screening length: 8.12261 Bohr) occupying 0.495498 of unit cell:	Completed after 12 iterations at t[s]:    354.61
	Linear fluid (dielectric constant: 78.4, screening length: 8.12261 Bohr) occupying 0.495484 of unit cell:	Completed after 9 iterations at t[s]:    356.92
	FillingsUpdate:  mu: -0.145190110  nElectrons: 76.000000  magneticMoment: [ Abs: 0.00000  Tot: -0.00000 ]
	SubspaceRotationAdjust: set factor to 0.624
ElecMinimize: Iter:   1  F: -590.428516499002740  |grad|_K:  3.899e-07  alpha:  8.952e-01  linmin: -8.531e-06  t[s]:    360.04
	Linear fluid (dielectric constant: 78.4, screening length: 8.12261 Bohr) occupying 0.495944 of unit cell:	Completed after 15 iterations at t[s]:    362.61
	Linear fluid (dielectric constant: 78.4, screening length: 8.12261 Bohr) occupying 0.495641 of unit cell:	Completed after 13 iterations at t[s]:    364.81
	FillingsUpdate:  mu: -0.144199673  nElectrons: 76.000000  magneticMoment: [ Abs: 0.00000  Tot: -0.00000 ]
	SubspaceRotationAdjust: set factor to 0.449
ElecMinimize: Iter:   2  F: -590.428520187511481  |grad|_K:  1.664e-07  alpha:  3.027e-01  linmin:  7.779e-06  t[s]:    367.81
	Linear fluid (dielectric constant: 78.4, screening length: 8.12261 Bohr) occupying 0.495661 of unit cell:	Completed after 8 iterations at t[s]:    370.20
	Linear fluid (dielectric constant: 78.4, screening length: 8.12261 Bohr) occupying 0.495663 of unit cell:	Completed after 2 iterations at t[s]:    372.13
	FillingsUpdate:  mu: -0.144300956  nElectrons: 76.000000  magneticMoment: [ Abs: 0.00000  Tot: -0.00000 ]
	SubspaceRotationAdjust: set factor to 0.452
ElecMinimize: Iter:   3  F: -590.428520926884516  |grad|_K:  6.693e-08  alpha:  3.334e-01  linmin: -9.752e-06  t[s]:    375.13
	Linear fluid (dielectric constant: 78.4, screening length: 8.12261 Bohr) occupying 0.495665 of unit cell:	Completed after 6 iterations at t[s]:    377.50
	Linear fluid (dielectric constant: 78.4, screening length: 8.12261 Bohr) occupying 0.495665 of unit cell:	Completed after 2 iterations at t[s]:    379.43
	FillingsUpdate:  mu: -0.144336566  nElectrons: 76.000000  magneticMoment: [ Abs: 0.00000  Tot: -0.00000 ]
	SubspaceRotationAdjust: set factor to 0.476
ElecMinimize: Iter:   4  F: -590.428521022511745  |grad|_K:  2.992e-08  alpha:  2.666e-01  linmin: -3.985e-05  t[s]:    383.29
	Linear fluid (dielectric constant: 78.4, screening length: 8.12261 Bohr) occupying 0.495666 of unit cell:	Completed after 2 iterations at t[s]:    385.99
	Linear fluid (dielectric constant: 78.4, screening length: 8.12261 Bohr) occupying 0.495667 of unit cell:	Completed after 2 iterations at t[s]:    388.53
	FillingsUpdate:  mu: -0.144328493  nElectrons: 76.000000  magneticMoment: [ Abs: 0.00000  Tot: -0.00000 ]
	SubspaceRotationAdjust: set factor to 0.533
ElecMinimize: Iter:   5  F: -590.428521047365621  |grad|_K:  1.177e-08  alpha:  3.455e-01  linmin: -1.369e-04  t[s]:    391.52
ElecMinimize: Converged (|Delta F|<1.000000e-07 for 2 iters).
Setting wave functions to eigenvectors of Hamiltonian
Converging empty states (this may take a while): |deigs|: 3.239e-08

Computing DFT-D3 correction:
# coordination-number Ag 9.159 6.135 6.135 9.160
# diagonal-C6 Ag 268.61 268.61 268.61 268.61
EvdW_6 =   -0.020740
EvdW_8 =   -0.031099
IonicMinimize: 	Wolfe criterion not satisfied: alpha: 3  (E-E0)/|gdotd0|: -2.90187  gdotd/gdotd0: 0.926238 (taking cubic step)

Computing DFT-D3 correction:
# coordination-number Ag 9.139 6.114 6.115 9.140
# diagonal-C6 Ag 268.61 268.61 268.61 268.61
EvdW_6 =   -0.020717
EvdW_8 =   -0.031072

-------- Electronic minimization -----------
	Linear fluid (dielectric constant: 78.4, screening length: 8.12261 Bohr) occupying 0.494541 of unit cell:	Completed after 13 iterations at t[s]:    401.31
	FillingsUpdate:  mu: -0.144410980  nElectrons: 76.000000  magneticMoment: [ Abs: 0.00000  Tot: -0.00000 ]
ElecMinimize: Iter:   0  F: -590.428523252385844  |grad|_K:  6.644e-07  alpha:  1.000e+00
	Linear fluid (dielectric constant: 78.4, screening length: 8.12261 Bohr) occupying 0.494770 of unit cell:	Completed after 12 iterations at t[s]:    407.18
	Linear fluid (dielectric constant: 78.4, screening length: 8.12261 Bohr) occupying 0.494754 of unit cell:	Completed after 9 iterations at t[s]:    409.29
	FillingsUpdate:  mu: -0.146098279  nElectrons: 76.000000  magneticMoment: [ Abs: 0.00000  Tot: +0.00000 ]
	SubspaceRotationAdjust: set factor to 0.587
ElecMinimize: Iter:   1  F: -590.428556134564928  |grad|_K:  7.563e-07  alpha:  9.293e-01  linmin: -1.285e-05  t[s]:    412.27
	Linear fluid (dielectric constant: 78.4, screening length: 8.12261 Bohr) occupying 0.495556 of unit cell:	Completed after 12 iterations at t[s]:    414.76
	Linear fluid (dielectric constant: 78.4, screening length: 8.12261 Bohr) occupying 0.495091 of unit cell:	Completed after 13 iterations at t[s]:    417.14
	FillingsUpdate:  mu: -0.144202234  nElectrons: 76.000000  magneticMoment: [ Abs: 0.00000  Tot: +0.00000 ]
	SubspaceRotationAdjust: set factor to 0.514
ElecMinimize: Iter:   2  F: -590.428573757115259  |grad|_K:  3.715e-07  alpha:  3.846e-01  linmin:  1.903e-05  t[s]:    420.16
	Linear fluid (dielectric constant: 78.4, screening length: 8.12261 Bohr) occupying 0.495156 of unit cell:	Completed after 8 iterations at t[s]:    422.58
	Linear fluid (dielectric constant: 78.4, screening length: 8.12261 Bohr) occupying 0.495149 of unit cell:	Completed after 2 iterations at t[s]:    424.54
	FillingsUpdate:  mu: -0.144410653  nElectrons: 76.000000  magneticMoment: [ Abs: 0.00000  Tot: +0.00000 ]
	SubspaceRotationAdjust: set factor to 0.502
ElecMinimize: Iter:   3  F: -590.428577560710551  |grad|_K:  1.616e-07  alpha:  3.442e-01  linmin:  9.504e-06  t[s]:    427.53
	Linear fluid (dielectric constant: 78.4, screening length: 8.12261 Bohr) occupying 0.495161 of unit cell:	Completed after 5 iterations at t[s]:    429.86
	Linear fluid (dielectric constant: 78.4, screening length: 8.12261 Bohr) occupying 0.495159 of unit cell:	Completed after 2 iterations at t[s]:    431.80
	FillingsUpdate:  mu: -0.144437197  nElectrons: 76.000000  magneticMoment: [ Abs: 0.00000  Tot: +0.00000 ]
	SubspaceRotationAdjust: set factor to 0.533
ElecMinimize: Iter:   4  F: -590.428578147733333  |grad|_K:  7.397e-08  alpha:  2.804e-01  linmin:  5.029e-05  t[s]:    434.80
	Linear fluid (dielectric constant: 78.4, screening length: 8.12261 Bohr) occupying 0.495162 of unit cell:	Completed after 2 iterations at t[s]:    437.08
	Linear fluid (dielectric constant: 78.4, screening length: 8.12261 Bohr) occupying 0.495162 of unit cell:	Completed after 1 iterations at t[s]:    439.00
	FillingsUpdate:  mu: -0.144426099  nElectrons: 76.000000  magneticMoment: [ Abs: 0.00000  Tot: +0.00000 ]
	SubspaceRotationAdjust: set factor to 0.567
ElecMinimize: Iter:   5  F: -590.428578298475486  |grad|_K:  3.046e-08  alpha:  3.443e-01  linmin:  8.957e-06  t[s]:    441.99
	Linear fluid (dielectric constant: 78.4, screening length: 8.12261 Bohr) occupying 0.495162 of unit cell:	Completed after 2 iterations at t[s]:    444.27
	Linear fluid (dielectric constant: 78.4, screening length: 8.12261 Bohr) occupying 0.495161 of unit cell:	Completed after 0 iterations at t[s]:    446.28
	FillingsUpdate:  mu: -0.144417670  nElectrons: 76.000000  magneticMoment: [ Abs: 0.00000  Tot: +0.00000 ]
	SubspaceRotationAdjust: set factor to 0.596
ElecMinimize: Iter:   6  F: -590.428578327886385  |grad|_K:  1.488e-08  alpha:  3.950e-01  linmin: -1.945e-04  t[s]:    449.47
	Linear fluid (dielectric constant: 78.4, screening length: 8.12261 Bohr) occupying 0.495158 of unit cell:	Completed after 1 iterations at t[s]:    451.70
	Linear fluid (dielectric constant: 78.4, screening length: 8.12261 Bohr) occupying 0.495158 of unit cell:	Completed after 0 iterations at t[s]:    453.58
	FillingsUpdate:  mu: -0.144424146  nElectrons: 76.000000  magneticMoment: [ Abs: 0.00000  Tot: +0.00000 ]
	SubspaceRotationAdjust: set factor to 0.677
ElecMinimize: Iter:   7  F: -590.428578335003294  |grad|_K:  8.270e-09  alpha:  3.954e-01  linmin:  4.020e-05  t[s]:    456.57
ElecMinimize: Converged (|Delta F|<1.000000e-07 for 2 iters).
Setting wave functions to eigenvectors of Hamiltonian
Converging empty states (this may take a while): |deigs|: 8.585e-08

Computing DFT-D3 correction:
# coordination-number Ag 9.139 6.114 6.115 9.140
# diagonal-C6 Ag 268.61 268.61 268.61 268.61
EvdW_6 =   -0.020717
EvdW_8 =   -0.031072

# Ionic positions in cartesian coordinates:
ion Ag  -0.000016589852661  -0.000016596543216  40.243798941936497 1
ion Ag   2.710250620504175   2.710250626288820  44.098164807766580 1
ion Ag  -0.000027632048115   5.420419377733881  32.558897225076606 1
ion Ag   2.710239601396601   2.710239592520515  36.412491025220319 1

# Forces in Cartesian coordinates:
force Ag  -0.000002406565314  -0.000002406233674   0.000647937118528 1
force Ag   0.000004949301047   0.000004948985373   0.002251808496052 1
force Ag  -0.000004929758365  -0.000004929417796  -0.002277740740894 1
force Ag   0.000002345401704   0.000002345767135  -0.000624075050321 1

# Energy components:
   A_diel =       -0.0002853882647078
   Eewald =     1734.6739841673002047
       EH =     2267.6099945422870405
     Eloc =    -4685.4913303057355733
      Enl =       15.7848398229991318
     EvdW =       -0.0517892666697562
      Exc =      -57.9480326820258256
 Exc_core =        0.8326851750100328
       KE =      134.1614064254924585
-------------------------------------
     Etot =     -590.4285275096069654
       TS =        0.0000508253963551
-------------------------------------
        F =     -590.4285783350032943


Dumping 'jdft.fillings' ... done
Dumping 'jdft.wfns' ... done
Dumping 'jdft.fluidState' ... done
Dumping 'jdft.ionpos' ... done
Dumping 'jdft.lattice' ... done
Dumping 'jdft.eigenvals' ... done
Dumping 'jdft.eigStats' ... 
	eMin: -3.529736 at state 144 ( [ +0.000000 +0.000000 +0.000000 ] spin -1 )
	HOMO: -0.146398 at state 156 ( [ +0.083333 +0.000000 +0.000000 ] spin -1 )
	mu  : -0.144424
	LUMO: -0.141548 at state 104 ( [ -0.333333 -0.333333 +0.000000 ] spin 1 )
	eMax: +0.236218 at state 13 ( [ +0.083333 +0.083333 +0.000000 ] spin 1 )
	HOMO-LUMO gap: +0.004850
	Optical gap  : +0.020983 at state 72 ( [ +0.500000 +0.000000 +0.000000 ] spin 1 )
Dumping 'jdft.Ecomponents' ... done
IonicMinimize: Iter:   1  F: -590.428578335003294  |grad|_K:  9.604e-04  alpha:  7.000e+00  linmin: -9.519e-01  t[s]:    464.20

#--- Lowdin population analysis ---
# oxidation-state Ag -0.041 +0.052 +0.052 -0.041
# magnetic-moments Ag +0.000 -0.000 +0.000 +0.000


Computing DFT-D3 correction:
# coordination-number Ag 8.906 5.997 5.992 8.901
# diagonal-C6 Ag 268.61 268.61 268.61 268.61
EvdW_6 =   -0.020487
EvdW_8 =   -0.030729

-------- Electronic minimization -----------
	Linear fluid (dielectric constant: 78.4, screening length: 8.12261 Bohr) occupying 0.495255 of unit cell:	Completed after 22 iterations at t[s]:    466.84
	FillingsUpdate:  mu: +0.383903861  nElectrons: 76.000000  magneticMoment: [ Abs: 0.00000  Tot: +0.00000 ]
ElecMinimize: Iter:   0  F: -589.491208311390665  |grad|_K:  2.270e-04  alpha:  1.000e+00
	Linear fluid (dielectric constant: 78.4, screening length: 8.12261 Bohr) occupying 0.043829 of unit cell:	Completed after 400 iterations at t[s]:    481.65
	Linear fluid (dielectric constant: 78.4, screening length: 8.12261 Bohr) occupying 0.488720 of unit cell:	Completed after 350 iterations at t[s]:    491.43
	FillingsUpdate:  mu: +0.138329731  nElectrons: 76.000000  magneticMoment: [ Abs: 0.00000  Tot: +0.00000 ]
	SubspaceRotationAdjust: set factor to 0.906
ElecMinimize: Iter:   1  F: -589.873512174122766  |grad|_K:  1.686e-04  alpha:  5.337e-02  linmin: -1.922e-02  t[s]:    494.44
	Linear fluid (dielectric constant: 78.4, screening length: 8.12261 Bohr) occupying 0.479466 of unit cell:	Completed after 19 iterations at t[s]:    497.09
	Linear fluid (dielectric constant: 78.4, screening length: 8.12261 Bohr) occupying 0.469092 of unit cell:	Completed after 18 iterations at t[s]:    499.42
	FillingsUpdate:  mu: -0.308820342  nElectrons: 76.000000  magneticMoment: [ Abs: 0.00000  Tot: +0.00000 ]
	SubspaceRotationAdjust: set factor to 0.553
ElecMinimize: Iter:   2  F: -590.297052599478775  |grad|_K:  7.221e-05  alpha:  1.048e-01  linmin: -1.663e-03  t[s]:    502.41
	Linear fluid (dielectric constant: 78.4, screening length: 8.12261 Bohr) occupying 0.475560 of unit cell:	Completed after 19 iterations at t[s]:    505.06
	Linear fluid (dielectric constant: 78.4, screening length: 8.12261 Bohr) occupying 0.482121 of unit cell:	Completed after 18 iterations at t[s]:    507.59
	FillingsUpdate:  mu: -0.201603164  nElectrons: 76.000000  magneticMoment: [ Abs: 0.00000  Tot: +0.00000 ]
	SubspaceRotationAdjust: set factor to 0.829
ElecMinimize: Iter:   3  F: -590.391400035034167  |grad|_K:  3.849e-05  alpha:  2.555e-01  linmin:  3.734e-03  t[s]:    510.64
	Linear fluid (dielectric constant: 78.4, screening length: 8.12261 Bohr) occupying 0.490127 of unit cell:	Completed after 19 iterations at t[s]:    513.30
	Linear fluid (dielectric constant: 78.4, screening length: 8.12261 Bohr) occupying 0.489426 of unit cell:	Completed after 13 iterations at t[s]:    515.50
	FillingsUpdate:  mu: -0.125395733  nElectrons: 76.000000  magneticMoment: [ Abs: 0.00000  Tot: +0.00000 ]
	SubspaceRotationAdjust: set factor to 0.856
ElecMinimize: Iter:   4  F: -590.412644199810188  |grad|_K:  2.195e-05  alpha:  2.256e-01  linmin:  1.642e-04  t[s]:    518.50
	Linear fluid (dielectric constant: 78.4, screening length: 8.12261 Bohr) occupying 0.490389 of unit cell:	Completed after 18 iterations at t[s]:    521.12
	Linear fluid (dielectric constant: 78.4, screening length: 8.12261 Bohr) occupying 0.490471 of unit cell:	Completed after 13 iterations at t[s]:    523.33
	FillingsUpdate:  mu: -0.144552161  nElectrons: 76.000000  magneticMoment: [ Abs: 0.00000  Tot: +0.00000 ]
	SubspaceRotationAdjust: set factor to 1.04
ElecMinimize: Iter:   5  F: -590.422126880037808  |grad|_K:  1.461e-05  alpha:  2.473e-01  linmin:  1.305e-06  t[s]:    526.32
	Linear fluid (dielectric constant: 78.4, screening length: 8.12261 Bohr) occupying 0.491005 of unit cell:	Completed after 16 iterations at t[s]:    528.95
	Linear fluid (dielectric constant: 78.4, screening length: 8.12261 Bohr) occupying 0.491017 of unit cell:	Completed after 10 iterations at t[s]:    531.06
	FillingsUpdate:  mu: -0.149771594  nElectrons: 76.000000  magneticMoment: [ Abs: 0.00000  Tot: +0.00000 ]
	SubspaceRotationAdjust: set factor to 1.19
ElecMinimize: Iter:   6  F: -590.426464743639713  |grad|_K:  8.749e-06  alpha:  2.537e-01  linmin: -3.115e-06  t[s]:    534.07
	Linear fluid (dielectric constant: 78.4, screening length: 8.12261 Bohr) occupying 0.491804 of unit cell:	Completed after 14 iterations at t[s]:    536.82
	Linear fluid (dielectric constant: 78.4, screening length: 8.12261 Bohr) occupying 0.491734 of unit cell:	Completed after 11 iterations at t[s]:    539.15
	FillingsUpdate:  mu: -0.139388256  nElectrons: 76.000000  magneticMoment: [ Abs: 0.00000  Tot: +0.00000 ]
	SubspaceRotationAdjust: set factor to 1.2
ElecMinimize: Iter:   7  F: -590.427875375799545  |grad|_K:  6.054e-06  alpha:  2.300e-01  linmin: -1.562e-05  t[s]:    542.13
	Linear fluid (dielectric constant: 78.4, screening length: 8.12261 Bohr) occupying 0.491353 of unit cell:	Completed after 12 iterations at t[s]:    544.63
	Linear fluid (dielectric constant: 78.4, screening length: 8.12261 Bohr) occupying 0.491363 of unit cell:	Completed after 10 iterations at t[s]:    546.74
	FillingsUpdate:  mu: -0.144078644  nElectrons: 76.000000  magneticMoment: [ Abs: 0.00000  Tot: +0.00000 ]
	SubspaceRotationAdjust: set factor to 1.35
ElecMinimize: Iter:   8  F: -590.428534649355242  |grad|_K:  2.997e-06  alpha:  2.240e-01  linmin:  3.514e-06  t[s]:    549.74
	Linear fluid (dielectric constant: 78.4, screening length: 8.12261 Bohr) occupying 0.491164 of unit cell:	Completed after 13 iterations at t[s]:    552.25
	Linear fluid (dielectric constant: 78.4, screening length: 8.12261 Bohr) occupying 0.491156 of unit cell:	Completed after 9 iterations at t[s]:    554.37
	FillingsUpdate:  mu: -0.146000309  nElectrons: 76.000000  magneticMoment: [ Abs: 0.00000  Tot: +0.00000 ]
	SubspaceRotationAdjust: set factor to 1.34
ElecMinimize: Iter:   9  F: -590.428702764361788  |grad|_K:  1.930e-06  alpha:  2.337e-01  linmin: -1.980e-06  t[s]:    557.36
	Linear fluid (dielectric constant: 78.4, screening length: 8.12261 Bohr) occupying 0.491264 of unit cell:	Completed after 12 iterations at t[s]:    559.85
	Linear fluid (dielectric constant: 78.4, screening length: 8.12261 Bohr) occupying 0.491246 of unit cell:	Completed after 11 iterations at t[s]:    562.00
	FillingsUpdate:  mu: -0.143626985  nElectrons: 76.000000  magneticMoment: [ Abs: 0.00000  Tot: +0.00000 ]
	SubspaceRotationAdjust: set factor to 1.03
ElecMinimize: Iter:  10  F: -590.428761439747745  |grad|_K:  1.166e-06  alpha:  1.965e-01  linmin: -8.187e-06  t[s]:    564.99
	Linear fluid (dielectric constant: 78.4, screening length: 8.12261 Bohr) occupying 0.491139 of unit cell:	Completed after 10 iterations at t[s]:    567.64
	Linear fluid (dielectric constant: 78.4, screening length: 8.12261 Bohr) occupying 0.491132 of unit cell:	Completed after 8 iterations at t[s]:    569.79
	FillingsUpdate:  mu: -0.144613532  nElectrons: 76.000000  magneticMoment: [ Abs: 0.00000  Tot: +0.00000 ]
	SubspaceRotationAdjust: set factor to 1.07
ElecMinimize: Iter:  11  F: -590.428784265393233  |grad|_K:  6.274e-07  alpha:  2.093e-01  linmin: -3.961e-06  t[s]:    572.77
	Linear fluid (dielectric constant: 78.4, screening length: 8.12261 Bohr) occupying 0.491088 of unit cell:	Completed after 11 iterations at t[s]:    575.24
	Linear fluid (dielectric constant: 78.4, screening length: 8.12261 Bohr) occupying 0.491073 of unit cell:	Completed after 8 iterations at t[s]:    577.32
	FillingsUpdate:  mu: -0.145000052  nElectrons: 76.000000  magneticMoment: [ Abs: 0.00000  Tot: +0.00000 ]
	SubspaceRotationAdjust: set factor to 1.17
ElecMinimize: Iter:  12  F: -590.428793056069367  |grad|_K:  4.666e-07  alpha:  2.787e-01  linmin:  2.131e-05  t[s]:    580.31
	Linear fluid (dielectric constant: 78.4, screening length: 8.12261 Bohr) occupying 0.491078 of unit cell:	Completed after 10 iterations at t[s]:    582.78
	Linear fluid (dielectric constant: 78.4, screening length: 8.12261 Bohr) occupying 0.491078 of unit cell:	Completed after 30 iterations at t[s]:    585.37
	FillingsUpdate:  mu: -0.144572935  nElectrons: 76.000000  magneticMoment: [ Abs: 0.00000  Tot: +0.00000 ]
	SubspaceRotationAdjust: set factor to 1.09
ElecMinimize: Iter:  13  F: -590.428796939719291  |grad|_K:  3.449e-07  alpha:  2.567e-01  linmin:  7.377e-06  t[s]:    588.37
	Linear fluid (dielectric constant: 78.4, screening length: 8.12261 Bohr) occupying 0.491045 of unit cell:	Completed after 11 iterations at t[s]:    590.86
	Linear fluid (dielectric constant: 78.4, screening length: 8.12261 Bohr) occupying 0.491042 of unit cell:	Completed after 2 iterations at t[s]:    592.79
	FillingsUpdate:  mu: -0.144958878  nElectrons: 76.000000  magneticMoment: [ Abs: 0.00000  Tot: +0.00000 ]
	SubspaceRotationAdjust: set factor to 1.06
ElecMinimize: Iter:  14  F: -590.428799558446940  |grad|_K:  2.368e-07  alpha:  2.748e-01  linmin:  3.980e-07  t[s]:    595.84
	Linear fluid (dielectric constant: 78.4, screening length: 8.12261 Bohr) occupying 0.491039 of unit cell:	Completed after 8 iterations at t[s]:    598.45
	Linear fluid (dielectric constant: 78.4, screening length: 8.12261 Bohr) occupying 0.491039 of unit cell:	Completed after 2 iterations at t[s]:    600.41
	FillingsUpdate:  mu: -0.145102085  nElectrons: 76.000000  magneticMoment: [ Abs: 0.00000  Tot: +0.00000 ]
	SubspaceRotationAdjust: set factor to 1.15
ElecMinimize: Iter:  15  F: -590.428800755492716  |grad|_K:  1.515e-07  alpha:  2.664e-01  linmin: -3.192e-05  t[s]:    603.42
	Linear fluid (dielectric constant: 78.4, screening length: 8.12261 Bohr) occupying 0.491066 of unit cell:	Completed after 9 iterations at t[s]:    605.82
	Linear fluid (dielectric constant: 78.4, screening length: 8.12261 Bohr) occupying 0.491062 of unit cell:	Completed after 9 iterations at t[s]:    607.92
	FillingsUpdate:  mu: -0.144881180  nElectrons: 76.000000  magneticMoment: [ Abs: 0.00000  Tot: +0.00000 ]
	SubspaceRotationAdjust: set factor to 0.982
ElecMinimize: Iter:  16  F: -590.428801164147217  |grad|_K:  9.842e-08  alpha:  2.220e-01  linmin: -3.690e-05  t[s]:    610.93
	Linear fluid (dielectric constant: 78.4, screening length: 8.12261 Bohr) occupying 0.491064 of unit cell:	Completed after 2 iterations at t[s]:    613.17
	Linear fluid (dielectric constant: 78.4, screening length: 8.12261 Bohr) occupying 0.491065 of unit cell:	Completed after 2 iterations at t[s]:    615.12
	FillingsUpdate:  mu: -0.144902706  nElectrons: 76.000000  magneticMoment: [ Abs: 0.00000  Tot: +0.00000 ]
	SubspaceRotationAdjust: set factor to 1.11
ElecMinimize: Iter:  17  F: -590.428801384913868  |grad|_K:  6.619e-08  alpha:  2.831e-01  linmin:  8.060e-06  t[s]:    618.11
	Linear fluid (dielectric constant: 78.4, screening length: 8.12261 Bohr) occupying 0.491061 of unit cell:	Completed after 8 iterations at t[s]:    620.50
	Linear fluid (dielectric constant: 78.4, screening length: 8.12261 Bohr) occupying 0.491061 of unit cell:	Completed after 0 iterations at t[s]:    622.38
	FillingsUpdate:  mu: -0.144990763  nElectrons: 76.000000  magneticMoment: [ Abs: 0.00000  Tot: +0.00000 ]
	SubspaceRotationAdjust: set factor to 1.08
ElecMinimize: Iter:  18  F: -590.428801478930609  |grad|_K:  4.794e-08  alpha:  2.679e-01  linmin:  1.863e-04  t[s]:    625.45
	Linear fluid (dielectric constant: 78.4, screening length: 8.12261 Bohr) occupying 0.491064 of unit cell:	Completed after 8 iterations at t[s]:    628.00
	Linear fluid (dielectric constant: 78.4, screening length: 8.12261 Bohr) occupying 0.491064 of unit cell:	Completed after 0 iterations at t[s]:    629.90
	FillingsUpdate:  mu: -0.144921136  nElectrons: 76.000000  magneticMoment: [ Abs: 0.00000  Tot: +0.00000 ]
	SubspaceRotationAdjust: set factor to 0.93
ElecMinimize: Iter:  19  F: -590.428801523033712  |grad|_K:  3.449e-08  alpha:  2.422e-01  linmin:  1.249e-04  t[s]:    632.90
ElecMinimize: Converged (|Delta F|<1.000000e-07 for 2 iters).
Setting wave functions to eigenvectors of Hamiltonian
Converging empty states (this may take a while): |deigs|: 1.023e-04

Computing DFT-D3 correction:
# coordination-number Ag 8.906 5.997 5.992 8.901
# diagonal-C6 Ag 268.61 268.61 268.61 268.61
EvdW_6 =   -0.020487
EvdW_8 =   -0.030729

# Ionic positions in cartesian coordinates:
ion Ag  -0.000126045781721  -0.000126038511209  40.278390586486466 1
ion Ag   2.710483305840902   2.710483280551760  44.196496699931267 1
ion Ag  -0.000258208718402   5.420188800464952  32.458897756735404 1
ion Ag   2.710346948659220   2.710346957494497  36.379566956846858 1

# Forces in Cartesian coordinates:
force Ag  -0.000153510013074  -0.000153637507895  -0.000350142865315 1
force Ag   0.000001074684443   0.000001215072972  -0.000354112030922 1
force Ag  -0.000362114854862  -0.000362117533668  -0.000358116694290 1
force Ag   0.000064749985483   0.000064423585079   0.000195438384771 1

# Energy components:
   A_diel =       -0.0002804663839754
   Eewald =     1701.3415590972954305
       EH =     2234.3918715132895159
     Eloc =    -4618.9317686297390537
      Enl =       15.7917004403667462
     EvdW =       -0.0512161210564734
      Exc =      -57.9357645722799504
 Exc_core =        0.8326840122084115
       KE =      134.1324409382605154
-------------------------------------
     Etot =     -590.4287737880388249
       TS =        0.0000277349949127
-------------------------------------
        F =     -590.4288015230337123


Dumping 'jdft.fillings' ... done
Dumping 'jdft.wfns' ... done
Dumping 'jdft.fluidState' ... done
Dumping 'jdft.ionpos' ... done
Dumping 'jdft.lattice' ... done
Dumping 'jdft.eigenvals' ... done
Dumping 'jdft.eigStats' ... 
	eMin: -3.527403 at state 144 ( [ +0.000000 +0.000000 +0.000000 ] spin -1 )
	HOMO: -0.147940 at state 156 ( [ +0.083333 +0.000000 +0.000000 ] spin -1 )
	mu  : -0.144921
	LUMO: -0.141415 at state 52 ( [ +0.333333 +0.333333 +0.000000 ] spin 1 )
	eMax: +0.233359 at state 277 ( [ -0.083333 +0.083333 +0.000000 ] spin -1 )
	HOMO-LUMO gap: +0.006525
	Optical gap  : +0.020187 at state 150 ( [ +0.000000 +0.500000 +0.000000 ] spin -1 )
Dumping 'jdft.Ecomponents' ... done
IonicMinimize: Iter:   2  F: -590.428801523033712  |grad|_K:  1.922e-04  alpha:  8.533e-01  linmin:  1.368e-01  t[s]:    646.58

#--- Lowdin population analysis ---
# oxidation-state Ag -0.039 +0.051 +0.051 -0.039
# magnetic-moments Ag -0.000 +0.000 -0.000 +0.000


Computing DFT-D3 correction:
# coordination-number Ag 8.934 6.009 5.960 8.887
# diagonal-C6 Ag 268.61 268.61 268.61 268.61
EvdW_6 =   -0.020490
EvdW_8 =   -0.030745

-------- Electronic minimization -----------
	Linear fluid (dielectric constant: 78.4, screening length: 8.12261 Bohr) occupying 0.490665 of unit cell:	Completed after 16 iterations at t[s]:    649.36
	FillingsUpdate:  mu: -0.145111680  nElectrons: 76.000000  magneticMoment: [ Abs: 0.00000  Tot: +0.00000 ]
ElecMinimize: Iter:   0  F: -590.428623350606244  |grad|_K:  1.430e-06  alpha:  1.000e+00
	Linear fluid (dielectric constant: 78.4, screening length: 8.12261 Bohr) occupying 0.490964 of unit cell:	Completed after 16 iterations at t[s]:    655.37
	Linear fluid (dielectric constant: 78.4, screening length: 8.12261 Bohr) occupying 0.490916 of unit cell:	Completed after 10 iterations at t[s]:    657.67
	FillingsUpdate:  mu: -0.145780077  nElectrons: 76.000000  magneticMoment: [ Abs: 0.00000  Tot: +0.00000 ]
	SubspaceRotationAdjust: set factor to 0.607
ElecMinimize: Iter:   1  F: -590.428757356618348  |grad|_K:  1.352e-06  alpha:  8.179e-01  linmin:  6.976e-06  t[s]:    660.75
	Linear fluid (dielectric constant: 78.4, screening length: 8.12261 Bohr) occupying 0.491367 of unit cell:	Completed after 17 iterations at t[s]:    663.36
	Linear fluid (dielectric constant: 78.4, screening length: 8.12261 Bohr) occupying 0.491011 of unit cell:	Completed after 17 iterations at t[s]:    665.65
	FillingsUpdate:  mu: -0.144978807  nElectrons: 76.000000  magneticMoment: [ Abs: 0.00000  Tot: +0.00000 ]
	SubspaceRotationAdjust: set factor to 0.364
ElecMinimize: Iter:   2  F: -590.428782615255386  |grad|_K:  4.368e-07  alpha:  1.721e-01  linmin: -5.669e-05  t[s]:    668.65
	Linear fluid (dielectric constant: 78.4, screening length: 8.12261 Bohr) occupying 0.491021 of unit cell:	Completed after 8 iterations at t[s]:    671.07
	Linear fluid (dielectric constant: 78.4, screening length: 8.12261 Bohr) occupying 0.491029 of unit cell:	Completed after 9 iterations at t[s]:    673.18
	FillingsUpdate:  mu: -0.144895223  nElectrons: 76.000000  magneticMoment: [ Abs: 0.00000  Tot: +0.00000 ]
	SubspaceRotationAdjust: set factor to 0.55
ElecMinimize: Iter:   3  F: -590.428787336939877  |grad|_K:  1.517e-07  alpha:  3.072e-01  linmin: -4.973e-04  t[s]:    676.18
	Linear fluid (dielectric constant: 78.4, screening length: 8.12261 Bohr) occupying 0.491027 of unit cell:	Completed after 9 iterations at t[s]:    678.61
	Linear fluid (dielectric constant: 78.4, screening length: 8.12261 Bohr) occupying 0.491027 of unit cell:	Completed after 2 iterations at t[s]:    680.56
	FillingsUpdate:  mu: -0.144958475  nElectrons: 76.000000  magneticMoment: [ Abs: 0.00000  Tot: +0.00000 ]
	SubspaceRotationAdjust: set factor to 0.616
ElecMinimize: Iter:   4  F: -590.428787889720070  |grad|_K:  6.638e-08  alpha:  2.977e-01  linmin:  1.941e-05  t[s]:    684.42
	Linear fluid (dielectric constant: 78.4, screening length: 8.12261 Bohr) occupying 0.491026 of unit cell:	Completed after 2 iterations at t[s]:    687.06
	Linear fluid (dielectric constant: 78.4, screening length: 8.12261 Bohr) occupying 0.491025 of unit cell:	Completed after 2 iterations at t[s]:    689.61
	FillingsUpdate:  mu: -0.144971662  nElectrons: 76.000000  magneticMoment: [ Abs: 0.00000  Tot: +0.00000 ]
	SubspaceRotationAdjust: set factor to 0.69
ElecMinimize: Iter:   5  F: -590.428788027293876  |grad|_K:  3.984e-08  alpha:  3.909e-01  linmin:  2.421e-04  t[s]:    692.60
	Linear fluid (dielectric constant: 78.4, screening length: 8.12261 Bohr) occupying 0.491024 of unit cell:	Completed after 5 iterations at t[s]:    694.92
	Linear fluid (dielectric constant: 78.4, screening length: 8.12261 Bohr) occupying 0.491023 of unit cell:	Completed after 0 iterations at t[s]:    696.80
	FillingsUpdate:  mu: -0.144981314  nElectrons: 76.000000  magneticMoment: [ Abs: 0.00000  Tot: +0.00000 ]
	SubspaceRotationAdjust: set factor to 0.749
ElecMinimize: Iter:   6  F: -590.428788080482036  |grad|_K:  2.997e-08  alpha:  4.218e-01  linmin: -3.254e-04  t[s]:    699.82
	Linear fluid (dielectric constant: 78.4, screening length: 8.12261 Bohr) occupying 0.491023 of unit cell:	Completed after 2 iterations at t[s]:    702.07
	Linear fluid (dielectric constant: 78.4, screening length: 8.12261 Bohr) occupying 0.491023 of unit cell:	Completed after 0 iterations at t[s]:    703.94
	FillingsUpdate:  mu: -0.144977580  nElectrons: 76.000000  magneticMoment: [ Abs: 0.00000  Tot: +0.00000 ]
	SubspaceRotationAdjust: set factor to 0.76
ElecMinimize: Iter:   7  F: -590.428788110188634  |grad|_K:  1.736e-08  alpha:  4.018e-01  linmin: -1.902e-04  t[s]:    706.94
ElecMinimize: Converged (|Delta F|<1.000000e-07 for 2 iters).
Setting wave functions to eigenvectors of Hamiltonian
Converging empty states (this may take a while): |deigs|: 2.899e-07

Computing DFT-D3 correction:
# coordination-number Ag 8.934 6.009 5.960 8.887
# diagonal-C6 Ag 268.61 268.61 268.61 268.61
EvdW_6 =   -0.020490
EvdW_8 =   -0.030745
IonicMinimize: 	Wolfe criterion not satisfied: alpha: 1  (E-E0)/|gdotd0|: 0.916399  gdotd/gdotd0: -0.596367 (taking cubic step)

Computing DFT-D3 correction:
# coordination-number Ag 8.910 5.998 5.988 8.899
# diagonal-C6 Ag 268.61 268.61 268.61 268.61
EvdW_6 =   -0.020487
EvdW_8 =   -0.030731

-------- Electronic minimization -----------
	Linear fluid (dielectric constant: 78.4, screening length: 8.12261 Bohr) occupying 0.491276 of unit cell:	Completed after 11 iterations at t[s]:    716.84
	FillingsUpdate:  mu: -0.145109618  nElectrons: 76.000000  magneticMoment: [ Abs: 0.00000  Tot: +0.00000 ]
ElecMinimize: Iter:   0  F: -590.428677484510331  |grad|_K:  1.135e-06  alpha:  1.000e+00
	Linear fluid (dielectric constant: 78.4, screening length: 8.12261 Bohr) occupying 0.491209 of unit cell:	Completed after 16 iterations at t[s]:    722.89
	Linear fluid (dielectric constant: 78.4, screening length: 8.12261 Bohr) occupying 0.491217 of unit cell:	Completed after 14 iterations at t[s]:    725.10
	FillingsUpdate:  mu: -0.143474180  nElectrons: 76.000000  magneticMoment: [ Abs: 0.00000  Tot: -0.00000 ]
	SubspaceRotationAdjust: set factor to 0.585
ElecMinimize: Iter:   1  F: -590.428770319271507  |grad|_K:  1.170e-06  alpha:  8.993e-01  linmin: -1.961e-05  t[s]:    728.08
	Linear fluid (dielectric constant: 78.4, screening length: 8.12261 Bohr) occupying 0.490565 of unit cell:	Completed after 18 iterations at t[s]:    730.71
	Linear fluid (dielectric constant: 78.4, screening length: 8.12261 Bohr) occupying 0.491058 of unit cell:	Completed after 17 iterations at t[s]:    732.99
	FillingsUpdate:  mu: -0.145085791  nElectrons: 76.000000  magneticMoment: [ Abs: 0.00000  Tot: -0.00000 ]
	SubspaceRotationAdjust: set factor to 0.41
ElecMinimize: Iter:   2  F: -590.428795475344828  |grad|_K:  4.341e-07  alpha:  2.278e-01  linmin: -1.229e-04  t[s]:    735.98
	Linear fluid (dielectric constant: 78.4, screening length: 8.12261 Bohr) occupying 0.491043 of unit cell:	Completed after 6 iterations at t[s]:    738.34
	Linear fluid (dielectric constant: 78.4, screening length: 8.12261 Bohr) occupying 0.491037 of unit cell:	Completed after 5 iterations at t[s]:    740.37
	FillingsUpdate:  mu: -0.145105394  nElectrons: 76.000000  magneticMoment: [ Abs: 0.00000  Tot: -0.00000 ]
	SubspaceRotationAdjust: set factor to 0.535
ElecMinimize: Iter:   3  F: -590.428800305219056  |grad|_K:  1.566e-07  alpha:  3.188e-01  linmin:  3.561e-04  t[s]:    743.35
	Linear fluid (dielectric constant: 78.4, screening length: 8.12261 Bohr) occupying 0.491043 of unit cell:	Completed after 10 iterations at t[s]:    745.90
	Linear fluid (dielectric constant: 78.4, screening length: 8.12261 Bohr) occupying 0.491043 of unit cell:	Completed after 2 iterations at t[s]:    747.97
	FillingsUpdate:  mu: -0.144958999  nElectrons: 76.000000  magneticMoment: [ Abs: 0.00000  Tot: -0.00000 ]
	SubspaceRotationAdjust: set factor to 0.561
ElecMinimize: Iter:   4  F: -590.428800868025064  |grad|_K:  6.487e-08  alpha:  2.880e-01  linmin: -8.263e-05  t[s]:    750.96
	Linear fluid (dielectric constant: 78.4, screening length: 8.12261 Bohr) occupying 0.491044 of unit cell:	Completed after 2 iterations at t[s]:    753.23
	Linear fluid (dielectric constant: 78.4, screening length: 8.12261 Bohr) occupying 0.491044 of unit cell:	Completed after 2 iterations at t[s]:    755.19
	FillingsUpdate:  mu: -0.144956336  nElectrons: 76.000000  magneticMoment: [ Abs: 0.00000  Tot: -0.00000 ]
	SubspaceRotationAdjust: set factor to 0.651
ElecMinimize: Iter:   5  F: -590.428800987215936  |grad|_K:  3.078e-08  alpha:  3.528e-01  linmin: -9.886e-05  t[s]:    758.19
	Linear fluid (dielectric constant: 78.4, screening length: 8.12261 Bohr) occupying 0.491044 of unit cell:	Completed after 2 iterations at t[s]:    760.45
	Linear fluid (dielectric constant: 78.4, screening length: 8.12261 Bohr) occupying 0.491044 of unit cell:	Completed after 2 iterations at t[s]:    762.39
	FillingsUpdate:  mu: -0.144969321  nElectrons: 76.000000  magneticMoment: [ Abs: 0.00000  Tot: -0.00000 ]
	SubspaceRotationAdjust: set factor to 0.741
ElecMinimize: Iter:   6  F: -590.428801017996761  |grad|_K:  2.156e-08  alpha:  4.068e-01  linmin:  4.119e-04  t[s]:    765.38
	Linear fluid (dielectric constant: 78.4, screening length: 8.12261 Bohr) occupying 0.491046 of unit cell:	Completed after 2 iterations at t[s]:    767.62
	Linear fluid (dielectric constant: 78.4, screening length: 8.12261 Bohr) occupying 0.491046 of unit cell:	Completed after 0 iterations at t[s]:    769.50
	FillingsUpdate:  mu: -0.144958453  nElectrons: 76.000000  magneticMoment: [ Abs: 0.00000  Tot: -0.00000 ]
	SubspaceRotationAdjust: set factor to 0.763
ElecMinimize: Iter:   7  F: -590.428801032246497  |grad|_K:  1.417e-08  alpha:  3.917e-01  linmin:  4.357e-04  t[s]:    772.49
ElecMinimize: Converged (|Delta F|<1.000000e-07 for 2 iters).
Setting wave functions to eigenvectors of Hamiltonian
Converging empty states (this may take a while): |deigs|: 1.075e-07

Computing DFT-D3 correction:
# coordination-number Ag 8.910 5.998 5.988 8.899
# diagonal-C6 Ag 268.61 268.61 268.61 268.61
EvdW_6 =   -0.020487
EvdW_8 =   -0.030731
IonicMinimize: 	Wolfe criterion not satisfied: alpha: 0.135156  (E-E0)/|gdotd0|: 0.0335318  gdotd/gdotd0: 0.748215 (taking cubic step)

Computing DFT-D3 correction:
# coordination-number Ag 8.906 5.997 5.991 8.901
# diagonal-C6 Ag 268.61 268.61 268.61 268.61
EvdW_6 =   -0.020487
EvdW_8 =   -0.030730

-------- Electronic minimization -----------
	Linear fluid (dielectric constant: 78.4, screening length: 8.12261 Bohr) occupying 0.491083 of unit cell:	Completed after 9 iterations at t[s]:    782.31
	FillingsUpdate:  mu: -0.144973373  nElectrons: 76.000000  magneticMoment: [ Abs: 0.00000  Tot: -0.00000 ]
ElecMinimize: Iter:   0  F: -590.428799394079419  |grad|_K:  1.549e-07  alpha:  1.000e+00
	Linear fluid (dielectric constant: 78.4, screening length: 8.12261 Bohr) occupying 0.491072 of unit cell:	Completed after 13 iterations at t[s]:    788.22
	Linear fluid (dielectric constant: 78.4, screening length: 8.12261 Bohr) occupying 0.491076 of unit cell:	Completed after 10 iterations at t[s]:    790.36
	FillingsUpdate:  mu: -0.144811208  nElectrons: 76.000000  magneticMoment: [ Abs: 0.00000  Tot: -0.00000 ]
	SubspaceRotationAdjust: set factor to 0.488
ElecMinimize: Iter:   1  F: -590.428800564012249  |grad|_K:  1.881e-07  alpha:  6.092e-01  linmin: -3.172e-05  t[s]:    793.36
	Linear fluid (dielectric constant: 78.4, screening length: 8.12261 Bohr) occupying 0.491027 of unit cell:	Completed after 13 iterations at t[s]:    795.86
	Linear fluid (dielectric constant: 78.4, screening length: 8.12261 Bohr) occupying 0.491053 of unit cell:	Completed after 14 iterations at t[s]:    798.09
	FillingsUpdate:  mu: -0.144940284  nElectrons: 76.000000  magneticMoment: [ Abs: 0.00000  Tot: -0.00000 ]
	SubspaceRotationAdjust: set factor to 0.562
ElecMinimize: Iter:   2  F: -590.428801390476337  |grad|_K:  5.974e-08  alpha:  2.917e-01  linmin: -2.801e-05  t[s]:    801.08
	Linear fluid (dielectric constant: 78.4, screening length: 8.12261 Bohr) occupying 0.491049 of unit cell:	Completed after 2 iterations at t[s]:    803.34
	Linear fluid (dielectric constant: 78.4, screening length: 8.12261 Bohr) occupying 0.491049 of unit cell:	Completed after 2 iterations at t[s]:    805.38
	FillingsUpdate:  mu: -0.144958879  nElectrons: 76.000000  magneticMoment: [ Abs: 0.00000  Tot: -0.00000 ]
	SubspaceRotationAdjust: set factor to 0.61
ElecMinimize: Iter:   3  F: -590.428801486572638  |grad|_K:  2.491e-08  alpha:  3.381e-01  linmin:  2.172e-03  t[s]:    808.48
	Linear fluid (dielectric constant: 78.4, screening length: 8.12261 Bohr) occupying 0.491048 of unit cell:	Completed after 2 iterations at t[s]:    810.73
	Linear fluid (dielectric constant: 78.4, screening length: 8.12261 Bohr) occupying 0.491048 of unit cell:	Completed after 1 iterations at t[s]:    812.65
	FillingsUpdate:  mu: -0.144957022  nElectrons: 76.000000  magneticMoment: [ Abs: 0.00000  Tot: -0.00000 ]
	SubspaceRotationAdjust: set factor to 0.72
ElecMinimize: Iter:   4  F: -590.428801498654479  |grad|_K:  9.652e-09  alpha:  2.563e-01  linmin: -1.159e-03  t[s]:    815.65
ElecMinimize: Converged (|Delta F|<1.000000e-07 for 2 iters).
Setting wave functions to eigenvectors of Hamiltonian
Converging empty states (this may take a while): |deigs|: 1.605e-08

Computing DFT-D3 correction:
# coordination-number Ag 8.906 5.997 5.991 8.901
# diagonal-C6 Ag 268.61 268.61 268.61 268.61
EvdW_6 =   -0.020487
EvdW_8 =   -0.030730
IonicMinimize: 	Wolfe criterion not satisfied: alpha: 0.0231824  (E-E0)/|gdotd0|: 0.00166565  gdotd/gdotd0: 1.04713 (taking cubic step)

Computing DFT-D3 correction:
# coordination-number Ag 8.906 5.997 5.992 8.901
# diagonal-C6 Ag 268.61 268.61 268.61 268.61
EvdW_6 =   -0.020487
EvdW_8 =   -0.030729

-------- Electronic minimization -----------
	Linear fluid (dielectric constant: 78.4, screening length: 8.12261 Bohr) occupying 0.491057 of unit cell:	Completed after 4 iterations at t[s]:    825.21
	FillingsUpdate:  mu: -0.144944438  nElectrons: 76.000000  magneticMoment: [ Abs: 0.00000  Tot: -0.00000 ]
ElecMinimize: Iter:   0  F: -590.428801490650130  |grad|_K:  2.841e-08  alpha:  1.000e+00
	Linear fluid (dielectric constant: 78.4, screening length: 8.12261 Bohr) occupying 0.491050 of unit cell:	Completed after 8 iterations at t[s]:    831.02
	Linear fluid (dielectric constant: 78.4, screening length: 8.12261 Bohr) occupying 0.491054 of unit cell:	Completed after 8 iterations at t[s]:    833.09
	FillingsUpdate:  mu: -0.144959353  nElectrons: 76.000000  magneticMoment: [ Abs: 0.00000  Tot: -0.00000 ]
	SubspaceRotationAdjust: set factor to 0.479
ElecMinimize: Iter:   1  F: -590.428801515556529  |grad|_K:  2.886e-08  alpha:  3.869e-01  linmin: -2.609e-04  t[s]:    836.24
	Linear fluid (dielectric constant: 78.4, screening length: 8.12261 Bohr) occupying 0.491051 of unit cell:	Completed after 5 iterations at t[s]:    838.72
	Linear fluid (dielectric constant: 78.4, screening length: 8.12261 Bohr) occupying 0.491051 of unit cell:	Completed after 2 iterations at t[s]:    840.69
	FillingsUpdate:  mu: -0.144956944  nElectrons: 76.000000  magneticMoment: [ Abs: 0.00000  Tot: -0.00000 ]
	SubspaceRotationAdjust: set factor to 0.666
ElecMinimize: Iter:   2  F: -590.428801547827788  |grad|_K:  1.133e-08  alpha:  4.782e-01  linmin: -3.773e-04  t[s]:    843.68
ElecMinimize: Converged (|Delta F|<1.000000e-07 for 2 iters).
Setting wave functions to eigenvectors of Hamiltonian
Converging empty states (this may take a while): |deigs|: 6.300e-09

Computing DFT-D3 correction:
# coordination-number Ag 8.906 5.997 5.992 8.901
# diagonal-C6 Ag 268.61 268.61 268.61 268.61
EvdW_6 =   -0.020487
EvdW_8 =   -0.030729

# Ionic positions in cartesian coordinates:
ion Ag  -0.000133362383456  -0.000133363684336  40.278396234390136 1
ion Ag   2.710503547235425   2.710503560879067  44.196473249888307 1
ion Ag  -0.000302630015638   5.420144392697260  32.458868994774008 1
ion Ag   2.710378445163668   2.710378410108010  36.379613520947558 1

# Forces in Cartesian coordinates:
force Ag  -0.000131269798993  -0.000131389071006  -0.000231408107847 1
force Ag  -0.000015052122901  -0.000014939317957  -0.000327633341821 1
force Ag  -0.000324738509983  -0.000324755410220  -0.000221440592507 1
force Ag   0.000015240985060   0.000014966787243   0.000041622150657 1

# Energy components:
   A_diel =       -0.0002801101027369
   Eewald =     1701.3428493483488637
       EH =     2234.3911145634310742
     Eloc =    -4618.9322718257690212
      Enl =       15.7916721650734058
     EvdW =       -0.0512161982448020
      Exc =      -57.9357470361316302
 Exc_core =        0.8326840124070156
       KE =      134.1324212434060144
-------------------------------------
     Etot =     -590.4287738375817298
       TS =        0.0000277102460790
-------------------------------------
        F =     -590.4288015478277885


Dumping 'jdft.fillings' ... done
Dumping 'jdft.wfns' ... done
Dumping 'jdft.fluidState' ... done
Dumping 'jdft.ionpos' ... done
Dumping 'jdft.lattice' ... done
Dumping 'jdft.eigenvals' ... done
Dumping 'jdft.eigStats' ... 
	eMin: -3.527488 at state 144 ( [ +0.000000 +0.000000 +0.000000 ] spin -1 )
	HOMO: -0.147970 at state 12 ( [ +0.083333 +0.000000 +0.000000 ] spin 1 )
	mu  : -0.144957
	LUMO: -0.141456 at state 104 ( [ -0.333333 -0.333333 +0.000000 ] spin 1 )
	eMax: +0.233330 at state 277 ( [ -0.083333 +0.083333 +0.000000 ] spin -1 )
	HOMO-LUMO gap: +0.006514
	Optical gap  : +0.020210 at state 6 ( [ +0.000000 +0.500000 +0.000000 ] spin 1 )
Dumping 'jdft.Ecomponents' ... done
IonicMinimize: Iter:   3  F: -590.428801547827788  |grad|_K:  1.346e-04  alpha:  4.390e-03  linmin: -6.626e-01  t[s]:    851.00

#--- Lowdin population analysis ---
# oxidation-state Ag -0.039 +0.051 +0.051 -0.039
# magnetic-moments Ag +0.000 +0.000 -0.000 +0.000


Computing DFT-D3 correction:
# coordination-number Ag 8.919 6.006 5.997 8.910
# diagonal-C6 Ag 268.61 268.61 268.61 268.61
EvdW_6 =   -0.020498
EvdW_8 =   -0.030744

-------- Electronic minimization -----------
	Linear fluid (dielectric constant: 78.4, screening length: 8.12261 Bohr) occupying 0.491446 of unit cell:	Completed after 12 iterations at t[s]:    853.67
	FillingsUpdate:  mu: -0.144858646  nElectrons: 76.000000  magneticMoment: [ Abs: 0.00000  Tot: -0.00000 ]
ElecMinimize: Iter:   0  F: -590.428796171527665  |grad|_K:  2.723e-07  alpha:  1.000e+00
	Linear fluid (dielectric constant: 78.4, screening length: 8.12261 Bohr) occupying 0.491335 of unit cell:	Completed after 14 iterations at t[s]:    859.60
	Linear fluid (dielectric constant: 78.4, screening length: 8.12261 Bohr) occupying 0.491342 of unit cell:	Completed after 2 iterations at t[s]:    861.55
	FillingsUpdate:  mu: -0.144653207  nElectrons: 76.000000  magneticMoment: [ Abs: 0.00000  Tot: +0.00000 ]
	SubspaceRotationAdjust: set factor to 0.905
ElecMinimize: Iter:   1  F: -590.428801726969596  |grad|_K:  2.462e-07  alpha:  9.345e-01  linmin: -1.154e-05  t[s]:    864.54
	Linear fluid (dielectric constant: 78.4, screening length: 8.12261 Bohr) occupying 0.491136 of unit cell:	Completed after 16 iterations at t[s]:    867.32
	Linear fluid (dielectric constant: 78.4, screening length: 8.12261 Bohr) occupying 0.491267 of unit cell:	Completed after 16 iterations at t[s]:    869.74
	FillingsUpdate:  mu: -0.145032493  nElectrons: 76.000000  magneticMoment: [ Abs: 0.00000  Tot: +0.00000 ]
	SubspaceRotationAdjust: set factor to 0.756
ElecMinimize: Iter:   2  F: -590.428803388951906  |grad|_K:  1.313e-07  alpha:  3.425e-01  linmin:  1.955e-05  t[s]:    872.75
[...]
	FillingsUpdate:  mu: -0.144971565  nElectrons: 76.000000  magneticMoment: [ Abs: 0.00000  Tot: +0.00000 ]
	SubspaceRotationAdjust: set factor to 0.549
ElecMinimize: Iter:   2  F: -590.428801822155719  |grad|_K:  2.207e-07  alpha:  4.757e-01  linmin: -5.164e-06  t[s]:    923.54
	Linear fluid (dielectric constant: 78.4, screening length: 8.12261 Bohr) occupying 0.491364 of unit cell:	Completed after 8 iterations at t[s]:    926.04
	Linear fluid (dielectric constant: 78.4, screening length: 8.12261 Bohr) occupying 0.491376 of unit cell:	Completed after 6 iterations at t[s]:    928.23
	FillingsUpdate:  mu: -0.144926987  nElectrons: 76.000000  magneticMoment: [ Abs: 0.00000  Tot: +0.00000 ]
	SubspaceRotationAdjust: set factor to 0.578
ElecMinimize: Iter:   3  F: -590.428803103717883  |grad|_K:  1.031e-07  alpha:  3.284e-01  linmin: -2.410e-05  t[s]:    931.26
	Linear fluid (dielectric constant: 78.4, screening length: 8.12261 Bohr) occupying 0.491372 of unit cell:	Completed after 8 iterations at t[s]:    933.64
	Linear fluid (dielectric constant: 78.4, screening length: 8.12261 Bohr) occupying 0.491372 of unit cell:	Completed after 1 iterations at t[s]:    935.57
	FillingsUpdate:  mu: -0.144872157  nElectrons: 76.000000  magneticMoment: [ Abs: 0.00000  Tot: +0.00000 ]
	SubspaceRotationAdjust: set factor to 0.583
ElecMinimize: Iter:   4  F: -590.428803361876476  |grad|_K:  4.649e-08  alpha:  3.028e-01  linmin: -1.696e-04  t[s]:    938.54
	Linear fluid (dielectric constant: 78.4, screening length: 8.12261 Bohr) occupying 0.491370 of unit cell:	Completed after 5 iterations at t[s]:    940.86
	Linear fluid (dielectric constant: 78.4, screening length: 8.12261 Bohr) occupying 0.491369 of unit cell:	Completed after 2 iterations at t[s]:    942.79
	FillingsUpdate:  mu: -0.144906516  nElectrons: 76.000000  magneticMoment: [ Abs: 0.00000  Tot: +0.00000 ]
	SubspaceRotationAdjust: set factor to 0.56
ElecMinimize: Iter:   5  F: -590.428803422806368  |grad|_K:  2.133e-08  alpha:  3.509e-01  linmin:  1.535e-04  t[s]:    945.80
	Linear fluid (dielectric constant: 78.4, screening length: 8.12261 Bohr) occupying 0.491370 of unit cell:	Completed after 2 iterations at t[s]:    948.04
	Linear fluid (dielectric constant: 78.4, screening length: 8.12261 Bohr) occupying 0.491370 of unit cell:	Completed after 0 iterations at t[s]:    949.90
	FillingsUpdate:  mu: -0.144905316  nElectrons: 76.000000  magneticMoment: [ Abs: 0.00000  Tot: +0.00000 ]
	SubspaceRotationAdjust: set factor to 0.593
ElecMinimize: Iter:   6  F: -590.428803437329861  |grad|_K:  1.082e-08  alpha:  3.989e-01  linmin: -3.160e-04  t[s]:    952.89
ElecMinimize: Converged (|Delta F|<1.000000e-07 for 2 iters).
Setting wave functions to eigenvectors of Hamiltonian
Converging empty states (this may take a while): |deigs|: 2.183e-08

Computing DFT-D3 correction:
# coordination-number Ag 8.926 6.015 6.001 8.912
# diagonal-C6 Ag 268.61 268.61 268.61 268.61
EvdW_6 =   -0.020503
EvdW_8 =   -0.030748
IonicMinimize: 	Wolfe criterion not satisfied: alpha: 1  (E-E0)/|gdotd0|: 0.177036  gdotd/gdotd0: 0.295316 (taking cubic step)

Computing DFT-D3 correction:
# coordination-number Ag 8.921 6.008 5.998 8.911
# diagonal-C6 Ag 268.61 268.61 268.61 268.61
EvdW_6 =   -0.020499
EvdW_8 =   -0.030745

-------- Electronic minimization -----------
	Linear fluid (dielectric constant: 78.4, screening length: 8.12261 Bohr) occupying 0.491129 of unit cell:	Completed after 12 iterations at t[s]:    962.87
	FillingsUpdate:  mu: -0.144881126  nElectrons: 76.000000  magneticMoment: [ Abs: 0.00000  Tot: +0.00000 ]
ElecMinimize: Iter:   0  F: -590.428795255385467  |grad|_K:  2.726e-07  alpha:  1.000e+00
	Linear fluid (dielectric constant: 78.4, screening length: 8.12261 Bohr) occupying 0.491186 of unit cell:	Completed after 14 iterations at t[s]:    968.80
	Linear fluid (dielectric constant: 78.4, screening length: 8.12261 Bohr) occupying 0.491184 of unit cell:	Completed after 2 iterations at t[s]:    970.75
	FillingsUpdate:  mu: -0.145477479  nElectrons: 76.000000  magneticMoment: [ Abs: 0.00000  Tot: -0.00000 ]
	SubspaceRotationAdjust: set factor to 0.615
ElecMinimize: Iter:   1  F: -590.428801015175964  |grad|_K:  2.967e-07  alpha:  9.667e-01  linmin:  1.209e-05  t[s]:    973.74
	Linear fluid (dielectric constant: 78.4, screening length: 8.12261 Bohr) occupying 0.491432 of unit cell:	Completed after 16 iterations at t[s]:    976.33
	Linear fluid (dielectric constant: 78.4, screening length: 8.12261 Bohr) occupying 0.491269 of unit cell:	Completed after 15 iterations at t[s]:    978.57
	FillingsUpdate:  mu: -0.144819828  nElectrons: 76.000000  magneticMoment: [ Abs: 0.00000  Tot: -0.00000 ]
	SubspaceRotationAdjust: set factor to 0.487
ElecMinimize: Iter:   2  F: -590.428803314679385  |grad|_K:  1.386e-07  alpha:  3.271e-01  linmin:  2.404e-05  t[s]:    981.57
	Linear fluid (dielectric constant: 78.4, screening length: 8.12261 Bohr) occupying 0.491280 of unit cell:	Completed after 9 iterations at t[s]:    984.84
	Linear fluid (dielectric constant: 78.4, screening length: 8.12261 Bohr) occupying 0.491280 of unit cell:	Completed after 0 iterations at t[s]:    987.26
	FillingsUpdate:  mu: -0.144890952  nElectrons: 76.000000  magneticMoment: [ Abs: 0.00000  Tot: -0.00000 ]
	SubspaceRotationAdjust: set factor to 0.507
ElecMinimize: Iter:   3  F: -590.428803815826086  |grad|_K:  5.777e-08  alpha:  3.257e-01  linmin:  1.294e-04  t[s]:    990.27
	Linear fluid (dielectric constant: 78.4, screening length: 8.12261 Bohr) occupying 0.491281 of unit cell:	Completed after 8 iterations at t[s]:    992.67
	Linear fluid (dielectric constant: 78.4, screening length: 8.12261 Bohr) occupying 0.491281 of unit cell:	Completed after 2 iterations at t[s]:    994.59
	FillingsUpdate:  mu: -0.144923244  nElectrons: 76.000000  magneticMoment: [ Abs: 0.00000  Tot: -0.00000 ]
	SubspaceRotationAdjust: set factor to 0.509
ElecMinimize: Iter:   4  F: -590.428803888408311  |grad|_K:  2.455e-08  alpha:  2.726e-01  linmin: -3.814e-06  t[s]:    997.57
	Linear fluid (dielectric constant: 78.4, screening length: 8.12261 Bohr) occupying 0.491281 of unit cell:	Completed after 2 iterations at t[s]:    999.80
	Linear fluid (dielectric constant: 78.4, screening length: 8.12261 Bohr) occupying 0.491282 of unit cell:	Completed after 2 iterations at t[s]:   1001.76
	FillingsUpdate:  mu: -0.144914033  nElectrons: 76.000000  magneticMoment: [ Abs: 0.00000  Tot: -0.00000 ]
	SubspaceRotationAdjust: set factor to 0.527
ElecMinimize: Iter:   5  F: -590.428803905146992  |grad|_K:  9.606e-09  alpha:  3.465e-01  linmin: -3.040e-04  t[s]:   1004.75
ElecMinimize: Converged (|Delta F|<1.000000e-07 for 2 iters).
Setting wave functions to eigenvectors of Hamiltonian
Converging empty states (this may take a while): |deigs|: 8.199e-09

Computing DFT-D3 correction:
# coordination-number Ag 8.921 6.008 5.998 8.911
# diagonal-C6 Ag 268.61 268.61 268.61 268.61
EvdW_6 =   -0.020499
EvdW_8 =   -0.030745

# Ionic positions in cartesian coordinates:
ion Ag  -0.000158734853978  -0.000159112214797  40.278182790650924 1
ion Ag   2.711499612021963   2.711501278398485  44.190101120962609 1
ion Ag  -0.002257629018650   5.418189806684314  32.463740777764968 1
ion Ag   2.711362751850666   2.711361027131999  36.381327310621515 1

# Forces in Cartesian coordinates:
force Ag  -0.000124327219597  -0.000124445962084  -0.000459607463254 1
force Ag  -0.000003871347973  -0.000003796196833  -0.000160569020306 1
force Ag  -0.000318668778757  -0.000318720929491  -0.000413909606673 1
force Ag  -0.000000884845146  -0.000001150750755   0.000205375680425 1

# Energy components:
   A_diel =       -0.0002808307697230
   Eewald =     1703.1287849402715437
       EH =     2236.1716900996216282
     Eloc =    -4622.4992886901763995
      Enl =       15.7912955023785546
     EvdW =       -0.0512435923173300
      Exc =      -57.9364341368257527
 Exc_core =        0.8326840288919869
       KE =      134.1340171180031575
-------------------------------------
     Etot =     -590.4287755609224178
       TS =        0.0000283442245852
-------------------------------------
        F =     -590.4288039051469923


Dumping 'jdft.fillings' ... done
Dumping 'jdft.wfns' ... done
Dumping 'jdft.fluidState' ... done
Dumping 'jdft.ionpos' ... done
Dumping 'jdft.lattice' ... done
Dumping 'jdft.eigenvals' ... done
Dumping 'jdft.eigStats' ... 
	eMin: -3.527592 at state 144 ( [ +0.000000 +0.000000 +0.000000 ] spin -1 )
	HOMO: -0.147868 at state 132 ( [ -0.083333 +0.000000 +0.000000 ] spin 1 )
	mu  : -0.144914
	LUMO: -0.141476 at state 104 ( [ -0.333333 -0.333333 +0.000000 ] spin 1 )
	eMax: +0.233476 at state 277 ( [ -0.083333 +0.083333 +0.000000 ] spin -1 )
	HOMO-LUMO gap: +0.006392
	Optical gap  : +0.020190 at state 216 ( [ +0.500000 +0.000000 +0.000000 ] spin -1 )
Dumping 'jdft.Ecomponents' ... done
IonicMinimize: Iter:   5  F: -590.428803905146992  |grad|_K:  1.854e-04  alpha:  2.188e-01  linmin: -2.172e-01  t[s]:   1011.95

#--- Lowdin population analysis ---
# oxidation-state Ag -0.040 +0.051 +0.051 -0.039
# magnetic-moments Ag +0.000 -0.000 -0.000 -0.000


Computing DFT-D3 correction:
# coordination-number Ag 8.925 6.012 6.003 8.916
# diagonal-C6 Ag 268.61 268.61 268.61 268.61
EvdW_6 =   -0.020504
EvdW_8 =   -0.030751

-------- Electronic minimization -----------
	Linear fluid (dielectric constant: 78.4, screening length: 8.12261 Bohr) occupying 0.491510 of unit cell:	Completed after 12 iterations at t[s]:   1014.62
	FillingsUpdate:  mu: -0.144889234  nElectrons: 76.000000  magneticMoment: [ Abs: 0.00000  Tot: -0.00000 ]
ElecMinimize: Iter:   0  F: -590.428794382283400  |grad|_K:  2.735e-07  alpha:  1.000e+00
	Linear fluid (dielectric constant: 78.4, screening length: 8.12261 Bohr) occupying 0.491461 of unit cell:	Completed after 14 iterations at t[s]:   1020.68
	Linear fluid (dielectric constant: 78.4, screening length: 8.12261 Bohr) occupying 0.491460 of unit cell:	Completed after 2 iterations at t[s]:   1022.64
	FillingsUpdate:  mu: -0.144600181  nElectrons: 76.000000  magneticMoment: [ Abs: 0.00000  Tot: +0.00000 ]
	SubspaceRotationAdjust: set factor to 0.721
ElecMinimize: Iter:   1  F: -590.428800500018610  |grad|_K:  2.722e-07  alpha:  1.020e+00  linmin: -3.342e-06  t[s]:   1025.62
	Linear fluid (dielectric constant: 78.4, screening length: 8.12261 Bohr) occupying 0.491306 of unit cell:	Completed after 15 iterations at t[s]:   1028.17
	Linear fluid (dielectric constant: 78.4, screening length: 8.12261 Bohr) occupying 0.491396 of unit cell:	Completed after 14 iterations at t[s]:   1030.39
	FillingsUpdate:  mu: -0.145029591  nElectrons: 76.000000  magneticMoment: [ Abs: 0.00000  Tot: +0.00000 ]
	SubspaceRotationAdjust: set factor to 0.712
ElecMinimize: Iter:   2  F: -590.428803055768299  |grad|_K:  1.573e-07  alpha:  4.302e-01  linmin: -6.819e-06  t[s]:   1033.37
	Linear fluid (dielectric constant: 78.4, screening length: 8.12261 Bohr) occupying 0.491391 of unit cell:	Completed after 11 iterations at t[s]:   1035.83
	Linear fluid (dielectric constant: 78.4, screening length: 8.12261 Bohr) occupying 0.491392 of unit cell:	Completed after 8 iterations at t[s]:   1037.92
	FillingsUpdate:  mu: -0.144860715  nElectrons: 76.000000  magneticMoment: [ Abs: 0.00000  Tot: +0.00000 ]
	SubspaceRotationAdjust: set factor to 0.563
ElecMinimize: Iter:   3  F: -590.428803666382692  |grad|_K:  6.288e-08  alpha:  3.082e-01  linmin: -4.108e-05  t[s]:   1040.93
	Linear fluid (dielectric constant: 78.4, screening length: 8.12261 Bohr) occupying 0.491387 of unit cell:	Completed after 8 iterations at t[s]:   1043.33
	Linear fluid (dielectric constant: 78.4, screening length: 8.12261 Bohr) occupying 0.491387 of unit cell:	Completed after 0 iterations at t[s]:   1045.20
	FillingsUpdate:  mu: -0.144900320  nElectrons: 76.000000  magneticMoment: [ Abs: 0.00000  Tot: +0.00000 ]
	SubspaceRotationAdjust: set factor to 0.481
ElecMinimize: Iter:   4  F: -590.428803765058547  |grad|_K:  2.978e-08  alpha:  3.110e-01  linmin: -3.787e-04  t[s]:   1048.46
	Linear fluid (dielectric constant: 78.4, screening length: 8.12261 Bohr) occupying 0.491386 of unit cell:	Completed after 5 iterations at t[s]:   1050.79
	Linear fluid (dielectric constant: 78.4, screening length: 8.12261 Bohr) occupying 0.491386 of unit cell:	Completed after 0 iterations at t[s]:   1052.68
	FillingsUpdate:  mu: -0.144904578  nElectrons: 76.000000  magneticMoment: [ Abs: 0.00000  Tot: +0.00000 ]
	SubspaceRotationAdjust: set factor to 0.438
ElecMinimize: Iter:   5  F: -590.428803786366984  |grad|_K:  1.388e-08  alpha:  2.974e-01  linmin:  1.324e-03  t[s]:   1055.66
ElecMinimize: Converged (|Delta F|<1.000000e-07 for 2 iters).
Setting wave functions to eigenvectors of Hamiltonian
Converging empty states (this may take a while): |deigs|: 1.369e-08

Computing DFT-D3 correction:
# coordination-number Ag 8.925 6.012 6.003 8.916
# diagonal-C6 Ag 268.61 268.61 268.61 268.61
EvdW_6 =   -0.020504
EvdW_8 =   -0.030751
IonicMinimize: 	Wolfe criterion not satisfied: alpha: 1  (E-E0)/|gdotd0|: 0.0639715  gdotd/gdotd0: 0.37395 (taking cubic step)

Computing DFT-D3 correction:
# coordination-number Ag 8.922 6.009 5.999 8.912
# diagonal-C6 Ag 268.61 268.61 268.61 268.61
EvdW_6 =   -0.020500
EvdW_8 =   -0.030746

-------- Electronic minimization -----------
	Linear fluid (dielectric constant: 78.4, screening length: 8.12261 Bohr) occupying 0.491215 of unit cell:	Completed after 12 iterations at t[s]:   1065.35
	FillingsUpdate:  mu: -0.144894659  nElectrons: 76.000000  magneticMoment: [ Abs: 0.00000  Tot: +0.00000 ]
ElecMinimize: Iter:   0  F: -590.428798676705696  |grad|_K:  1.931e-07  alpha:  1.000e+00
	Linear fluid (dielectric constant: 78.4, screening length: 8.12261 Bohr) occupying 0.491243 of unit cell:	Completed after 14 iterations at t[s]:   1071.26
	Linear fluid (dielectric constant: 78.4, screening length: 8.12261 Bohr) occupying 0.491242 of unit cell:	Completed after 2 iterations at t[s]:   1073.20
	FillingsUpdate:  mu: -0.145172958  nElectrons: 76.000000  magneticMoment: [ Abs: 0.00000  Tot: -0.00000 ]
	SubspaceRotationAdjust: set factor to 0.585
ElecMinimize: Iter:   1  F: -590.428801569030725  |grad|_K:  2.120e-07  alpha:  9.682e-01  linmin:  7.559e-06  t[s]:   1076.33
	Linear fluid (dielectric constant: 78.4, screening length: 8.12261 Bohr) occupying 0.491345 of unit cell:	Completed after 15 iterations at t[s]:   1079.03
	Linear fluid (dielectric constant: 78.4, screening length: 8.12261 Bohr) occupying 0.491293 of unit cell:	Completed after 13 iterations at t[s]:   1081.22
	FillingsUpdate:  mu: -0.144857249  nElectrons: 76.000000  magneticMoment: [ Abs: 0.00000  Tot: -0.00000 ]
	SubspaceRotationAdjust: set factor to 0.616
ElecMinimize: Iter:   2  F: -590.428803309752084  |grad|_K:  1.417e-07  alpha:  4.840e-01  linmin: -1.076e-05  t[s]:   1084.23
	Linear fluid (dielectric constant: 78.4, screening length: 8.12261 Bohr) occupying 0.491312 of unit cell:	Completed after 8 iterations at t[s]:   1086.63
	Linear fluid (dielectric constant: 78.4, screening length: 8.12261 Bohr) occupying 0.491306 of unit cell:	Completed after 6 iterations at t[s]:   1088.65
	FillingsUpdate:  mu: -0.144893259  nElectrons: 76.000000  magneticMoment: [ Abs: 0.00000  Tot: -0.00000 ]
	SubspaceRotationAdjust: set factor to 0.631
ElecMinimize: Iter:   3  F: -590.428803851149155  |grad|_K:  6.510e-08  alpha:  3.356e-01  linmin:  1.175e-04  t[s]:   1091.64
	Linear fluid (dielectric constant: 78.4, screening length: 8.12261 Bohr) occupying 0.491307 of unit cell:	Completed after 8 iterations at t[s]:   1094.03
	Linear fluid (dielectric constant: 78.4, screening length: 8.12261 Bohr) occupying 0.491307 of unit cell:	Completed after 2 iterations at t[s]:   1095.97
	FillingsUpdate:  mu: -0.144937494  nElectrons: 76.000000  magneticMoment: [ Abs: 0.00000  Tot: -0.00000 ]
	SubspaceRotationAdjust: set factor to 0.57
ElecMinimize: Iter:   4  F: -590.428803950646056  |grad|_K:  3.078e-08  alpha:  2.946e-01  linmin: -3.569e-04  t[s]:   1098.99
	Linear fluid (dielectric constant: 78.4, screening length: 8.12261 Bohr) occupying 0.491310 of unit cell:	Completed after 6 iterations at t[s]:   1101.36
	Linear fluid (dielectric constant: 78.4, screening length: 8.12261 Bohr) occupying 0.491310 of unit cell:	Completed after 0 iterations at t[s]:   1103.22
	FillingsUpdate:  mu: -0.144905603  nElectrons: 76.000000  magneticMoment: [ Abs: 0.00000  Tot: -0.00000 ]
	SubspaceRotationAdjust: set factor to 0.46
ElecMinimize: Iter:   5  F: -590.428803975079404  |grad|_K:  1.335e-08  alpha:  3.186e-01  linmin: -1.885e-03  t[s]:   1106.31
ElecMinimize: Converged (|Delta F|<1.000000e-07 for 2 iters).
Setting wave functions to eigenvectors of Hamiltonian
Converging empty states (this may take a while): |deigs|: 5.964e-09

Computing DFT-D3 correction:
# coordination-number Ag 8.922 6.009 5.999 8.912
# diagonal-C6 Ag 268.61 268.61 268.61 268.61
EvdW_6 =   -0.020500
EvdW_8 =   -0.030746

# Ionic positions in cartesian coordinates:
ion Ag   0.000108059663680   0.000107491956120  40.278089729992388 1
ion Ag   2.712152653725036   2.712155157791648  44.189492653182299 1
ion Ag  -0.003330056577357   5.417117414214454  32.464440114353437 1
ion Ag   2.711515343188641   2.711512936037778  36.381329502471893 1

# Forces in Cartesian coordinates:
force Ag  -0.000129234203336  -0.000129340756377  -0.000431117801816 1
force Ag  -0.000018200908329  -0.000018156713627  -0.000199757049648 1
force Ag  -0.000290545891240  -0.000290610782033  -0.000433823635190 1
force Ag  -0.000016673396748  -0.000016907273345   0.000253548637924 1

# Energy components:
   A_diel =       -0.0002809613492360
   Eewald =     1703.3299904082980447
       EH =     2236.3727606121065037
     Eloc =    -4622.9016414984271250
      Enl =       15.7912746593629905
     EvdW =       -0.0512465196827903
      Exc =      -57.9365164510745956
 Exc_core =        0.8326840284875869
       KE =      134.1342001744175434
-------------------------------------
     Etot =     -590.4287755478608233
       TS =        0.0000284272185985
-------------------------------------
        F =     -590.4288039750794042


Dumping 'jdft.fillings' ... done
Dumping 'jdft.wfns' ... done
Dumping 'jdft.fluidState' ... done
Dumping 'jdft.ionpos' ... done
Dumping 'jdft.lattice' ... done
Dumping 'jdft.eigenvals' ... done
Dumping 'jdft.eigStats' ... 
	eMin: -3.527585 at state 144 ( [ +0.000000 +0.000000 +0.000000 ] spin -1 )
	HOMO: -0.147854 at state 132 ( [ -0.083333 +0.000000 +0.000000 ] spin 1 )
	mu  : -0.144906
	LUMO: -0.141475 at state 104 ( [ -0.333333 -0.333333 +0.000000 ] spin 1 )
	eMax: +0.233497 at state 277 ( [ -0.083333 +0.083333 +0.000000 ] spin -1 )
	HOMO-LUMO gap: +0.006379
	Optical gap  : +0.020191 at state 216 ( [ +0.500000 +0.000000 +0.000000 ] spin -1 )
Dumping 'jdft.Ecomponents' ... done
IonicMinimize: Iter:   6  F: -590.428803975079404  |grad|_K:  1.857e-04  alpha:  2.495e-01  linmin: -2.268e-01  t[s]:   1113.76
IonicMinimize: Converged (|Delta F|<1.000000e-06 for 2 iters).

#--- Lowdin population analysis ---
# oxidation-state Ag -0.039 +0.051 +0.051 -0.039
# magnetic-moments Ag +0.000 -0.000 -0.000 +0.000


Dumping 'jdft.n_up' ... done
Dumping 'jdft.n_dn' ... done
Dumping 'jdft.tau_up' ... done
Dumping 'jdft.tau_dn' ... done
Dumping 'jdft.eigenvals' ... done
Dumping 'jdft.eigStats' ... 
	eMin: -3.527585 at state 144 ( [ +0.000000 +0.000000 +0.000000 ] spin -1 )
	HOMO: -0.147854 at state 132 ( [ -0.083333 +0.000000 +0.000000 ] spin 1 )
	mu  : -0.144906
	LUMO: -0.141475 at state 104 ( [ -0.333333 -0.333333 +0.000000 ] spin 1 )
	eMax: +0.233497 at state 277 ( [ -0.083333 +0.083333 +0.000000 ] spin -1 )
	HOMO-LUMO gap: +0.006379
	Optical gap  : +0.020191 at state 216 ( [ +0.500000 +0.000000 +0.000000 ] spin -1 )
Dumping 'jdft.kPts' ... done
Dumping 'jdft.dosUp' ... done.
Dumping 'jdft.dosDn' ... done.
End date and time: Mon Dec  6 17:34:13 2021  (Duration: 0-0:18:38.83)
Done!
