
*************** JDFTx 1.6.0  ***************

Start date and time: Sun Feb 20 05:23:03 2022
Executable /projects/musgravc/apps/jdftx-1.6.1/build/jdftx with command-line: -i in
Running on hosts (process indices):  shas0460.rc.int.colorado.edu (0-23)
Divided in process groups (process indices):  0 (0)  1 (1)  2 (2)  3 (3)  4 (4)  5 (5)  6 (6)  7 (7)  8 (8)  9 (9)  10 (10)  11 (11)  12 (12)  13 (13)  14 (14)  15 (15)  16 (16)  17 (17)  18 (18)  19 (19)  20 (20)  21 (21)  22 (22)  23 (23)
Resource initialization completed at t[s]:      0.00
Run totals: 24 processes, 24 threads, 0 GPUs


Input parsed successfully to the following command list (including defaults):

basis kpoint-dependent
converge-empty-states yes
coords-type Cartesian
core-overlap-check none
coulomb-interaction Periodic
davidson-band-ratio 1.1
density-of-states Etol 1.000000e-06 Esigma 1.000000e-03 \
		Complete \
	Total \
	OrthoOrbital Pt 1   s \
	OrthoOrbital Pt 1   p \
	OrthoOrbital Pt 1   px \
	OrthoOrbital Pt 1   py \
	OrthoOrbital Pt 1   pz \
	OrthoOrbital Pt 1   d \
	OrthoOrbital Pt 1   dxy \
	OrthoOrbital Pt 1   dyz \
	OrthoOrbital Pt 1   dz2 \
	OrthoOrbital Pt 1   dxz \
	OrthoOrbital Pt 1   dx2-y2 \
	OrthoOrbital Pt 2   s \
	OrthoOrbital Pt 2   p \
	OrthoOrbital Pt 2   px \
	OrthoOrbital Pt 2   py \
	OrthoOrbital Pt 2   pz \
	OrthoOrbital Pt 2   d \
	OrthoOrbital Pt 2   dxy \
	OrthoOrbital Pt 2   dyz \
	OrthoOrbital Pt 2   dz2 \
	OrthoOrbital Pt 2   dxz \
	OrthoOrbital Pt 2   dx2-y2 \
	OrthoOrbital Pt 3   s \
	OrthoOrbital Pt 3   p \
	OrthoOrbital Pt 3   px \
	OrthoOrbital Pt 3   py \
	OrthoOrbital Pt 3   pz \
	OrthoOrbital Pt 3   d \
	OrthoOrbital Pt 3   dxy \
	OrthoOrbital Pt 3   dyz \
	OrthoOrbital Pt 3   dz2 \
	OrthoOrbital Pt 3   dxz \
	OrthoOrbital Pt 3   dx2-y2 \
	OrthoOrbital Pt 4   s \
	OrthoOrbital Pt 4   p \
	OrthoOrbital Pt 4   px \
	OrthoOrbital Pt 4   py \
	OrthoOrbital Pt 4   pz \
	OrthoOrbital Pt 4   d \
	OrthoOrbital Pt 4   dxy \
	OrthoOrbital Pt 4   dyz \
	OrthoOrbital Pt 4   dz2 \
	OrthoOrbital Pt 4   dxz \
	OrthoOrbital Pt 4   dx2-y2 \
	OrthoOrbital Pt 5   s \
	OrthoOrbital Pt 5   p \
	OrthoOrbital Pt 5   px \
	OrthoOrbital Pt 5   py \
	OrthoOrbital Pt 5   pz \
	OrthoOrbital Pt 5   d \
	OrthoOrbital Pt 5   dxy \
	OrthoOrbital Pt 5   dyz \
	OrthoOrbital Pt 5   dz2 \
	OrthoOrbital Pt 5   dxz \
	OrthoOrbital Pt 5   dx2-y2 \
	OrthoOrbital Pt 6   s \
	OrthoOrbital Pt 6   p \
	OrthoOrbital Pt 6   px \
	OrthoOrbital Pt 6   py \
	OrthoOrbital Pt 6   pz \
	OrthoOrbital Pt 6   d \
	OrthoOrbital Pt 6   dxy \
	OrthoOrbital Pt 6   dyz \
	OrthoOrbital Pt 6   dz2 \
	OrthoOrbital Pt 6   dxz \
	OrthoOrbital Pt 6   dx2-y2 \
	OrthoOrbital Pt 7   s \
	OrthoOrbital Pt 7   p \
	OrthoOrbital Pt 7   px \
	OrthoOrbital Pt 7   py \
	OrthoOrbital Pt 7   pz \
	OrthoOrbital Pt 7   d \
	OrthoOrbital Pt 7   dxy \
	OrthoOrbital Pt 7   dyz \
	OrthoOrbital Pt 7   dz2 \
	OrthoOrbital Pt 7   dxz \
	OrthoOrbital Pt 7   dx2-y2 \
	OrthoOrbital Pt 8   s \
	OrthoOrbital Pt 8   p \
	OrthoOrbital Pt 8   px \
	OrthoOrbital Pt 8   py \
	OrthoOrbital Pt 8   pz \
	OrthoOrbital Pt 8   d \
	OrthoOrbital Pt 8   dxy \
	OrthoOrbital Pt 8   dyz \
	OrthoOrbital Pt 8   dz2 \
	OrthoOrbital Pt 8   dxz \
	OrthoOrbital Pt 8   dx2-y2 \
	OrthoOrbital Pt 9   s \
	OrthoOrbital Pt 9   p \
	OrthoOrbital Pt 9   px \
	OrthoOrbital Pt 9   py \
	OrthoOrbital Pt 9   pz \
	OrthoOrbital Pt 9   d \
	OrthoOrbital Pt 9   dxy \
	OrthoOrbital Pt 9   dyz \
	OrthoOrbital Pt 9   dz2 \
	OrthoOrbital Pt 9   dxz \
	OrthoOrbital Pt 9   dx2-y2 \
	OrthoOrbital Pt 10   s \
	OrthoOrbital Pt 10   p \
	OrthoOrbital Pt 10   px \
	OrthoOrbital Pt 10   py \
	OrthoOrbital Pt 10   pz \
	OrthoOrbital Pt 10   d \
	OrthoOrbital Pt 10   dxy \
	OrthoOrbital Pt 10   dyz \
	OrthoOrbital Pt 10   dz2 \
	OrthoOrbital Pt 10   dxz \
	OrthoOrbital Pt 10   dx2-y2 \
	OrthoOrbital Pt 11   s \
	OrthoOrbital Pt 11   p \
	OrthoOrbital Pt 11   px \
	OrthoOrbital Pt 11   py \
	OrthoOrbital Pt 11   pz \
	OrthoOrbital Pt 11   d \
	OrthoOrbital Pt 11   dxy \
	OrthoOrbital Pt 11   dyz \
	OrthoOrbital Pt 11   dz2 \
	OrthoOrbital Pt 11   dxz \
	OrthoOrbital Pt 11   dx2-y2 \
	OrthoOrbital Pt 12   s \
	OrthoOrbital Pt 12   p \
	OrthoOrbital Pt 12   px \
	OrthoOrbital Pt 12   py \
	OrthoOrbital Pt 12   pz \
	OrthoOrbital Pt 12   d \
	OrthoOrbital Pt 12   dxy \
	OrthoOrbital Pt 12   dyz \
	OrthoOrbital Pt 12   dz2 \
	OrthoOrbital Pt 12   dxz \
	OrthoOrbital Pt 12   dx2-y2 \
	OrthoOrbital Pt 13   s \
	OrthoOrbital Pt 13   p \
	OrthoOrbital Pt 13   px \
	OrthoOrbital Pt 13   py \
	OrthoOrbital Pt 13   pz \
	OrthoOrbital Pt 13   d \
	OrthoOrbital Pt 13   dxy \
	OrthoOrbital Pt 13   dyz \
	OrthoOrbital Pt 13   dz2 \
	OrthoOrbital Pt 13   dxz \
	OrthoOrbital Pt 13   dx2-y2 \
	OrthoOrbital Pt 14   s \
	OrthoOrbital Pt 14   p \
	OrthoOrbital Pt 14   px \
	OrthoOrbital Pt 14   py \
	OrthoOrbital Pt 14   pz \
	OrthoOrbital Pt 14   d \
	OrthoOrbital Pt 14   dxy \
	OrthoOrbital Pt 14   dyz \
	OrthoOrbital Pt 14   dz2 \
	OrthoOrbital Pt 14   dxz \
	OrthoOrbital Pt 14   dx2-y2 \
	OrthoOrbital Pt 15   s \
	OrthoOrbital Pt 15   p \
	OrthoOrbital Pt 15   px \
	OrthoOrbital Pt 15   py \
	OrthoOrbital Pt 15   pz \
	OrthoOrbital Pt 15   d \
	OrthoOrbital Pt 15   dxy \
	OrthoOrbital Pt 15   dyz \
	OrthoOrbital Pt 15   dz2 \
	OrthoOrbital Pt 15   dxz \
	OrthoOrbital Pt 15   dx2-y2 \
	OrthoOrbital Pt 16   s \
	OrthoOrbital Pt 16   p \
	OrthoOrbital Pt 16   px \
	OrthoOrbital Pt 16   py \
	OrthoOrbital Pt 16   pz \
	OrthoOrbital Pt 16   d \
	OrthoOrbital Pt 16   dxy \
	OrthoOrbital Pt 16   dyz \
	OrthoOrbital Pt 16   dz2 \
	OrthoOrbital Pt 16   dxz \
	OrthoOrbital Pt 16   dx2-y2 \
	OrthoOrbital Pt 17   s \
	OrthoOrbital Pt 17   p \
	OrthoOrbital Pt 17   px \
	OrthoOrbital Pt 17   py \
	OrthoOrbital Pt 17   pz \
	OrthoOrbital Pt 17   d \
	OrthoOrbital Pt 17   dxy \
	OrthoOrbital Pt 17   dyz \
	OrthoOrbital Pt 17   dz2 \
	OrthoOrbital Pt 17   dxz \
	OrthoOrbital Pt 17   dx2-y2 \
	OrthoOrbital Pt 18   s \
	OrthoOrbital Pt 18   p \
	OrthoOrbital Pt 18   px \
	OrthoOrbital Pt 18   py \
	OrthoOrbital Pt 18   pz \
	OrthoOrbital Pt 18   d \
	OrthoOrbital Pt 18   dxy \
	OrthoOrbital Pt 18   dyz \
	OrthoOrbital Pt 18   dz2 \
	OrthoOrbital Pt 18   dxz \
	OrthoOrbital Pt 18   dx2-y2 \
	OrthoOrbital Pt 19   s \
	OrthoOrbital Pt 19   p \
	OrthoOrbital Pt 19   px \
	OrthoOrbital Pt 19   py \
	OrthoOrbital Pt 19   pz \
	OrthoOrbital Pt 19   d \
	OrthoOrbital Pt 19   dxy \
	OrthoOrbital Pt 19   dyz \
	OrthoOrbital Pt 19   dz2 \
	OrthoOrbital Pt 19   dxz \
	OrthoOrbital Pt 19   dx2-y2 \
	OrthoOrbital Pt 20   s \
	OrthoOrbital Pt 20   p \
	OrthoOrbital Pt 20   px \
	OrthoOrbital Pt 20   py \
	OrthoOrbital Pt 20   pz \
	OrthoOrbital Pt 20   d \
	OrthoOrbital Pt 20   dxy \
	OrthoOrbital Pt 20   dyz \
	OrthoOrbital Pt 20   dz2 \
	OrthoOrbital Pt 20   dxz \
	OrthoOrbital Pt 20   dx2-y2 \
	OrthoOrbital Pt 21   s \
	OrthoOrbital Pt 21   p \
	OrthoOrbital Pt 21   px \
	OrthoOrbital Pt 21   py \
	OrthoOrbital Pt 21   pz \
	OrthoOrbital Pt 21   d \
	OrthoOrbital Pt 21   dxy \
	OrthoOrbital Pt 21   dyz \
	OrthoOrbital Pt 21   dz2 \
	OrthoOrbital Pt 21   dxz \
	OrthoOrbital Pt 21   dx2-y2 \
	OrthoOrbital Pt 22   s \
	OrthoOrbital Pt 22   p \
	OrthoOrbital Pt 22   px \
	OrthoOrbital Pt 22   py \
	OrthoOrbital Pt 22   pz \
	OrthoOrbital Pt 22   d \
	OrthoOrbital Pt 22   dxy \
	OrthoOrbital Pt 22   dyz \
	OrthoOrbital Pt 22   dz2 \
	OrthoOrbital Pt 22   dxz \
	OrthoOrbital Pt 22   dx2-y2 \
	OrthoOrbital Pt 23   s \
	OrthoOrbital Pt 23   p \
	OrthoOrbital Pt 23   px \
	OrthoOrbital Pt 23   py \
	OrthoOrbital Pt 23   pz \
	OrthoOrbital Pt 23   d \
	OrthoOrbital Pt 23   dxy \
	OrthoOrbital Pt 23   dyz \
	OrthoOrbital Pt 23   dz2 \
	OrthoOrbital Pt 23   dxz \
	OrthoOrbital Pt 23   dx2-y2 \
	OrthoOrbital Pt 24   s \
	OrthoOrbital Pt 24   p \
	OrthoOrbital Pt 24   px \
	OrthoOrbital Pt 24   py \
	OrthoOrbital Pt 24   pz \
	OrthoOrbital Pt 24   d \
	OrthoOrbital Pt 24   dxy \
	OrthoOrbital Pt 24   dyz \
	OrthoOrbital Pt 24   dz2 \
	OrthoOrbital Pt 24   dxz \
	OrthoOrbital Pt 24   dx2-y2 \
	OrthoOrbital Pt 25   s \
	OrthoOrbital Pt 25   p \
	OrthoOrbital Pt 25   px \
	OrthoOrbital Pt 25   py \
	OrthoOrbital Pt 25   pz \
	OrthoOrbital Pt 25   d \
	OrthoOrbital Pt 25   dxy \
	OrthoOrbital Pt 25   dyz \
	OrthoOrbital Pt 25   dz2 \
	OrthoOrbital Pt 25   dxz \
	OrthoOrbital Pt 25   dx2-y2 \
	OrthoOrbital Pt 26   s \
	OrthoOrbital Pt 26   p \
	OrthoOrbital Pt 26   px \
	OrthoOrbital Pt 26   py \
	OrthoOrbital Pt 26   pz \
	OrthoOrbital Pt 26   d \
	OrthoOrbital Pt 26   dxy \
	OrthoOrbital Pt 26   dyz \
	OrthoOrbital Pt 26   dz2 \
	OrthoOrbital Pt 26   dxz \
	OrthoOrbital Pt 26   dx2-y2 \
	OrthoOrbital Pt 27   s \
	OrthoOrbital Pt 27   p \
	OrthoOrbital Pt 27   px \
	OrthoOrbital Pt 27   py \
	OrthoOrbital Pt 27   pz \
	OrthoOrbital Pt 27   d \
	OrthoOrbital Pt 27   dxy \
	OrthoOrbital Pt 27   dyz \
	OrthoOrbital Pt 27   dz2 \
	OrthoOrbital Pt 27   dxz \
	OrthoOrbital Pt 27   dx2-y2 \
	OrthoOrbital Pt 28   s \
	OrthoOrbital Pt 28   p \
	OrthoOrbital Pt 28   px \
	OrthoOrbital Pt 28   py \
	OrthoOrbital Pt 28   pz \
	OrthoOrbital Pt 28   d \
	OrthoOrbital Pt 28   dxy \
	OrthoOrbital Pt 28   dyz \
	OrthoOrbital Pt 28   dz2 \
	OrthoOrbital Pt 28   dxz \
	OrthoOrbital Pt 28   dx2-y2 \
	OrthoOrbital Pt 29   s \
	OrthoOrbital Pt 29   p \
	OrthoOrbital Pt 29   px \
	OrthoOrbital Pt 29   py \
	OrthoOrbital Pt 29   pz \
	OrthoOrbital Pt 29   d \
	OrthoOrbital Pt 29   dxy \
	OrthoOrbital Pt 29   dyz \
	OrthoOrbital Pt 29   dz2 \
	OrthoOrbital Pt 29   dxz \
	OrthoOrbital Pt 29   dx2-y2 \
	OrthoOrbital Pt 30   s \
	OrthoOrbital Pt 30   p \
	OrthoOrbital Pt 30   px \
	OrthoOrbital Pt 30   py \
	OrthoOrbital Pt 30   pz \
	OrthoOrbital Pt 30   d \
	OrthoOrbital Pt 30   dxy \
	OrthoOrbital Pt 30   dyz \
	OrthoOrbital Pt 30   dz2 \
	OrthoOrbital Pt 30   dxz \
	OrthoOrbital Pt 30   dx2-y2 \
	OrthoOrbital Pt 31   s \
	OrthoOrbital Pt 31   p \
	OrthoOrbital Pt 31   px \
	OrthoOrbital Pt 31   py \
	OrthoOrbital Pt 31   pz \
	OrthoOrbital Pt 31   d \
	OrthoOrbital Pt 31   dxy \
	OrthoOrbital Pt 31   dyz \
	OrthoOrbital Pt 31   dz2 \
	OrthoOrbital Pt 31   dxz \
	OrthoOrbital Pt 31   dx2-y2 \
	OrthoOrbital Pt 32   s \
	OrthoOrbital Pt 32   p \
	OrthoOrbital Pt 32   px \
	OrthoOrbital Pt 32   py \
	OrthoOrbital Pt 32   pz \
	OrthoOrbital Pt 32   d \
	OrthoOrbital Pt 32   dxy \
	OrthoOrbital Pt 32   dyz \
	OrthoOrbital Pt 32   dz2 \
	OrthoOrbital Pt 32   dxz \
	OrthoOrbital Pt 32   dx2-y2 \
	OrthoOrbital Pt 33   s \
	OrthoOrbital Pt 33   p \
	OrthoOrbital Pt 33   px \
	OrthoOrbital Pt 33   py \
	OrthoOrbital Pt 33   pz \
	OrthoOrbital Pt 33   d \
	OrthoOrbital Pt 33   dxy \
	OrthoOrbital Pt 33   dyz \
	OrthoOrbital Pt 33   dz2 \
	OrthoOrbital Pt 33   dxz \
	OrthoOrbital Pt 33   dx2-y2 \
	OrthoOrbital Pt 34   s \
	OrthoOrbital Pt 34   p \
	OrthoOrbital Pt 34   px \
	OrthoOrbital Pt 34   py \
	OrthoOrbital Pt 34   pz \
	OrthoOrbital Pt 34   d \
	OrthoOrbital Pt 34   dxy \
	OrthoOrbital Pt 34   dyz \
	OrthoOrbital Pt 34   dz2 \
	OrthoOrbital Pt 34   dxz \
	OrthoOrbital Pt 34   dx2-y2 \
	OrthoOrbital Pt 35   s \
	OrthoOrbital Pt 35   p \
	OrthoOrbital Pt 35   px \
	OrthoOrbital Pt 35   py \
	OrthoOrbital Pt 35   pz \
	OrthoOrbital Pt 35   d \
	OrthoOrbital Pt 35   dxy \
	OrthoOrbital Pt 35   dyz \
	OrthoOrbital Pt 35   dz2 \
	OrthoOrbital Pt 35   dxz \
	OrthoOrbital Pt 35   dx2-y2 \
	OrthoOrbital Pt 36   s \
	OrthoOrbital Pt 36   p \
	OrthoOrbital Pt 36   px \
	OrthoOrbital Pt 36   py \
	OrthoOrbital Pt 36   pz \
	OrthoOrbital Pt 36   d \
	OrthoOrbital Pt 36   dxy \
	OrthoOrbital Pt 36   dyz \
	OrthoOrbital Pt 36   dz2 \
	OrthoOrbital Pt 36   dxz \
	OrthoOrbital Pt 36   dx2-y2 \
	OrthoOrbital Pt 37   s \
	OrthoOrbital Pt 37   p \
	OrthoOrbital Pt 37   px \
	OrthoOrbital Pt 37   py \
	OrthoOrbital Pt 37   pz \
	OrthoOrbital Pt 37   d \
	OrthoOrbital Pt 37   dxy \
	OrthoOrbital Pt 37   dyz \
	OrthoOrbital Pt 37   dz2 \
	OrthoOrbital Pt 37   dxz \
	OrthoOrbital Pt 37   dx2-y2 \
	OrthoOrbital Pt 38   s \
	OrthoOrbital Pt 38   p \
	OrthoOrbital Pt 38   px \
	OrthoOrbital Pt 38   py \
	OrthoOrbital Pt 38   pz \
	OrthoOrbital Pt 38   d \
	OrthoOrbital Pt 38   dxy \
	OrthoOrbital Pt 38   dyz \
	OrthoOrbital Pt 38   dz2 \
	OrthoOrbital Pt 38   dxz \
	OrthoOrbital Pt 38   dx2-y2 \
	OrthoOrbital Pt 39   s \
	OrthoOrbital Pt 39   p \
	OrthoOrbital Pt 39   px \
	OrthoOrbital Pt 39   py \
	OrthoOrbital Pt 39   pz \
	OrthoOrbital Pt 39   d \
	OrthoOrbital Pt 39   dxy \
	OrthoOrbital Pt 39   dyz \
	OrthoOrbital Pt 39   dz2 \
	OrthoOrbital Pt 39   dxz \
	OrthoOrbital Pt 39   dx2-y2 \
	OrthoOrbital Pt 40   s \
	OrthoOrbital Pt 40   p \
	OrthoOrbital Pt 40   px \
	OrthoOrbital Pt 40   py \
	OrthoOrbital Pt 40   pz \
	OrthoOrbital Pt 40   d \
	OrthoOrbital Pt 40   dxy \
	OrthoOrbital Pt 40   dyz \
	OrthoOrbital Pt 40   dz2 \
	OrthoOrbital Pt 40   dxz \
	OrthoOrbital Pt 40   dx2-y2 \
	OrthoOrbital Pt 41   s \
	OrthoOrbital Pt 41   p \
	OrthoOrbital Pt 41   px \
	OrthoOrbital Pt 41   py \
	OrthoOrbital Pt 41   pz \
	OrthoOrbital Pt 41   d \
	OrthoOrbital Pt 41   dxy \
	OrthoOrbital Pt 41   dyz \
	OrthoOrbital Pt 41   dz2 \
	OrthoOrbital Pt 41   dxz \
	OrthoOrbital Pt 41   dx2-y2 \
	OrthoOrbital Pt 42   s \
	OrthoOrbital Pt 42   p \
	OrthoOrbital Pt 42   px \
	OrthoOrbital Pt 42   py \
	OrthoOrbital Pt 42   pz \
	OrthoOrbital Pt 42   d \
	OrthoOrbital Pt 42   dxy \
	OrthoOrbital Pt 42   dyz \
	OrthoOrbital Pt 42   dz2 \
	OrthoOrbital Pt 42   dxz \
	OrthoOrbital Pt 42   dx2-y2 \
	OrthoOrbital Pt 43   s \
	OrthoOrbital Pt 43   p \
	OrthoOrbital Pt 43   px \
	OrthoOrbital Pt 43   py \
	OrthoOrbital Pt 43   pz \
	OrthoOrbital Pt 43   d \
	OrthoOrbital Pt 43   dxy \
	OrthoOrbital Pt 43   dyz \
	OrthoOrbital Pt 43   dz2 \
	OrthoOrbital Pt 43   dxz \
	OrthoOrbital Pt 43   dx2-y2 \
	OrthoOrbital Pt 44   s \
	OrthoOrbital Pt 44   p \
	OrthoOrbital Pt 44   px \
	OrthoOrbital Pt 44   py \
	OrthoOrbital Pt 44   pz \
	OrthoOrbital Pt 44   d \
	OrthoOrbital Pt 44   dxy \
	OrthoOrbital Pt 44   dyz \
	OrthoOrbital Pt 44   dz2 \
	OrthoOrbital Pt 44   dxz \
	OrthoOrbital Pt 44   dx2-y2 \
	OrthoOrbital Pt 45   s \
	OrthoOrbital Pt 45   p \
	OrthoOrbital Pt 45   px \
	OrthoOrbital Pt 45   py \
	OrthoOrbital Pt 45   pz \
	OrthoOrbital Pt 45   d \
	OrthoOrbital Pt 45   dxy \
	OrthoOrbital Pt 45   dyz \
	OrthoOrbital Pt 45   dz2 \
	OrthoOrbital Pt 45   dxz \
	OrthoOrbital Pt 45   dx2-y2 \
	OrthoOrbital Pt 46   s \
	OrthoOrbital Pt 46   p \
	OrthoOrbital Pt 46   px \
	OrthoOrbital Pt 46   py \
	OrthoOrbital Pt 46   pz \
	OrthoOrbital Pt 46   d \
	OrthoOrbital Pt 46   dxy \
	OrthoOrbital Pt 46   dyz \
	OrthoOrbital Pt 46   dz2 \
	OrthoOrbital Pt 46   dxz \
	OrthoOrbital Pt 46   dx2-y2 \
	OrthoOrbital Pt 47   s \
	OrthoOrbital Pt 47   p \
	OrthoOrbital Pt 47   px \
	OrthoOrbital Pt 47   py \
	OrthoOrbital Pt 47   pz \
	OrthoOrbital Pt 47   d \
	OrthoOrbital Pt 47   dxy \
	OrthoOrbital Pt 47   dyz \
	OrthoOrbital Pt 47   dz2 \
	OrthoOrbital Pt 47   dxz \
	OrthoOrbital Pt 47   dx2-y2 \
	OrthoOrbital Pt 48   s \
	OrthoOrbital Pt 48   p \
	OrthoOrbital Pt 48   px \
	OrthoOrbital Pt 48   py \
	OrthoOrbital Pt 48   pz \
	OrthoOrbital Pt 48   d \
	OrthoOrbital Pt 48   dxy \
	OrthoOrbital Pt 48   dyz \
	OrthoOrbital Pt 48   dz2 \
	OrthoOrbital Pt 48   dxz \
	OrthoOrbital Pt 48   dx2-y2 \
	OrthoOrbital Pt 49   s \
	OrthoOrbital Pt 49   p \
	OrthoOrbital Pt 49   px \
	OrthoOrbital Pt 49   py \
	OrthoOrbital Pt 49   pz \
	OrthoOrbital Pt 49   d \
	OrthoOrbital Pt 49   dxy \
	OrthoOrbital Pt 49   dyz \
	OrthoOrbital Pt 49   dz2 \
	OrthoOrbital Pt 49   dxz \
	OrthoOrbital Pt 49   dx2-y2 \
	OrthoOrbital Pt 50   s \
	OrthoOrbital Pt 50   p \
	OrthoOrbital Pt 50   px \
	OrthoOrbital Pt 50   py \
	OrthoOrbital Pt 50   pz \
	OrthoOrbital Pt 50   d \
	OrthoOrbital Pt 50   dxy \
	OrthoOrbital Pt 50   dyz \
	OrthoOrbital Pt 50   dz2 \
	OrthoOrbital Pt 50   dxz \
	OrthoOrbital Pt 50   dx2-y2 \
	OrthoOrbital Pt 51   s \
	OrthoOrbital Pt 51   p \
	OrthoOrbital Pt 51   px \
	OrthoOrbital Pt 51   py \
	OrthoOrbital Pt 51   pz \
	OrthoOrbital Pt 51   d \
	OrthoOrbital Pt 51   dxy \
	OrthoOrbital Pt 51   dyz \
	OrthoOrbital Pt 51   dz2 \
	OrthoOrbital Pt 51   dxz \
	OrthoOrbital Pt 51   dx2-y2 \
	OrthoOrbital Pt 52   s \
	OrthoOrbital Pt 52   p \
	OrthoOrbital Pt 52   px \
	OrthoOrbital Pt 52   py \
	OrthoOrbital Pt 52   pz \
	OrthoOrbital Pt 52   d \
	OrthoOrbital Pt 52   dxy \
	OrthoOrbital Pt 52   dyz \
	OrthoOrbital Pt 52   dz2 \
	OrthoOrbital Pt 52   dxz \
	OrthoOrbital Pt 52   dx2-y2 \
	OrthoOrbital Pt 53   s \
	OrthoOrbital Pt 53   p \
	OrthoOrbital Pt 53   px \
	OrthoOrbital Pt 53   py \
	OrthoOrbital Pt 53   pz \
	OrthoOrbital Pt 53   d \
	OrthoOrbital Pt 53   dxy \
	OrthoOrbital Pt 53   dyz \
	OrthoOrbital Pt 53   dz2 \
	OrthoOrbital Pt 53   dxz \
	OrthoOrbital Pt 53   dx2-y2 \
	OrthoOrbital Pt 54   s \
	OrthoOrbital Pt 54   p \
	OrthoOrbital Pt 54   px \
	OrthoOrbital Pt 54   py \
	OrthoOrbital Pt 54   pz \
	OrthoOrbital Pt 54   d \
	OrthoOrbital Pt 54   dxy \
	OrthoOrbital Pt 54   dyz \
	OrthoOrbital Pt 54   dz2 \
	OrthoOrbital Pt 54   dxz \
	OrthoOrbital Pt 54   dx2-y2 \
	OrthoOrbital Pt 55   s \
	OrthoOrbital Pt 55   p \
	OrthoOrbital Pt 55   px \
	OrthoOrbital Pt 55   py \
	OrthoOrbital Pt 55   pz \
	OrthoOrbital Pt 55   d \
	OrthoOrbital Pt 55   dxy \
	OrthoOrbital Pt 55   dyz \
	OrthoOrbital Pt 55   dz2 \
	OrthoOrbital Pt 55   dxz \
	OrthoOrbital Pt 55   dx2-y2 \
	OrthoOrbital Pt 56   s \
	OrthoOrbital Pt 56   p \
	OrthoOrbital Pt 56   px \
	OrthoOrbital Pt 56   py \
	OrthoOrbital Pt 56   pz \
	OrthoOrbital Pt 56   d \
	OrthoOrbital Pt 56   dxy \
	OrthoOrbital Pt 56   dyz \
	OrthoOrbital Pt 56   dz2 \
	OrthoOrbital Pt 56   dxz \
	OrthoOrbital Pt 56   dx2-y2 \
	OrthoOrbital Pt 57   s \
	OrthoOrbital Pt 57   p \
	OrthoOrbital Pt 57   px \
	OrthoOrbital Pt 57   py \
	OrthoOrbital Pt 57   pz \
	OrthoOrbital Pt 57   d \
	OrthoOrbital Pt 57   dxy \
	OrthoOrbital Pt 57   dyz \
	OrthoOrbital Pt 57   dz2 \
	OrthoOrbital Pt 57   dxz \
	OrthoOrbital Pt 57   dx2-y2 \
	OrthoOrbital Pt 58   s \
	OrthoOrbital Pt 58   p \
	OrthoOrbital Pt 58   px \
	OrthoOrbital Pt 58   py \
	OrthoOrbital Pt 58   pz \
	OrthoOrbital Pt 58   d \
	OrthoOrbital Pt 58   dxy \
	OrthoOrbital Pt 58   dyz \
	OrthoOrbital Pt 58   dz2 \
	OrthoOrbital Pt 58   dxz \
	OrthoOrbital Pt 58   dx2-y2 \
	OrthoOrbital Pt 59   s \
	OrthoOrbital Pt 59   p \
	OrthoOrbital Pt 59   px \
	OrthoOrbital Pt 59   py \
	OrthoOrbital Pt 59   pz \
	OrthoOrbital Pt 59   d \
	OrthoOrbital Pt 59   dxy \
	OrthoOrbital Pt 59   dyz \
	OrthoOrbital Pt 59   dz2 \
	OrthoOrbital Pt 59   dxz \
	OrthoOrbital Pt 59   dx2-y2 \
	OrthoOrbital Pt 60   s \
	OrthoOrbital Pt 60   p \
	OrthoOrbital Pt 60   px \
	OrthoOrbital Pt 60   py \
	OrthoOrbital Pt 60   pz \
	OrthoOrbital Pt 60   d \
	OrthoOrbital Pt 60   dxy \
	OrthoOrbital Pt 60   dyz \
	OrthoOrbital Pt 60   dz2 \
	OrthoOrbital Pt 60   dxz \
	OrthoOrbital Pt 60   dx2-y2 \
	OrthoOrbital Pt 61   s \
	OrthoOrbital Pt 61   p \
	OrthoOrbital Pt 61   px \
	OrthoOrbital Pt 61   py \
	OrthoOrbital Pt 61   pz \
	OrthoOrbital Pt 61   d \
	OrthoOrbital Pt 61   dxy \
	OrthoOrbital Pt 61   dyz \
	OrthoOrbital Pt 61   dz2 \
	OrthoOrbital Pt 61   dxz \
	OrthoOrbital Pt 61   dx2-y2 \
	OrthoOrbital Pt 62   s \
	OrthoOrbital Pt 62   p \
	OrthoOrbital Pt 62   px \
	OrthoOrbital Pt 62   py \
	OrthoOrbital Pt 62   pz \
	OrthoOrbital Pt 62   d \
	OrthoOrbital Pt 62   dxy \
	OrthoOrbital Pt 62   dyz \
	OrthoOrbital Pt 62   dz2 \
	OrthoOrbital Pt 62   dxz \
	OrthoOrbital Pt 62   dx2-y2 \
	OrthoOrbital Pt 63   s \
	OrthoOrbital Pt 63   p \
	OrthoOrbital Pt 63   px \
	OrthoOrbital Pt 63   py \
	OrthoOrbital Pt 63   pz \
	OrthoOrbital Pt 63   d \
	OrthoOrbital Pt 63   dxy \
	OrthoOrbital Pt 63   dyz \
	OrthoOrbital Pt 63   dz2 \
	OrthoOrbital Pt 63   dxz \
	OrthoOrbital Pt 63   dx2-y2 \
	OrthoOrbital Pt 64   s \
	OrthoOrbital Pt 64   p \
	OrthoOrbital Pt 64   px \
	OrthoOrbital Pt 64   py \
	OrthoOrbital Pt 64   pz \
	OrthoOrbital Pt 64   d \
	OrthoOrbital Pt 64   dxy \
	OrthoOrbital Pt 64   dyz \
	OrthoOrbital Pt 64   dz2 \
	OrthoOrbital Pt 64   dxz \
	OrthoOrbital Pt 64   dx2-y2 \
	OrthoOrbital Pt 65   s \
	OrthoOrbital Pt 65   p \
	OrthoOrbital Pt 65   px \
	OrthoOrbital Pt 65   py \
	OrthoOrbital Pt 65   pz \
	OrthoOrbital Pt 65   d \
	OrthoOrbital Pt 65   dxy \
	OrthoOrbital Pt 65   dyz \
	OrthoOrbital Pt 65   dz2 \
	OrthoOrbital Pt 65   dxz \
	OrthoOrbital Pt 65   dx2-y2 \
	OrthoOrbital Pt 66   s \
	OrthoOrbital Pt 66   p \
	OrthoOrbital Pt 66   px \
	OrthoOrbital Pt 66   py \
	OrthoOrbital Pt 66   pz \
	OrthoOrbital Pt 66   d \
	OrthoOrbital Pt 66   dxy \
	OrthoOrbital Pt 66   dyz \
	OrthoOrbital Pt 66   dz2 \
	OrthoOrbital Pt 66   dxz \
	OrthoOrbital Pt 66   dx2-y2 \
	OrthoOrbital Pt 67   s \
	OrthoOrbital Pt 67   p \
	OrthoOrbital Pt 67   px \
	OrthoOrbital Pt 67   py \
	OrthoOrbital Pt 67   pz \
	OrthoOrbital Pt 67   d \
	OrthoOrbital Pt 67   dxy \
	OrthoOrbital Pt 67   dyz \
	OrthoOrbital Pt 67   dz2 \
	OrthoOrbital Pt 67   dxz \
	OrthoOrbital Pt 67   dx2-y2 \
	OrthoOrbital Pt 68   s \
	OrthoOrbital Pt 68   p \
	OrthoOrbital Pt 68   px \
	OrthoOrbital Pt 68   py \
	OrthoOrbital Pt 68   pz \
	OrthoOrbital Pt 68   d \
	OrthoOrbital Pt 68   dxy \
	OrthoOrbital Pt 68   dyz \
	OrthoOrbital Pt 68   dz2 \
	OrthoOrbital Pt 68   dxz \
	OrthoOrbital Pt 68   dx2-y2 \
	OrthoOrbital Pt 69   s \
	OrthoOrbital Pt 69   p \
	OrthoOrbital Pt 69   px \
	OrthoOrbital Pt 69   py \
	OrthoOrbital Pt 69   pz \
	OrthoOrbital Pt 69   d \
	OrthoOrbital Pt 69   dxy \
	OrthoOrbital Pt 69   dyz \
	OrthoOrbital Pt 69   dz2 \
	OrthoOrbital Pt 69   dxz \
	OrthoOrbital Pt 69   dx2-y2 \
	OrthoOrbital Pt 70   s \
	OrthoOrbital Pt 70   p \
	OrthoOrbital Pt 70   px \
	OrthoOrbital Pt 70   py \
	OrthoOrbital Pt 70   pz \
	OrthoOrbital Pt 70   d \
	OrthoOrbital Pt 70   dxy \
	OrthoOrbital Pt 70   dyz \
	OrthoOrbital Pt 70   dz2 \
	OrthoOrbital Pt 70   dxz \
	OrthoOrbital Pt 70   dx2-y2 \
	OrthoOrbital Pt 71   s \
	OrthoOrbital Pt 71   p \
	OrthoOrbital Pt 71   px \
	OrthoOrbital Pt 71   py \
	OrthoOrbital Pt 71   pz \
	OrthoOrbital Pt 71   d \
	OrthoOrbital Pt 71   dxy \
	OrthoOrbital Pt 71   dyz \
	OrthoOrbital Pt 71   dz2 \
	OrthoOrbital Pt 71   dxz \
	OrthoOrbital Pt 71   dx2-y2 \
	OrthoOrbital Pt 72   s \
	OrthoOrbital Pt 72   p \
	OrthoOrbital Pt 72   px \
	OrthoOrbital Pt 72   py \
	OrthoOrbital Pt 72   pz \
	OrthoOrbital Pt 72   d \
	OrthoOrbital Pt 72   dxy \
	OrthoOrbital Pt 72   dyz \
	OrthoOrbital Pt 72   dz2 \
	OrthoOrbital Pt 72   dxz \
	OrthoOrbital Pt 72   dx2-y2 \
	OrthoOrbital Pt 73   s \
	OrthoOrbital Pt 73   p \
	OrthoOrbital Pt 73   px \
	OrthoOrbital Pt 73   py \
	OrthoOrbital Pt 73   pz \
	OrthoOrbital Pt 73   d \
	OrthoOrbital Pt 73   dxy \
	OrthoOrbital Pt 73   dyz \
	OrthoOrbital Pt 73   dz2 \
	OrthoOrbital Pt 73   dxz \
	OrthoOrbital Pt 73   dx2-y2 \
	OrthoOrbital Pt 74   s \
	OrthoOrbital Pt 74   p \
	OrthoOrbital Pt 74   px \
	OrthoOrbital Pt 74   py \
	OrthoOrbital Pt 74   pz \
	OrthoOrbital Pt 74   d \
	OrthoOrbital Pt 74   dxy \
	OrthoOrbital Pt 74   dyz \
	OrthoOrbital Pt 74   dz2 \
	OrthoOrbital Pt 74   dxz \
	OrthoOrbital Pt 74   dx2-y2 \
	OrthoOrbital Pt 75   s \
	OrthoOrbital Pt 75   p \
	OrthoOrbital Pt 75   px \
	OrthoOrbital Pt 75   py \
	OrthoOrbital Pt 75   pz \
	OrthoOrbital Pt 75   d \
	OrthoOrbital Pt 75   dxy \
	OrthoOrbital Pt 75   dyz \
	OrthoOrbital Pt 75   dz2 \
	OrthoOrbital Pt 75   dxz \
	OrthoOrbital Pt 75   dx2-y2 \
	OrthoOrbital Pt 76   s \
	OrthoOrbital Pt 76   p \
	OrthoOrbital Pt 76   px \
	OrthoOrbital Pt 76   py \
	OrthoOrbital Pt 76   pz \
	OrthoOrbital Pt 76   d \
	OrthoOrbital Pt 76   dxy \
	OrthoOrbital Pt 76   dyz \
	OrthoOrbital Pt 76   dz2 \
	OrthoOrbital Pt 76   dxz \
	OrthoOrbital Pt 76   dx2-y2 \
	OrthoOrbital C 1   s \
	OrthoOrbital C 1   p \
	OrthoOrbital C 1   px \
	OrthoOrbital C 1   py \
	OrthoOrbital C 1   pz \
	OrthoOrbital O 1   s \
	OrthoOrbital O 1   p \
	OrthoOrbital O 1   px \
	OrthoOrbital O 1   py \
	OrthoOrbital O 1   pz
dump End ElecDensity KEdensity BandEigs EigStats RhoAtom DOS Kpoints
dump Ionic State IonicPositions Lattice EigStats Ecomponents
dump 
dump 
dump 
dump 
dump 
dump 
dump 
dump 
dump-name jdft.$VAR
elec-cutoff 20
elec-eigen-algo Davidson
elec-ex-corr gga-PBE
elec-initial-magnetization 0.000000 no
elec-n-bands 736
elec-smearing Fermi 0.001
electronic-minimize  \
	dirUpdateScheme      FletcherReeves \
	linminMethod         DirUpdateRecommended \
	nIterations          100 \
	history              15 \
	knormThreshold       0 \
	energyDiffThreshold  1e-07 \
	nEnergyDiff          2 \
	alphaTstart          1 \
	alphaTmin            1e-10 \
	updateTestStepSize   yes \
	alphaTreduceFactor   0.1 \
	alphaTincreaseFactor 3 \
	nAlphaAdjustMax      3 \
	wolfeEnergy          0.0001 \
	wolfeGradient        0.9 \
	fdTest               no
exchange-regularization WignerSeitzTruncated
fluid LinearPCM 298.000000 1.013250
fluid-anion F- 0.5 MeanFieldLJ \
	epsBulk 1 \
	pMol 0 \
	epsInf 1 \
	Pvap 0 \
	sigmaBulk 0 \
	Rvdw 2.24877 \
	Res 0 \
	tauNuc 343133
fluid-cation Na+ 0.5 MeanFieldLJ \
	epsBulk 1 \
	pMol 0 \
	epsInf 1 \
	Pvap 0 \
	sigmaBulk 0 \
	Rvdw 2.19208 \
	Res 0 \
	tauNuc 343133
fluid-ex-corr lda-TF lda-PZ
fluid-gummel-loop 10 1.000000e-05
fluid-minimize  \
	dirUpdateScheme      PolakRibiere \
	linminMethod         DirUpdateRecommended \
	nIterations          400 \
	history              15 \
	knormThreshold       1e-11 \
	energyDiffThreshold  0 \
	nEnergyDiff          2 \
	alphaTstart          1 \
	alphaTmin            1e-10 \
	updateTestStepSize   yes \
	alphaTreduceFactor   0.1 \
	alphaTincreaseFactor 3 \
	nAlphaAdjustMax      6 \
	wolfeEnergy          0.0001 \
	wolfeGradient        0.9 \
	fdTest               no
fluid-solvent H2O 55.338 ScalarEOS \
	epsBulk 78.4 \
	pMol 0.92466 \
	epsInf 1.77 \
	Pvap 1.06736e-10 \
	sigmaBulk 4.62e-05 \
	Rvdw 2.61727 \
	Res 1.42 \
	tauNuc 343133 \
	poleEl 15 7 1
forces-output-coords Positions
initial-state jdft.$VAR
ion Pt  -0.003625000000000   7.025740000000002  63.415598000000003 0
ion Pt  -2.619617000000002  18.428585999999999  63.415598000000003 0
ion Pt   5.228370999999997   7.025740000000002  63.415598000000003 0
ion Pt   2.612378999999997  18.428585999999999  63.415598000000003 0
ion Pt   2.611577000000000   2.915417000000001  62.117125000000001 0
ion Pt  -0.004425000000000  14.318308000000002  62.117125000000001 0
ion Pt   7.843572999999998   2.915417000000001  62.117125000000001 0
ion Pt   5.227570999999999  14.318308000000002  62.117125000000001 0
ion Pt   2.612163999999999  10.310451000000000  60.490712000000002 0
ion Pt  -0.003844000000003  21.713318999999998  60.490712000000002 0
ion Pt   7.844159999999995  10.310451000000000  60.490712000000002 0
ion Pt   5.228162999999996  21.713318999999998  60.490712000000002 0
ion Pt   0.004081000000000   0.176152000000000  33.343209999999999 0
ion Pt  -2.611916000000000  11.579020000000002  33.343209999999999 0
ion Pt   5.236076999999999   0.176152000000000  33.343209999999999 0
ion Pt   2.620079999999998  11.579020000000002  33.343209999999999 0
ion Pt  -0.007031000000000   6.054923000000000  58.452824999999997 0
ion Pt  -2.623034000000002  17.457813999999999  58.452824999999997 0
ion Pt   5.224965000000000   6.054923000000000  58.452824999999997 0
ion Pt   2.608961999999996  17.457813999999999  58.452824999999997 0
ion Pt   2.607397000000000   1.786647000000000  56.910010000000000 0
ion Pt  -0.008600000000002  13.189515000000004  56.910010000000000 0
ion Pt   7.839392999999998   1.786647000000000  56.910010000000000 0
ion Pt   5.223384999999997  13.189515000000004  56.910010000000000 0
ion Pt   2.605691999999999   9.066512000000001  55.152394999999999 0
ion Pt  -0.010305000000003  20.469380000000001  55.152394999999999 0
ion Pt   7.837687999999996   9.066512000000001  55.152394999999999 0
ion Pt   5.221690999999996  20.469380000000001  55.152394999999999 0
ion Pt  -0.008156000000000   4.827131000000000  53.486634000000002 0
ion Pt  -2.624153000000002  16.229998999999999  53.486634000000002 0
ion Pt   5.223839999999998   4.827131000000000  53.486634000000002 0
ion Pt   2.607842999999998  16.229998999999999  53.486634000000002 0
ion Pt   2.609735000000000   0.615322000000000  51.780881000000001 0
ion Pt  -0.006262000000001  12.018190000000002  51.780881000000001 0
ion Pt   7.841730999999997   0.615322000000000  51.780881000000001 0
ion Pt   5.225733999999997  12.018190000000002  51.780881000000001 0
ion Pt   2.612801999999998   7.796666000000001  50.055065999999997 0
ion Pt  -0.003195000000003  19.199534000000003  50.055065999999997 0
ion Pt   7.844797999999996   7.796666000000001  50.055065999999997 0
ion Pt   5.228800999999997  19.199534000000003  50.055065999999997 0
ion Pt  -0.000235000000000   3.600775000000001  48.378791000000000 0
ion Pt  -2.616232000000001  15.003643000000002  48.378791000000000 0
ion Pt   5.231760999999999   3.600775000000001  48.378791000000000 0
ion Pt   2.615763999999999  15.003643000000002  48.378791000000000 0
ion Pt   0.003259999999998  10.807981000000000  46.702193999999999 0
ion Pt  -2.612737000000002  22.210849000000000  46.702193999999999 0
ion Pt   5.235255999999998  10.807981000000000  46.702193999999999 0
ion Pt   2.619258999999998  22.210849000000000  46.702193999999999 0
ion Pt   2.622014999999998   6.586662000000000  44.975670000000001 0
ion Pt   0.006012999999998  17.989553000000001  44.975670000000001 0
ion Pt   7.854010999999995   6.586662000000000  44.975670000000001 0
ion Pt   5.238008999999997  17.989553000000001  44.975670000000001 0
ion Pt   0.008073000000000   2.374602000000000  43.269012999999987 0
ion Pt  -2.607924000000001  13.777469999999999  43.269012999999987 0
ion Pt   5.240068999999997   2.374602000000000  43.269012999999987 0
ion Pt   2.624072000000000  13.777469999999999  43.269012999999987 0
ion Pt   0.010323999999998   9.538157000000000  41.602607999999996 0
ion Pt  -2.605673000000002  20.941025000000000  41.602607999999996 0
ion Pt   5.242318999999998   9.538157000000000  41.602607999999996 0
ion Pt   2.626321999999998  20.941025000000000  41.602607999999996 0
ion Pt   2.624333000000000   5.415154000000000  39.845444000000001 0
ion Pt   0.008335999999998  16.818021999999999  39.845444000000001 0
ion Pt   7.856328999999996   5.415154000000000  39.845444000000001 0
ion Pt   5.240331999999996  16.818021999999999  39.845444000000001 0
ion Pt   0.007414000000000   1.147015000000000  38.303145000000001 0
ion Pt  -2.608583000000000  12.549882999999999  38.303145000000001 0
ion Pt   5.239410000000000   1.147015000000000  38.303145000000001 0
ion Pt   2.623413000000000  12.549882999999999  38.303145000000001 0
ion Pt   0.003689000000000   8.293875999999999  36.265515999999998 0
ion Pt  -2.612297000000003  19.696744000000002  36.265515999999998 0
ion Pt   5.235684999999997   8.293875999999999  36.265515999999998 0
ion Pt   2.619687999999996  19.696744000000002  36.265515999999998 0
ion Pt   2.620486999999999   4.286566000000000  34.640458000000002 0
ion Pt   0.004495999999999  15.689412000000003  34.640458000000002 0
ion Pt   7.852483000000000   4.286566000000000  34.640458000000002 0
ion Pt   5.236490999999998  15.689412000000003  34.640458000000002 0
ion C   1.739837999999998  11.887445000000001  64.345564053485944 1  Linear 0 0 1
ion O   1.799932999999998  11.887445000000001   2.097230769330193 1  Linear 0 0 1
ion-species /projects/musgravc/apps/jdftx-1.6.0/build/pseudopotentials/GBRV_v1.5/$ID_pbe_v1.uspp
ion-species /projects/musgravc/apps/jdftx-1.6.0/build/pseudopotentials/GBRV_v1.5/$ID_pbe_v1.2.uspp
ion-species /projects/musgravc/apps/jdftx-1.6.0/build/pseudopotentials/GBRV_v1.5/$ID_pbe_v1.4.uspp
ion-species /projects/musgravc/apps/jdftx-1.6.0/build/pseudopotentials/GBRV_v1.5/$ID_pbe_v1.5.uspp
ion-width Ecut
ionic-minimize  \
	dirUpdateScheme      L-BFGS \
	linminMethod         DirUpdateRecommended \
	nIterations          100 \
	history              15 \
	knormThreshold       0.0001 \
	energyDiffThreshold  1e-06 \
	nEnergyDiff          2 \
	alphaTstart          1 \
	alphaTmin            1e-10 \
	updateTestStepSize   yes \
	alphaTreduceFactor   0.1 \
	alphaTincreaseFactor 3 \
	nAlphaAdjustMax      3 \
	wolfeEnergy          0.0001 \
	wolfeGradient        0.9 \
	fdTest               no
kpoint   0.000000000000   0.000000000000   0.000000000000  1.00000000000000
kpoint-folding 5 2 1 
latt-move-scale 0 0 0
latt-scale 1 1 1 
lattice  \
	  10.463991999999999   -5.231994000000000    0.000000000000000  \
	   0.000000000000000   22.805736000000000    0.000000000000000  \
	   0.000000000000000    0.000000000000000   64.504367000000002 
lattice-minimize  \
	dirUpdateScheme      L-BFGS \
	linminMethod         DirUpdateRecommended \
	nIterations          0 \
	history              15 \
	knormThreshold       0 \
	energyDiffThreshold  1e-06 \
	nEnergyDiff          2 \
	alphaTstart          1 \
	alphaTmin            1e-10 \
	updateTestStepSize   yes \
	alphaTreduceFactor   0.1 \
	alphaTincreaseFactor 3 \
	nAlphaAdjustMax      3 \
	wolfeEnergy          0.0001 \
	wolfeGradient        0.9 \
	fdTest               no
lcao-params 30 1e-06 0.001
pcm-variant CANDLE
spintype z-spin
subspace-rotation-factor 1 yes
symmetries automatic
symmetry-threshold 0.0001
van-der-waals D3



---------- Setting up symmetries ----------

Found 8 point-group symmetries of the bravais lattice
Found 1 space-group symmetries with basis
Applied RMS atom displacement 0 bohrs to make symmetries exact.

---------- Initializing the Grid ----------
R = 
[       10.464     -5.23199            0  ]
[            0      22.8057            0  ]
[            0            0      64.5044  ]
unit cell volume = 15393.3
G =
[   0.600458   0.137754         -0  ]
[          0   0.275509          0  ]
[          0         -0  0.0974071  ]
Minimum fftbox size, Smin = [  44  96  260  ]
Chosen fftbox size, S = [  48  96  270  ]

---------- Exchange Correlation functional ----------
Initalized PBE GGA exchange.
Initalized PBE GGA correlation.

---------- Setting up pseudopotentials ----------
Width of ionic core gaussian charges (only for fluid interactions / plotting) set to 0.397384

Reading pseudopotential file '/projects/musgravc/apps/jdftx-1.6.0/build/pseudopotentials/GBRV_v1.5/pt_pbe_v1.4.uspp':
  Title: Pt.  Created by USPP 7.3.6 on 31-3-15
  Reference state energy: -105.002503.  16 valence electrons in orbitals:
    |510>  occupation: 6  eigenvalue: -2.158104
    |520>  occupation: 9.5  eigenvalue: -0.335376
    |600>  occupation: 0  eigenvalue: -0.319640
    |610>  occupation: 0  eigenvalue: -0.122947
  lMax: 2  lLocal: 3  QijEcut: 5.5
  6 projectors sampled on a log grid with 745 points:
    l: 0  eig: -0.319640  rCut: 2.45
    l: 0  eig: 1.500000  rCut: 2.45
    l: 1  eig: -2.158104  rCut: 1.6
    l: 1  eig: -0.122947  rCut: 1.6
    l: 2  eig: -0.500000  rCut: 1.6
    l: 2  eig: -0.335375  rCut: 1.6
  Partial core density with radius 1.1
  Transforming core density to a uniform radial grid of dG=0.02 with 1284 points.
  Transforming local potential to a uniform radial grid of dG=0.02 with 1284 points.
  Transforming nonlocal projectors to a uniform radial grid of dG=0.02 with 432 points.
  Transforming density augmentations to a uniform radial grid of dG=0.02 with 1284 points.
  Transforming atomic orbitals to a uniform radial grid of dG=0.02 with 432 points.
  Core radius for overlap checks: 2.45 bohrs.

Reading pseudopotential file '/projects/musgravc/apps/jdftx-1.6.0/build/pseudopotentials/GBRV_v1.5/c_pbe_v1.2.uspp':
  Title: C.  Created by USPP 7.3.6 on 3-2-2014
  Reference state energy: -5.406344.  4 valence electrons in orbitals:
    |200>  occupation: 2  eigenvalue: -0.504890
    |210>  occupation: 2  eigenvalue: -0.194356
  lMax: 1  lLocal: 2  QijEcut: 5
  4 projectors sampled on a log grid with 503 points:
    l: 0  eig: -0.504890  rCut: 1.3
    l: 0  eig: 0.000000  rCut: 1.3
    l: 1  eig: -0.194357  rCut: 1.3
    l: 1  eig: 0.000000  rCut: 1.3
  Partial core density with radius 1.1
  Transforming core density to a uniform radial grid of dG=0.02 with 1284 points.
  Transforming local potential to a uniform radial grid of dG=0.02 with 1284 points.
  Transforming nonlocal projectors to a uniform radial grid of dG=0.02 with 432 points.
  Transforming density augmentations to a uniform radial grid of dG=0.02 with 1284 points.
  Transforming atomic orbitals to a uniform radial grid of dG=0.02 with 432 points.
  Core radius for overlap checks: 1.30 bohrs.

Reading pseudopotential file '/projects/musgravc/apps/jdftx-1.6.0/build/pseudopotentials/GBRV_v1.5/o_pbe_v1.2.uspp':
  Title: O.  Created by USPP 7.3.6 on 3-2-2014
  Reference state energy: -15.894388.  6 valence electrons in orbitals:
    |200>  occupation: 2  eigenvalue: -0.878823
    |210>  occupation: 4  eigenvalue: -0.332131
  lMax: 2  lLocal: 2  QijEcut: 6
  5 projectors sampled on a log grid with 511 points:
    l: 0  eig: -0.878823  rCut: 1.25
    l: 0  eig: 0.000000  rCut: 1.25
    l: 1  eig: -0.332132  rCut: 1.25
    l: 1  eig: 0.000000  rCut: 1.25
    l: 2  eig: 1.000000  rCut: 1.25
  Partial core density with radius 0.7
  Transforming core density to a uniform radial grid of dG=0.02 with 1284 points.
  Transforming local potential to a uniform radial grid of dG=0.02 with 1284 points.
  Transforming nonlocal projectors to a uniform radial grid of dG=0.02 with 432 points.
  Transforming density augmentations to a uniform radial grid of dG=0.02 with 1284 points.
  Transforming atomic orbitals to a uniform radial grid of dG=0.02 with 432 points.
  Core radius for overlap checks: 1.25 bohrs.

Initialized 3 species with 78 total atoms.

Folded 1 k-points by 5x2x1 to 10 k-points.

---------- Setting up k-points, bands, fillings ----------
Adding inversion symmetry to k-mesh for non-inversion-symmetric unit cell.
Reduced to 6 k-points under symmetry. 
Computing the number of bands and number of electrons
Reading initial fillings from file jdft.fillings.
nElectrons: 1226.000000   nBands: 736   nStates: 12

----- Setting up reduced wavefunction bases (one per k-point) -----
average nbasis = 65749.100 , ideal nbasis = 65761.180

----- Initializing Supercell corresponding to k-point mesh -----
Lattice vector linear combinations in supercell:
[   5   0   0  ]
[   0   2   0  ]
[   0   0   1  ]
Supercell lattice vectors:
[  52.32  -10.464  0  ]
[  0  45.6115  0  ]
[  0  0  64.5044  ]

Initializing DFT-D3 calculator:
	Parameters set for gga-PBE functional
	s6:  1.000  s_r6:  1.217
	s8:  0.722  s_r8:  1.000
	Per-atom parameters loaded for:
	Pt:  sqrtQ[a0]:  5.888  Rcov[a0]:  2.116  CN: [ 0.00 1.92 6.67 ]
	 C:  sqrtQ[a0]:  3.105  Rcov[a0]:  1.417  CN: [ 0.00 0.99 2.00 3.00 3.98 ]
	 O:  sqrtQ[a0]:  2.594  Rcov[a0]:  1.191  CN: [ 0.00 0.99 1.99 ]

Initializing DFT-D2 calculator for fluid / solvation:
	Pt:  C6:  815.23 Eh-a0^6  R0: 3.326 a0 (WARNING: beyond Grimme's data set)
	 C:  C6:   30.35 Eh-a0^6  R0: 2.744 a0
	 O:  C6:   12.14 Eh-a0^6  R0: 2.536 a0

---------- Setting up ewald sum ----------
Optimum gaussian width for ewald sums = 4.801068 bohr.
Real space sum over 455 unit cells with max indices [  6  3  2  ]
Reciprocal space sum over 9405 terms with max indices [  5  9  22  ]

Computing DFT-D3 correction:
# coordination-number Pt 6.145 5.972 6.002 5.980 7.107 8.141 7.106 7.546 9.418 8.563 8.597 8.563 5.972 5.972 5.972 5.972 9.225 9.225 9.225 9.225 9.402 9.404 9.402 9.404 9.504 9.504 9.504 9.504 9.524 9.524 9.524 9.524 9.562 9.562 9.562 9.562 9.557 9.557 9.557 9.557 9.569 9.569 9.569 9.569 9.555 9.555 9.555 9.555 9.558 9.558 9.558 9.558 9.521 9.521 9.521 9.521 9.503 9.503 9.503 9.503 9.404 9.404 9.404 9.404 9.227 9.227 9.227 9.227 8.566 8.566 8.566 8.566 7.110 7.110 7.110 7.110
# coordination-number C 3.510
# coordination-number O 1.092
# diagonal-C6 Pt 336.87 336.87 336.87 336.87 336.87 336.87 336.87 336.87 336.87 336.87 336.87 336.87 336.87 336.87 336.87 336.87 336.87 336.87 336.87 336.87 336.87 336.87 336.87 336.87 336.87 336.87 336.87 336.87 336.87 336.87 336.87 336.87 336.87 336.87 336.87 336.87 336.87 336.87 336.87 336.87 336.87 336.87 336.87 336.87 336.87 336.87 336.87 336.87 336.87 336.87 336.87 336.87 336.87 336.87 336.87 336.87 336.87 336.87 336.87 336.87 336.87 336.87 336.87 336.87 336.87 336.87 336.87 336.87 336.87 336.87 336.87 336.87 336.87 336.87 336.87 336.87
# diagonal-C6 C 21.49
# diagonal-C6 O 12.73
EvdW_6 =   -0.723000
EvdW_8 =   -1.137382

---------- Allocating electronic variables ----------
Initializing wave functions:  reading from 'jdft.wfns'
----- createFluidSolver() ----- (Fluid-side solver setup)
   Initializing fluid molecule 'H2O'
     Initializing site 'O'
       Electron density: proportional to exp(-r/0.36935)*erfc((r-0.51523)/0.36823) with norm 6.826
       Charge density: gaussian nuclear width 0.478731 with net site charge 0.826
       Polarizability: cuspless exponential with width 0.32 and norm 3.73
       Hard sphere radius: 2.57003 bohrs
       Positions in reference frame:
         [ +0.000000 +0.000000 +0.000000 ]
     Initializing site 'H'
       Electron density: proportional to exp(-r/0.34641)*erfc((r-0)/0.390882) with norm 0.587
       Charge density: gaussian nuclear width 0.377945 with net site charge -0.413
       Polarizability: cuspless exponential with width 0.39 and norm 3.3
       Positions in reference frame:
         [ +0.000000 -1.441945 +1.122523 ]
         [ +0.000000 +1.441945 +1.122523 ]
     Net charge: 0   dipole magnitude: 0.927204
     Initializing spherical shell mfKernel with radius 2.61727 Bohr
     deltaS corrections:
       site 'O': -7.54299
       site 'H': -6.83917
   Initializing fluid molecule 'Na+'
     Initializing site 'Na'
       Electron density: proportional to exp(-r/0.19682)*erfc((r-0.71491)/0.41314) with norm 8.1383
       Charge density: gaussian nuclear width 0.365347 with net site charge -1
       Hard sphere radius: 1.86327 bohrs
       Positions in reference frame:
         [ +0.000000 +0.000000 +0.000000 ]
     Net charge: -1   dipole magnitude: 0
     Initializing gaussian mfKernel with width: 1.55004 Bohr
     deltaS corrections:
       site 'Na': -22.3555
   Initializing fluid molecule 'F-'
     Initializing site 'F'
       Electron density: proportional to exp(-r/0.38886)*erfc((r-0)/0.438782) with norm 8
       Charge density: gaussian nuclear width 0.374796 with net site charge 1
       Hard sphere radius: 2.39995 bohrs
       Positions in reference frame:
         [ +0.000000 +0.000000 +0.000000 ]
     Net charge: 1   dipole magnitude: 0
     Initializing gaussian mfKernel with width: 1.59012 Bohr
     deltaS corrections:
       site 'F': -9.04335

Correction to mu due to finite nuclear width = -0.0790241
   Cavity determined by nc: 0.00142 and sigma: 0.707107
   Nonlocal vdW cavity from gaussian model electron density with norm = 8 and sigma = 0.993594 bohr
   Charge asymmetry in cavity with sensitivity pCavity = 36.5 e-bohr/Eh
   Electrostatic cavity expanded by eta = 1.46 bohrs
   Weighted density cavitation model constrained by Nbulk: 0.0049383 bohr^-3, Pvap: 3.14029 kPa, Rvdw: 2.61727 bohr and sigmaBulk: 4.62e-05 Eh/bohr^2 at T: 298 K.
   Weighted density dispersion model using vdW pair potentials with single solvent site with sqrtC6eff: 0.77 SI.
Reading fluid state from 'jdft.fluidState'


---- Citations for features of the code used in this run ----

   Software package:
      R. Sundararaman, K. Letchworth-Weaver, K.A. Schwarz, D. Gunceler, Y. Ozhabes and T.A. Arias, 'JDFTx: software for joint density-functional theory', SoftwareX 6, 278 (2017)

   gga-PBE exchange-correlation functional:
      J.P. Perdew, K. Burke and M. Ernzerhof, Phys. Rev. Lett. 77, 3865 (1996)

   Pseudopotentials:
      KF Garrity, JW Bennett, KM Rabe and D Vanderbilt, Comput. Mater. Sci. 81, 446 (2014)

   DFT-D3 dispersion correction:
      S. Grimme, J. Antony, S. Ehrlich and H. Krieg, J. Chem. Phys. 132, 154104 (2010)

   DFT-D2 dispersion correction:
      S. Grimme, J. Comput. Chem. 27, 1787 (2006)

   Charge-asymmetric nonlocally-determined local-electric (CANDLE) solvation model:
      R. Sundararaman and W.A. Goddard III, J. Chem. Phys. 142, 064107 (2015)

   Total energy minimization with Auxiliary Hamiltonian:
      C. Freysoldt, S. Boeck, and J. Neugebauer, Phys. Rev. B 79, 241103(R) (2009)

   Linear-tetrahedron sampling for density of states:
      G. Lehmann and M. Taut, Phys. status solidi (b) 54, 469 (1972)

This list may not be complete. Please suggest additional citations or
report any other bugs at https://github.com/shankar1729/jdftx/issues

Initialization completed successfully at t[s]:     74.88


Computing DFT-D3 correction:
# coordination-number Pt 6.145 5.972 6.002 5.980 7.107 8.141 7.106 7.546 9.418 8.563 8.597 8.563 5.972 5.972 5.972 5.972 9.225 9.225 9.225 9.225 9.402 9.404 9.402 9.404 9.504 9.504 9.504 9.504 9.524 9.524 9.524 9.524 9.562 9.562 9.562 9.562 9.557 9.557 9.557 9.557 9.569 9.569 9.569 9.569 9.555 9.555 9.555 9.555 9.558 9.558 9.558 9.558 9.521 9.521 9.521 9.521 9.503 9.503 9.503 9.503 9.404 9.404 9.404 9.404 9.227 9.227 9.227 9.227 8.566 8.566 8.566 8.566 7.110 7.110 7.110 7.110
# coordination-number C 3.510
# coordination-number O 1.092
# diagonal-C6 Pt 336.87 336.87 336.87 336.87 336.87 336.87 336.87 336.87 336.87 336.87 336.87 336.87 336.87 336.87 336.87 336.87 336.87 336.87 336.87 336.87 336.87 336.87 336.87 336.87 336.87 336.87 336.87 336.87 336.87 336.87 336.87 336.87 336.87 336.87 336.87 336.87 336.87 336.87 336.87 336.87 336.87 336.87 336.87 336.87 336.87 336.87 336.87 336.87 336.87 336.87 336.87 336.87 336.87 336.87 336.87 336.87 336.87 336.87 336.87 336.87 336.87 336.87 336.87 336.87 336.87 336.87 336.87 336.87 336.87 336.87 336.87 336.87 336.87 336.87 336.87 336.87
# diagonal-C6 C 21.49
# diagonal-C6 O 12.73
EvdW_6 =   -0.723000
EvdW_8 =   -1.137382

-------- Electronic minimization -----------
	Linear fluid (dielectric constant: 78.4, screening length: 8.12261 Bohr) occupying 0.362613 of unit cell:	Completed after 15 iterations at t[s]:    108.21
	FillingsUpdate:  mu: -0.192148500  nElectrons: 1226.000000  magneticMoment: [ Abs: 0.00002  Tot: -0.00002 ]
ElecMinimize: Iter:   0  F: -6783.750241805557380  |grad|_K:  3.422e-06  alpha:  1.000e+00
	Linear fluid (dielectric constant: 78.4, screening length: 8.12261 Bohr) occupying 0.364033 of unit cell:	Completed after 32 iterations at t[s]:    411.55
	Linear fluid (dielectric constant: 78.4, screening length: 8.12261 Bohr) occupying 0.362613 of unit cell:	Completed after 32 iterations at t[s]:    515.19
	FillingsUpdate:  mu: -0.189109980  nElectrons: 1226.000000  magneticMoment: [ Abs: 0.00002  Tot: -0.00002 ]
	SubspaceRotationAdjust: set factor to 0.379
ElecMinimize: Iter:   1  F: -6783.750288964871288  |grad|_K:  3.817e-07  alpha:  7.250e-03  linmin:  1.593e-02  t[s]:    644.58
	Linear fluid (dielectric constant: 78.4, screening length: 8.12261 Bohr) occupying 0.362613 of unit cell:	Completed after 8 iterations at t[s]:    787.05
	Linear fluid (dielectric constant: 78.4, screening length: 8.12261 Bohr) occupying 0.362613 of unit cell:	Completed after 4 iterations at t[s]:    881.12
	FillingsUpdate:  mu: -0.189291113  nElectrons: 1226.000000  magneticMoment: [ Abs: 0.00002  Tot: -0.00002 ]
	SubspaceRotationAdjust: set factor to 0.212
ElecMinimize: Iter:   2  F: -6783.750289759398584  |grad|_K:  1.747e-07  alpha:  9.751e-03  linmin: -8.867e-04  t[s]:   1011.49
	Linear fluid (dielectric constant: 78.4, screening length: 8.12261 Bohr) occupying 0.362613 of unit cell:	Completed after 4 iterations at t[s]:   1152.13
ElecMinimize: 	Predicted alpha/alphaT>3.000000, increasing alphaT to 2.925349e-02.
	Linear fluid (dielectric constant: 78.4, screening length: 8.12261 Bohr) occupying 0.362611 of unit cell:	Completed after 7 iterations at t[s]:   1247.01
	Linear fluid (dielectric constant: 78.4, screening length: 8.12261 Bohr) occupying 0.362610 of unit cell:	Completed after 6 iterations at t[s]:   1341.50
	FillingsUpdate:  mu: -0.189589276  nElectrons: 1226.000000  magneticMoment: [ Abs: 0.00002  Tot: -0.00002 ]
	SubspaceRotationAdjust: set factor to 0.126
	SubspaceRotationAdjust: resetting CG because factor has changed by 0.12596
	Linear fluid (dielectric constant: 78.4, screening length: 8.12261 Bohr) occupying 0.362610 of unit cell:	Completed after 0 iterations at t[s]:   1496.64
ElecMinimize: 	State modified externally: resetting search direction.
ElecMinimize: Iter:   3  F: -6783.750290479255455  |grad|_K:  7.573e-08  alpha:  3.939e-02
	Linear fluid (dielectric constant: 78.4, screening length: 8.12261 Bohr) occupying 0.362610 of unit cell:	Completed after 3 iterations at t[s]:   1765.57
	Linear fluid (dielectric constant: 78.4, screening length: 8.12261 Bohr) occupying 0.362611 of unit cell:	Completed after 4 iterations at t[s]:   1860.13
	FillingsUpdate:  mu: -0.189442342  nElectrons: 1226.000000  magneticMoment: [ Abs: 0.00002  Tot: -0.00002 ]
	SubspaceRotationAdjust: set factor to 0.0973
ElecMinimize: Iter:   4  F: -6783.750290716192467  |grad|_K:  4.290e-08  alpha:  7.547e-02  linmin:  6.230e-03  t[s]:   1990.16
	Linear fluid (dielectric constant: 78.4, screening length: 8.12261 Bohr) occupying 0.362610 of unit cell:	Completed after 2 iterations at t[s]:   2131.00
ElecMinimize: 	Predicted alpha/alphaT>3.000000, increasing alphaT to 2.264019e-01.
	Linear fluid (dielectric constant: 78.4, screening length: 8.12261 Bohr) occupying 0.362609 of unit cell:	Completed after 4 iterations at t[s]:   2225.17
	Linear fluid (dielectric constant: 78.4, screening length: 8.12261 Bohr) occupying 0.362609 of unit cell:	Completed after 0 iterations at t[s]:   2317.48
	FillingsUpdate:  mu: -0.189488897  nElectrons: 1226.000000  magneticMoment: [ Abs: 0.00002  Tot: -0.00002 ]
	SubspaceRotationAdjust: set factor to 0.0595
ElecMinimize: Iter:   5  F: -6783.750290946855785  |grad|_K:  3.468e-08  alpha:  2.321e-01  linmin:  2.613e-04  t[s]:   2446.90
	Linear fluid (dielectric constant: 78.4, screening length: 8.12261 Bohr) occupying 0.362610 of unit cell:	Completed after 8 iterations at t[s]:   2588.94
	Linear fluid (dielectric constant: 78.4, screening length: 8.12261 Bohr) occupying 0.362609 of unit cell:	Completed after 7 iterations at t[s]:   2684.31
	FillingsUpdate:  mu: -0.189587190  nElectrons: 1226.000000  magneticMoment: [ Abs: 0.00002  Tot: -0.00002 ]
	SubspaceRotationAdjust: set factor to 0.0421
ElecMinimize: Iter:   6  F: -6783.750291002614176  |grad|_K:  1.705e-08  alpha:  7.862e-02  linmin:  7.265e-04  t[s]:   2814.26
	Linear fluid (dielectric constant: 78.4, screening length: 8.12261 Bohr) occupying 0.362609 of unit cell:	Completed after 0 iterations at t[s]:   2954.41
ElecMinimize: 	Predicted alpha/alphaT>3.000000, increasing alphaT to 2.358743e-01.
	Linear fluid (dielectric constant: 78.4, screening length: 8.12261 Bohr) occupying 0.362609 of unit cell:	Completed after 2 iterations at t[s]:   3048.13
	Linear fluid (dielectric constant: 78.4, screening length: 8.12261 Bohr) occupying 0.362609 of unit cell:	Completed after 0 iterations at t[s]:   3140.68
	FillingsUpdate:  mu: -0.189569787  nElectrons: 1226.000000  magneticMoment: [ Abs: 0.00002  Tot: -0.00002 ]
	SubspaceRotationAdjust: set factor to 0.033
ElecMinimize: Iter:   7  F: -6783.750291037845273  |grad|_K:  1.383e-08  alpha:  2.176e-01  linmin: -1.622e-04  t[s]:   3270.08
ElecMinimize: Converged (|Delta F|<1.000000e-07 for 2 iters).
Setting wave functions to eigenvectors of Hamiltonian
Converging empty states (this may take a while): |deigs|: 3.202e-09

Computing DFT-D3 correction:
# coordination-number Pt 6.145 5.972 6.002 5.980 7.107 8.141 7.106 7.546 9.418 8.563 8.597 8.563 5.972 5.972 5.972 5.972 9.225 9.225 9.225 9.225 9.402 9.404 9.402 9.404 9.504 9.504 9.504 9.504 9.524 9.524 9.524 9.524 9.562 9.562 9.562 9.562 9.557 9.557 9.557 9.557 9.569 9.569 9.569 9.569 9.555 9.555 9.555 9.555 9.558 9.558 9.558 9.558 9.521 9.521 9.521 9.521 9.503 9.503 9.503 9.503 9.404 9.404 9.404 9.404 9.227 9.227 9.227 9.227 8.566 8.566 8.566 8.566 7.110 7.110 7.110 7.110
# coordination-number C 3.510
# coordination-number O 1.092
# diagonal-C6 Pt 336.87 336.87 336.87 336.87 336.87 336.87 336.87 336.87 336.87 336.87 336.87 336.87 336.87 336.87 336.87 336.87 336.87 336.87 336.87 336.87 336.87 336.87 336.87 336.87 336.87 336.87 336.87 336.87 336.87 336.87 336.87 336.87 336.87 336.87 336.87 336.87 336.87 336.87 336.87 336.87 336.87 336.87 336.87 336.87 336.87 336.87 336.87 336.87 336.87 336.87 336.87 336.87 336.87 336.87 336.87 336.87 336.87 336.87 336.87 336.87 336.87 336.87 336.87 336.87 336.87 336.87 336.87 336.87 336.87 336.87 336.87 336.87 336.87 336.87 336.87 336.87
# diagonal-C6 C 21.49
# diagonal-C6 O 12.73
EvdW_6 =   -0.723000
EvdW_8 =   -1.137382

# Ionic positions in cartesian coordinates:
ion Pt  -0.003625000000000   7.025740000000002  63.415598000000003 0
ion Pt  -2.619617000000002  18.428585999999999  63.415598000000003 0
ion Pt   5.228370999999997   7.025740000000002  63.415598000000003 0
ion Pt   2.612378999999997  18.428585999999999  63.415598000000003 0
ion Pt   2.611577000000000   2.915417000000001  62.117125000000001 0
ion Pt  -0.004425000000000  14.318308000000002  62.117125000000001 0
ion Pt   7.843572999999998   2.915417000000001  62.117125000000001 0
ion Pt   5.227570999999999  14.318308000000002  62.117125000000001 0
ion Pt   2.612163999999999  10.310451000000000  60.490712000000002 0
ion Pt  -0.003844000000003  21.713318999999998  60.490712000000002 0
ion Pt   7.844159999999995  10.310451000000000  60.490712000000002 0
ion Pt   5.228162999999996  21.713318999999998  60.490712000000002 0
ion Pt   0.004081000000000   0.176152000000000  33.343209999999999 0
ion Pt  -2.611916000000000  11.579020000000002  33.343209999999999 0
ion Pt   5.236076999999999   0.176152000000000  33.343209999999999 0
ion Pt   2.620079999999998  11.579020000000002  33.343209999999999 0
ion Pt  -0.007031000000000   6.054923000000000  58.452824999999997 0
ion Pt  -2.623034000000002  17.457813999999999  58.452824999999997 0
ion Pt   5.224965000000000   6.054923000000000  58.452824999999997 0
ion Pt   2.608961999999996  17.457813999999999  58.452824999999997 0
ion Pt   2.607397000000000   1.786647000000000  56.910010000000000 0
ion Pt  -0.008600000000002  13.189515000000004  56.910010000000000 0
ion Pt   7.839392999999998   1.786647000000000  56.910010000000000 0
ion Pt   5.223384999999997  13.189515000000004  56.910010000000000 0
ion Pt   2.605691999999999   9.066512000000001  55.152394999999999 0
ion Pt  -0.010305000000003  20.469380000000001  55.152394999999999 0
ion Pt   7.837687999999996   9.066512000000001  55.152394999999999 0
ion Pt   5.221690999999996  20.469380000000001  55.152394999999999 0
ion Pt  -0.008156000000000   4.827131000000000  53.486634000000002 0
ion Pt  -2.624153000000002  16.229998999999999  53.486634000000002 0
ion Pt   5.223839999999998   4.827131000000000  53.486634000000002 0
ion Pt   2.607842999999998  16.229998999999999  53.486634000000002 0
ion Pt   2.609735000000000   0.615322000000000  51.780881000000001 0
ion Pt  -0.006262000000001  12.018190000000002  51.780881000000001 0
ion Pt   7.841730999999997   0.615322000000000  51.780881000000001 0
ion Pt   5.225733999999997  12.018190000000002  51.780881000000001 0
ion Pt   2.612801999999998   7.796666000000001  50.055065999999997 0
ion Pt  -0.003195000000003  19.199534000000003  50.055065999999997 0
ion Pt   7.844797999999996   7.796666000000001  50.055065999999997 0
ion Pt   5.228800999999997  19.199534000000003  50.055065999999997 0
ion Pt  -0.000235000000000   3.600775000000001  48.378791000000000 0
ion Pt  -2.616232000000001  15.003643000000002  48.378791000000000 0
ion Pt   5.231760999999999   3.600775000000001  48.378791000000000 0
ion Pt   2.615763999999999  15.003643000000002  48.378791000000000 0
ion Pt   0.003259999999998  10.807981000000000  46.702193999999999 0
ion Pt  -2.612737000000002  22.210849000000000  46.702193999999999 0
ion Pt   5.235255999999998  10.807981000000000  46.702193999999999 0
ion Pt   2.619258999999998  22.210849000000000  46.702193999999999 0
ion Pt   2.622014999999998   6.586662000000000  44.975670000000001 0
ion Pt   0.006012999999998  17.989553000000001  44.975670000000001 0
ion Pt   7.854010999999995   6.586662000000000  44.975670000000001 0
ion Pt   5.238008999999997  17.989553000000001  44.975670000000001 0
ion Pt   0.008073000000000   2.374602000000000  43.269012999999987 0
ion Pt  -2.607924000000001  13.777469999999999  43.269012999999987 0
ion Pt   5.240068999999997   2.374602000000000  43.269012999999987 0
ion Pt   2.624072000000000  13.777469999999999  43.269012999999987 0
ion Pt   0.010323999999998   9.538157000000000  41.602607999999996 0
ion Pt  -2.605673000000002  20.941025000000000  41.602607999999996 0
ion Pt   5.242318999999998   9.538157000000000  41.602607999999996 0
ion Pt   2.626321999999998  20.941025000000000  41.602607999999996 0
ion Pt   2.624333000000000   5.415154000000000  39.845444000000001 0
ion Pt   0.008335999999998  16.818021999999999  39.845444000000001 0
ion Pt   7.856328999999996   5.415154000000000  39.845444000000001 0
ion Pt   5.240331999999996  16.818021999999999  39.845444000000001 0
ion Pt   0.007414000000000   1.147015000000000  38.303145000000001 0
ion Pt  -2.608583000000000  12.549882999999999  38.303145000000001 0
ion Pt   5.239410000000000   1.147015000000000  38.303145000000001 0
ion Pt   2.623413000000000  12.549882999999999  38.303145000000001 0
ion Pt   0.003689000000000   8.293875999999999  36.265515999999998 0
ion Pt  -2.612297000000003  19.696744000000002  36.265515999999998 0
ion Pt   5.235684999999997   8.293875999999999  36.265515999999998 0
ion Pt   2.619687999999996  19.696744000000002  36.265515999999998 0
ion Pt   2.620486999999999   4.286566000000000  34.640458000000002 0
ion Pt   0.004495999999999  15.689412000000003  34.640458000000002 0
ion Pt   7.852483000000000   4.286566000000000  34.640458000000002 0
ion Pt   5.236490999999998  15.689412000000003  34.640458000000002 0
ion C   1.739837999999998  11.887445000000001  64.345564053485944 1  Linear 0 0 1
ion O   1.799932999999998  11.887445000000001   2.097230769330193 1  Linear 0 0 1

# Forces in Cartesian coordinates:
force Pt  -0.004679099455406  -0.006616089607735   0.001958290671649 0
force Pt  -0.001325877274453   0.001037408846658  -0.000747675302635 0
force Pt   0.004739822970773  -0.006943546423764   0.001694248259992 0
force Pt   0.001262509264789   0.006685032394282  -0.000171268443578 0
force Pt   0.000273115778908  -0.000915670674929  -0.000499485521750 0
force Pt  -0.010378520507186   0.004526573726341   0.004321940518275 0
force Pt   0.000560120932809   0.001596862894474   0.000755199602284 0
force Pt   0.009562813878049   0.005510717571466   0.002608411155217 0
force Pt   0.003985991955290  -0.007544451580277   0.005917826512695 0
force Pt   0.000276423062914  -0.000374708295259  -0.000856441295135 0
force Pt  -0.005349910453769  -0.006176208086468  -0.008163724942573 0
force Pt   0.000121523924689  -0.000174802113968  -0.000769545965020 0
force Pt   0.000232479248532   0.000179175341133  -0.000835456442086 0
force Pt   0.000296700371216   0.000089259204471  -0.000601198028631 0
force Pt  -0.000040811005530   0.000199189344346  -0.000679740110923 0
force Pt   0.000114068519699   0.000158730333286  -0.000869686168975 0
force Pt  -0.000607010532150  -0.001371901691555  -0.001400132036815 0
force Pt   0.001257478264147  -0.002497655673975   0.003456740114425 0
force Pt   0.000108073430091  -0.000908483124486  -0.000716229536554 0
force Pt   0.000144354014007   0.002008885974507  -0.001421021336412 0
force Pt  -0.000039567682720   0.000537772649598   0.000833581561563 0
force Pt  -0.001486768215636   0.001901505538198  -0.005663574275421 0
force Pt  -0.000073709126875   0.000563823200973   0.000583861994477 0
force Pt   0.000778987147838   0.001048632726269  -0.000701469646887 0
force Pt  -0.000191909863475   0.000909219822481   0.004986892606164 0
force Pt   0.000409881010476  -0.000104335103426  -0.000380997843377 0
force Pt   0.000677211624312   0.000252642488405   0.000314063801835 0
force Pt  -0.000379028767874   0.001510600763750  -0.002106334752023 0
force Pt   0.000157612712278  -0.000668412021855  -0.000703476016100 0
force Pt   0.000335603610742  -0.000286401610747  -0.000402170193961 0
force Pt   0.000174010791668  -0.000449469458528  -0.000731598940505 0
force Pt  -0.000036096587675  -0.000726440291532   0.000418437974791 0
force Pt  -0.000016454489922  -0.000011206377227  -0.000033358822574 0
force Pt  -0.000199258865017  -0.000156385732595  -0.001948227431141 0
force Pt  -0.000415578920317   0.000852065715055  -0.000789175498805 0
force Pt  -0.000072107001500  -0.000175240908328  -0.000609270376641 0
force Pt   0.000247924581057   0.000252815604937   0.000591265795216 0
force Pt   0.000243794805505  -0.000319366223523   0.000046038717879 0
force Pt   0.000373402768689  -0.000067404449546   0.000196235073110 0
force Pt   0.000425400065140  -0.000499719440584   0.000414655442657 0
force Pt   0.000157295459325   0.000457665716318   0.000003450571472 0
force Pt   0.000023994461022   0.000142427530419   0.000249509059061 0
force Pt  -0.000280896193298   0.000248498966703   0.000153114524291 0
force Pt  -0.000072230524562   0.000100360545951   0.000373113436157 0
force Pt  -0.000112109868128   0.000309945526911  -0.000279873207954 0
force Pt  -0.000309099118103   0.000461888016685   0.000037048506241 0
force Pt  -0.000411260881519   0.000262049631994   0.000260490524414 0
force Pt  -0.000139803710229   0.000483745025166   0.000237043796685 0
force Pt   0.000128273412513  -0.000601387974364  -0.000584831842459 0
force Pt   0.000065864363789  -0.000218959347610  -0.000082278686120 0
force Pt   0.000062308559381  -0.000358856108098  -0.000103125709859 0
force Pt   0.000114963100453  -0.000226391171645  -0.000057032708639 0
force Pt  -0.000239893932051   0.000142100475417   0.000580427005779 0
force Pt  -0.000313553509459   0.000230036430003   0.000330303773446 0
force Pt  -0.000094821863076   0.000364874814454   0.000319273385972 0
force Pt  -0.000145456713735   0.000183742285059   0.000507990126943 0
force Pt   0.000050117080584   0.000012891259414   0.000598968197808 0
force Pt  -0.000232124231110   0.000205667102191   0.000420945006504 0
force Pt  -0.000346142518280   0.000016770595476   0.000511240729568 0
force Pt  -0.000308425356897   0.000445033176563   0.000421288206552 0
force Pt   0.000071044881685  -0.000260517032536  -0.001187587870567 0
force Pt   0.000052588360891  -0.000589437200375  -0.000623144062343 0
force Pt   0.000063169598088  -0.000458956261331  -0.000836496631285 0
force Pt   0.000018958825332  -0.000459121681751  -0.000640100144992 0
force Pt   0.000138786116835  -0.000056736583087   0.000038900179260 0
force Pt   0.000233256176301   0.000373741219871  -0.000212880962725 0
force Pt   0.000225531932135  -0.000020701620296  -0.000104798151076 0
force Pt   0.000091625367567   0.000284847165758  -0.000022417122891 0
force Pt  -0.000047790826092   0.000042485246497   0.000550779827100 0
force Pt  -0.000070221297434   0.000074146419066   0.000382390538744 0
force Pt  -0.000104123745406   0.000008983633637   0.000221027635193 0
force Pt  -0.000170689538869   0.000312979458389   0.000279438069523 0
force Pt  -0.000064540114921   0.000217265219747   0.000178661870971 0
force Pt  -0.000244431321202   0.000257536396586  -0.000137496870558 0
force Pt  -0.000427205542175   0.000342340270043  -0.000090382952960 0
force Pt  -0.000375612987151   0.000322071315155   0.000061748627691 0
force C  -0.006881221712523   0.019030515319418   0.012458068723051 1  Linear 0 0 1
force O   0.008319570860127  -0.014905752006077  -0.011009947246460 1  Linear 0 0 1

# Energy components:
   A_diel =       -0.0145432382272701
   Eewald =    46261.6656175621610601
       EH =    52623.9285237778385635
     Eloc =  -106850.5794607203279156
      Enl =      -77.1085725626957412
     EvdW =       -1.8603816994420876
      Exc =    -2168.0683620966801755
 Exc_core =     1245.8437183922374061
       KE =     2182.4563878141634632
  MuShift =       -0.0000000000016351
-------------------------------------
     Etot =    -6783.7370727709731000
       TS =        0.0132182668719683
-------------------------------------
        F =    -6783.7502910378452725


Dumping 'jdft.fillings' ... done
Dumping 'jdft.wfns' ... done
Dumping 'jdft.fluidState' ... done
Dumping 'jdft.ionpos' ... done
Dumping 'jdft.lattice' ... done
Dumping 'jdft.eigenvals' ... done
Dumping 'jdft.eigStats' ... 
	eMin: -2.149676 at state 6 ( [ +0.000000 +0.000000 +0.000000 ] spin -1 )
	HOMO: -0.189630 at state 0 ( [ +0.000000 +0.000000 +0.000000 ] spin 1 )
	mu  : -0.189570
	LUMO: -0.189566 at state 6 ( [ +0.000000 +0.000000 +0.000000 ] spin -1 )
	eMax: +0.109736 at state 4 ( [ +0.400000 +0.000000 +0.000000 ] spin 1 )
	HOMO-LUMO gap: +0.000064
	Optical gap  : +0.000064 at state 6 ( [ +0.000000 +0.000000 +0.000000 ] spin -1 )
Dumping 'jdft.Ecomponents' ... done
IonicMinimize: Iter:   0  F: -6783.750291037845273  |grad|_K:  1.176e-02  t[s]:   3664.62

#--- Lowdin population analysis ---
# oxidation-state Pt +0.012 +0.069 +0.046 +0.067 +0.019 -0.041 +0.019 -0.026 -0.072 -0.044 -0.040 -0.041 +0.063 +0.065 +0.063 +0.065 +0.010 -0.010 +0.010 +0.004 +0.011 -0.000 +0.011 +0.005 +0.009 +0.014 +0.014 +0.008 +0.013 +0.013 +0.014 +0.014 +0.013 +0.011 +0.012 +0.012 +0.006 +0.009 +0.009 +0.009 +0.005 +0.005 +0.006 +0.005 +0.008 +0.007 +0.008 +0.007 +0.009 +0.009 +0.010 +0.010 +0.010 +0.010 +0.010 +0.009 +0.010 +0.011 +0.011 +0.011 +0.006 +0.006 +0.006 +0.006 +0.008 +0.008 +0.009 +0.009 -0.044 -0.044 -0.044 -0.044 +0.019 +0.019 +0.019 +0.019
# magnetic-moments Pt -0.000 -0.000 -0.000 -0.000 -0.000 -0.000 -0.000 -0.000 -0.000 -0.000 -0.000 -0.000 -0.000 -0.000 -0.000 -0.000 -0.000 -0.000 -0.000 -0.000 -0.000 -0.000 -0.000 -0.000 -0.000 -0.000 -0.000 -0.000 -0.000 -0.000 -0.000 -0.000 -0.000 -0.000 -0.000 -0.000 -0.000 -0.000 -0.000 -0.000 -0.000 -0.000 -0.000 -0.000 -0.000 -0.000 -0.000 -0.000 -0.000 -0.000 -0.000 -0.000 -0.000 -0.000 -0.000 -0.000 -0.000 -0.000 -0.000 -0.000 -0.000 -0.000 -0.000 -0.000 -0.000 -0.000 -0.000 -0.000 -0.000 -0.000 -0.000 -0.000 -0.000 -0.000 -0.000 -0.000
# oxidation-state C +0.431
# magnetic-moments C -0.000
# oxidation-state O -0.155
# magnetic-moments O +0.000


Computing DFT-D3 correction:
# coordination-number Pt 6.144 5.972 6.002 5.980 7.107 8.142 7.106 7.542 9.412 8.563 8.596 8.563 5.972 5.972 5.972 5.972 9.225 9.225 9.225 9.225 9.402 9.404 9.402 9.403 9.504 9.504 9.504 9.504 9.524 9.524 9.524 9.524 9.562 9.562 9.562 9.562 9.557 9.557 9.557 9.557 9.569 9.569 9.569 9.569 9.555 9.555 9.555 9.555 9.558 9.558 9.558 9.558 9.521 9.521 9.521 9.521 9.503 9.503 9.503 9.503 9.404 9.404 9.404 9.404 9.227 9.227 9.227 9.227 8.566 8.566 8.566 8.566 7.110 7.110 7.110 7.110
# coordination-number C 3.497
# coordination-number O 1.094
# diagonal-C6 Pt 336.87 336.87 336.87 336.87 336.87 336.87 336.87 336.87 336.87 336.87 336.87 336.87 336.87 336.87 336.87 336.87 336.87 336.87 336.87 336.87 336.87 336.87 336.87 336.87 336.87 336.87 336.87 336.87 336.87 336.87 336.87 336.87 336.87 336.87 336.87 336.87 336.87 336.87 336.87 336.87 336.87 336.87 336.87 336.87 336.87 336.87 336.87 336.87 336.87 336.87 336.87 336.87 336.87 336.87 336.87 336.87 336.87 336.87 336.87 336.87 336.87 336.87 336.87 336.87 336.87 336.87 336.87 336.87 336.87 336.87 336.87 336.87 336.87 336.87 336.87 336.87
# diagonal-C6 C 21.68
# diagonal-C6 O 12.73
EvdW_6 =   -0.723023
EvdW_8 =   -1.137412

-------- Electronic minimization -----------
	Linear fluid (dielectric constant: 78.4, screening length: 8.12261 Bohr) occupying 0.362612 of unit cell:	Completed after 15 iterations at t[s]:   3838.81
	FillingsUpdate:  mu: -0.189557698  nElectrons: 1226.000000  magneticMoment: [ Abs: 0.00002  Tot: -0.00002 ]
ElecMinimize: Iter:   0  F: -6783.749842248613277  |grad|_K:  2.126e-06  alpha:  1.000e+00
	Linear fluid (dielectric constant: 78.4, screening length: 8.12261 Bohr) occupying 0.363195 of unit cell:	Completed after 27 iterations at t[s]:   4142.31
	Linear fluid (dielectric constant: 78.4, screening length: 8.12261 Bohr) occupying 0.362643 of unit cell:	Completed after 26 iterations at t[s]:   4244.23
	FillingsUpdate:  mu: -0.189472809  nElectrons: 1226.000000  magneticMoment: [ Abs: 0.00002  Tot: -0.00002 ]
	SubspaceRotationAdjust: set factor to 0.0213
ElecMinimize: Iter:   1  F: -6783.750186232477972  |grad|_K:  4.666e-07  alpha:  1.302e-01  linmin:  8.260e-05  t[s]:   4373.25
	Linear fluid (dielectric constant: 78.4, screening length: 8.12261 Bohr) occupying 0.362644 of unit cell:	Completed after 3 iterations at t[s]:   4513.33
ElecMinimize: 	Predicted alpha/alphaT>3.000000, increasing alphaT to 3.907363e-01.
	Linear fluid (dielectric constant: 78.4, screening length: 8.12261 Bohr) occupying 0.362645 of unit cell:	Completed after 6 iterations at t[s]:   4608.00
	Linear fluid (dielectric constant: 78.4, screening length: 8.12261 Bohr) occupying 0.362645 of unit cell:	Completed after 2 iterations at t[s]:   4701.38
	FillingsUpdate:  mu: -0.189429806  nElectrons: 1226.000000  magneticMoment: [ Abs: 0.00002  Tot: -0.00002 ]
	SubspaceRotationAdjust: set factor to 0.0244
ElecMinimize: Iter:   2  F: -6783.750240747002863  |grad|_K:  2.133e-07  alpha:  4.289e-01  linmin: -9.113e-05  t[s]:   4831.00
	Linear fluid (dielectric constant: 78.4, screening length: 8.12261 Bohr) occupying 0.362646 of unit cell:	Completed after 6 iterations at t[s]:   4972.55
	Linear fluid (dielectric constant: 78.4, screening length: 8.12261 Bohr) occupying 0.362646 of unit cell:	Completed after 3 iterations at t[s]:   5066.48
	FillingsUpdate:  mu: -0.189515730  nElectrons: 1226.000000  magneticMoment: [ Abs: 0.00002  Tot: -0.00002 ]
	SubspaceRotationAdjust: set factor to 0.029
ElecMinimize: Iter:   3  F: -6783.750256375831668  |grad|_K:  1.592e-07  alpha:  5.881e-01  linmin: -2.715e-05  t[s]:   5196.14
	Linear fluid (dielectric constant: 78.4, screening length: 8.12261 Bohr) occupying 0.362647 of unit cell:	Completed after 7 iterations at t[s]:   5338.12
	Linear fluid (dielectric constant: 78.4, screening length: 8.12261 Bohr) occupying 0.362647 of unit cell:	Completed after 2 iterations at t[s]:   5432.74
	FillingsUpdate:  mu: -0.189417149  nElectrons: 1226.000000  magneticMoment: [ Abs: 0.00002  Tot: -0.00002 ]
	SubspaceRotationAdjust: set factor to 0.0372
ElecMinimize: Iter:   4  F: -6783.750264315715867  |grad|_K:  1.241e-07  alpha:  5.360e-01  linmin:  1.705e-04  t[s]:   5562.56
	Linear fluid (dielectric constant: 78.4, screening length: 8.12261 Bohr) occupying 0.362644 of unit cell:	Completed after 8 iterations at t[s]:   5704.94
	Linear fluid (dielectric constant: 78.4, screening length: 8.12261 Bohr) occupying 0.362642 of unit cell:	Completed after 6 iterations at t[s]:   5800.37
	FillingsUpdate:  mu: -0.189521387  nElectrons: 1226.000000  magneticMoment: [ Abs: 0.00002  Tot: -0.00002 ]
	SubspaceRotationAdjust: set factor to 0.0393
ElecMinimize: Iter:   5  F: -6783.750271556965345  |grad|_K:  1.682e-07  alpha:  8.078e-01  linmin:  4.355e-05  t[s]:   5929.94
	Linear fluid (dielectric constant: 78.4, screening length: 8.12261 Bohr) occupying 0.362643 of unit cell:	Completed after 13 iterations at t[s]:   6073.66
	Linear fluid (dielectric constant: 78.4, screening length: 8.12261 Bohr) occupying 0.362643 of unit cell:	Completed after 11 iterations at t[s]:   6170.68
	FillingsUpdate:  mu: -0.189311846  nElectrons: 1226.000000  magneticMoment: [ Abs: 0.00002  Tot: -0.00002 ]
	SubspaceRotationAdjust: set factor to 0.0339
ElecMinimize: Iter:   6  F: -6783.750277997138255  |grad|_K:  2.038e-07  alpha:  3.904e-01  linmin:  1.561e-05  t[s]:   6299.62
	Linear fluid (dielectric constant: 78.4, screening length: 8.12261 Bohr) occupying 0.362635 of unit cell:	Completed after 10 iterations at t[s]:   6441.93
	Linear fluid (dielectric constant: 78.4, screening length: 8.12261 Bohr) occupying 0.362632 of unit cell:	Completed after 8 iterations at t[s]:   6538.26
	FillingsUpdate:  mu: -0.189182664  nElectrons: 1226.000000  magneticMoment: [ Abs: 0.00002  Tot: -0.00002 ]
	SubspaceRotationAdjust: set factor to 0.0305
ElecMinimize: Iter:   7  F: -6783.750290422468424  |grad|_K:  1.999e-07  alpha:  5.123e-01  linmin: -2.587e-05  t[s]:   6667.26
	Linear fluid (dielectric constant: 78.4, screening length: 8.12261 Bohr) occupying 0.362626 of unit cell:	Completed after 12 iterations at t[s]:   6810.12
	Linear fluid (dielectric constant: 78.4, screening length: 8.12261 Bohr) occupying 0.362625 of unit cell:	Completed after 7 iterations at t[s]:   6906.10
	FillingsUpdate:  mu: -0.189635180  nElectrons: 1226.000000  magneticMoment: [ Abs: 0.00002  Tot: -0.00002 ]
	SubspaceRotationAdjust: set factor to 0.0275
ElecMinimize: Iter:   8  F: -6783.750306261660626  |grad|_K:  2.097e-07  alpha:  6.763e-01  linmin: -2.493e-05  t[s]:   7036.19
	Linear fluid (dielectric constant: 78.4, screening length: 8.12261 Bohr) occupying 0.362615 of unit cell:	Completed after 15 iterations at t[s]:   7181.33
	Linear fluid (dielectric constant: 78.4, screening length: 8.12261 Bohr) occupying 0.362618 of unit cell:	Completed after 11 iterations at t[s]:   7278.32
	FillingsUpdate:  mu: -0.188836284  nElectrons: 1226.000000  magneticMoment: [ Abs: 0.00002  Tot: -0.00001 ]
	SubspaceRotationAdjust: set factor to 0.0223
ElecMinimize: Iter:   9  F: -6783.750318209980833  |grad|_K:  1.851e-07  alpha:  4.639e-01  linmin:  1.933e-05  t[s]:   7407.57
	Linear fluid (dielectric constant: 78.4, screening length: 8.12261 Bohr) occupying 0.362616 of unit cell:	Completed after 12 iterations at t[s]:   7551.49
	Linear fluid (dielectric constant: 78.4, screening length: 8.12261 Bohr) occupying 0.362616 of unit cell:	Completed after 0 iterations at t[s]:   7643.92
	FillingsUpdate:  mu: -0.189171958  nElectrons: 1226.000000  magneticMoment: [ Abs: 0.00002  Tot: -0.00001 ]
	SubspaceRotationAdjust: set factor to 0.02
ElecMinimize: Iter:  10  F: -6783.750327528578055  |grad|_K:  1.342e-07  alpha:  4.664e-01  linmin: -3.365e-05  t[s]:   7773.46
	Linear fluid (dielectric constant: 78.4, screening length: 8.12261 Bohr) occupying 0.362613 of unit cell:	Completed after 10 iterations at t[s]:   7916.66
	Linear fluid (dielectric constant: 78.4, screening length: 8.12261 Bohr) occupying 0.362612 of unit cell:	Completed after 0 iterations at t[s]:   8009.36
	FillingsUpdate:  mu: -0.189294039  nElectrons: 1226.000000  magneticMoment: [ Abs: 0.00002  Tot: -0.00001 ]
	SubspaceRotationAdjust: set factor to 0.0196
ElecMinimize: Iter:  11  F: -6783.750332634455845  |grad|_K:  1.008e-07  alpha:  4.842e-01  linmin: -1.014e-04  t[s]:   8139.16
	Linear fluid (dielectric constant: 78.4, screening length: 8.12261 Bohr) occupying 0.362611 of unit cell:	Completed after 10 iterations at t[s]:   8281.54
	Linear fluid (dielectric constant: 78.4, screening length: 8.12261 Bohr) occupying 0.362611 of unit cell:	Completed after 0 iterations at t[s]:   8374.00
	FillingsUpdate:  mu: -0.189021538  nElectrons: 1226.000000  magneticMoment: [ Abs: 0.00002  Tot: -0.00001 ]
	SubspaceRotationAdjust: set factor to 0.0197
ElecMinimize: Iter:  12  F: -6783.750335373174494  |grad|_K:  7.628e-08  alpha:  4.575e-01  linmin:  3.238e-04  t[s]:   8503.70
	Linear fluid (dielectric constant: 78.4, screening length: 8.12261 Bohr) occupying 0.362610 of unit cell:	Completed after 6 iterations at t[s]:   8645.12
	Linear fluid (dielectric constant: 78.4, screening length: 8.12261 Bohr) occupying 0.362610 of unit cell:	Completed after 0 iterations at t[s]:   8738.71
	FillingsUpdate:  mu: -0.189151490  nElectrons: 1226.000000  magneticMoment: [ Abs: 0.00002  Tot: -0.00001 ]
	SubspaceRotationAdjust: set factor to 0.024
ElecMinimize: Iter:  13  F: -6783.750337055827913  |grad|_K:  5.638e-08  alpha:  5.026e-01  linmin: -4.930e-04  t[s]:   8894.35
	Linear fluid (dielectric constant: 78.4, screening length: 8.12261 Bohr) occupying 0.362609 of unit cell:	Completed after 3 iterations at t[s]:   9033.71
	Linear fluid (dielectric constant: 78.4, screening length: 8.12261 Bohr) occupying 0.362609 of unit cell:	Completed after 0 iterations at t[s]:   9126.87
	FillingsUpdate:  mu: -0.189176464  nElectrons: 1226.000000  magneticMoment: [ Abs: 0.00002  Tot: -0.00001 ]
	SubspaceRotationAdjust: set factor to 0.0301
ElecMinimize: Iter:  14  F: -6783.750338285996804  |grad|_K:  5.369e-08  alpha:  6.412e-01  linmin: -2.797e-04  t[s]:   9255.35
	Linear fluid (dielectric constant: 78.4, screening length: 8.12261 Bohr) occupying 0.362609 of unit cell:	Completed after 6 iterations at t[s]:   9396.23
	Linear fluid (dielectric constant: 78.4, screening length: 8.12261 Bohr) occupying 0.362609 of unit cell:	Completed after 0 iterations at t[s]:   9488.53
	FillingsUpdate:  mu: -0.189079876  nElectrons: 1226.000000  magneticMoment: [ Abs: 0.00002  Tot: -0.00001 ]
	SubspaceRotationAdjust: set factor to 0.0335
ElecMinimize: Iter:  15  F: -6783.750339359233294  |grad|_K:  6.037e-08  alpha:  6.239e-01  linmin:  2.325e-04  t[s]:   9617.40
	Linear fluid (dielectric constant: 78.4, screening length: 8.12261 Bohr) occupying 0.362608 of unit cell:	Completed after 6 iterations at t[s]:   9758.26
	Linear fluid (dielectric constant: 78.4, screening length: 8.12261 Bohr) occupying 0.362608 of unit cell:	Completed after 1 iterations at t[s]:   9851.37
	FillingsUpdate:  mu: -0.189238497  nElectrons: 1226.000000  magneticMoment: [ Abs: 0.00001  Tot: -0.00001 ]
	SubspaceRotationAdjust: set factor to 0.0341
ElecMinimize: Iter:  16  F: -6783.750340515380230  |grad|_K:  6.410e-08  alpha:  5.577e-01  linmin:  7.371e-05  t[s]:   9980.48
	Linear fluid (dielectric constant: 78.4, screening length: 8.12261 Bohr) occupying 0.362608 of unit cell:	Completed after 7 iterations at t[s]:  10121.86
	Linear fluid (dielectric constant: 78.4, screening length: 8.12261 Bohr) occupying 0.362608 of unit cell:	Completed after 0 iterations at t[s]:  10214.41
	FillingsUpdate:  mu: -0.189157148  nElectrons: 1226.000000  magneticMoment: [ Abs: 0.00001  Tot: -0.00001 ]
	SubspaceRotationAdjust: set factor to 0.0344
ElecMinimize: Iter:  17  F: -6783.750341859748914  |grad|_K:  6.602e-08  alpha:  5.661e-01  linmin: -9.576e-05  t[s]:  10343.49
	Linear fluid (dielectric constant: 78.4, screening length: 8.12261 Bohr) occupying 0.362606 of unit cell:	Completed after 7 iterations at t[s]:  10486.63
	Linear fluid (dielectric constant: 78.4, screening length: 8.12261 Bohr) occupying 0.362606 of unit cell:	Completed after 0 iterations at t[s]:  10578.82
	FillingsUpdate:  mu: -0.189248645  nElectrons: 1226.000000  magneticMoment: [ Abs: 0.00001  Tot: -0.00001 ]
	SubspaceRotationAdjust: set factor to 0.0317
ElecMinimize: Iter:  18  F: -6783.750343301695466  |grad|_K:  7.055e-08  alpha:  5.570e-01  linmin:  1.907e-05  t[s]:  10708.25
	Linear fluid (dielectric constant: 78.4, screening length: 8.12261 Bohr) occupying 0.362607 of unit cell:	Completed after 10 iterations at t[s]:  10850.34
	Linear fluid (dielectric constant: 78.4, screening length: 8.12261 Bohr) occupying 0.362607 of unit cell:	Completed after 7 iterations at t[s]:  10945.47
	FillingsUpdate:  mu: -0.189320977  nElectrons: 1226.000000  magneticMoment: [ Abs: 0.00001  Tot: -0.00001 ]
	SubspaceRotationAdjust: set factor to 0.0256
ElecMinimize: Iter:  19  F: -6783.750344350025443  |grad|_K:  6.530e-08  alpha:  3.629e-01  linmin:  1.222e-05  t[s]:  11075.46
	Linear fluid (dielectric constant: 78.4, screening length: 8.12261 Bohr) occupying 0.362605 of unit cell:	Completed after 6 iterations at t[s]:  11216.27
	Linear fluid (dielectric constant: 78.4, screening length: 8.12261 Bohr) occupying 0.362605 of unit cell:	Completed after 1 iterations at t[s]:  11309.96
	FillingsUpdate:  mu: -0.189287509  nElectrons: 1226.000000  magneticMoment: [ Abs: 0.00001  Tot: -0.00001 ]
	SubspaceRotationAdjust: set factor to 0.0244
[...]
	Linear fluid (dielectric constant: 78.4, screening length: 8.12261 Bohr) occupying 0.362501 of unit cell:	Completed after 2 iterations at t[s]:  57198.49
	Linear fluid (dielectric constant: 78.4, screening length: 8.12261 Bohr) occupying 0.362501 of unit cell:	Completed after 2 iterations at t[s]:  57292.71
	FillingsUpdate:  mu: -0.189414814  nElectrons: 1226.000000  magneticMoment: [ Abs: 0.00000  Tot: -0.00000 ]
	SubspaceRotationAdjust: set factor to 0.0227
ElecMinimize: Iter:  15  F: -6783.750396850572542  |grad|_K:  3.681e-08  alpha:  5.377e-01  linmin: -1.515e-04  t[s]:  57423.06
	Linear fluid (dielectric constant: 78.4, screening length: 8.12261 Bohr) occupying 0.362501 of unit cell:	Completed after 6 iterations at t[s]:  57565.10
	Linear fluid (dielectric constant: 78.4, screening length: 8.12261 Bohr) occupying 0.362501 of unit cell:	Completed after 0 iterations at t[s]:  57658.52
	FillingsUpdate:  mu: -0.189427457  nElectrons: 1226.000000  magneticMoment: [ Abs: 0.00000  Tot: -0.00000 ]
	SubspaceRotationAdjust: set factor to 0.0212
ElecMinimize: Iter:  16  F: -6783.750397198888095  |grad|_K:  3.640e-08  alpha:  4.354e-01  linmin:  5.526e-04  t[s]:  57788.45
	Linear fluid (dielectric constant: 78.4, screening length: 8.12261 Bohr) occupying 0.362503 of unit cell:	Completed after 7 iterations at t[s]:  57932.06
	Linear fluid (dielectric constant: 78.4, screening length: 8.12261 Bohr) occupying 0.362502 of unit cell:	Completed after 2 iterations at t[s]:  58025.84
	FillingsUpdate:  mu: -0.189395004  nElectrons: 1226.000000  magneticMoment: [ Abs: 0.00000  Tot: -0.00000 ]
	SubspaceRotationAdjust: set factor to 0.0168
ElecMinimize: Iter:  17  F: -6783.750397388936108  |grad|_K:  2.535e-08  alpha:  2.725e-01  linmin:  1.330e-04  t[s]:  58155.72
	Linear fluid (dielectric constant: 78.4, screening length: 8.12261 Bohr) occupying 0.362503 of unit cell:	Completed after 0 iterations at t[s]:  58296.11
	Linear fluid (dielectric constant: 78.4, screening length: 8.12261 Bohr) occupying 0.362503 of unit cell:	Completed after 2 iterations at t[s]:  58390.78
	FillingsUpdate:  mu: -0.189396126  nElectrons: 1226.000000  magneticMoment: [ Abs: 0.00000  Tot: -0.00000 ]
	SubspaceRotationAdjust: set factor to 0.021
ElecMinimize: Iter:  18  F: -6783.750397544117732  |grad|_K:  2.025e-08  alpha:  4.326e-01  linmin:  5.317e-04  t[s]:  58520.67
	Linear fluid (dielectric constant: 78.4, screening length: 8.12261 Bohr) occupying 0.362503 of unit cell:	Completed after 3 iterations at t[s]:  58661.31
	Linear fluid (dielectric constant: 78.4, screening length: 8.12261 Bohr) occupying 0.362503 of unit cell:	Completed after 0 iterations at t[s]:  58754.78
	FillingsUpdate:  mu: -0.189396312  nElectrons: 1226.000000  magneticMoment: [ Abs: 0.00000  Tot: -0.00000 ]
	SubspaceRotationAdjust: set factor to 0.0203
ElecMinimize: Iter:  19  F: -6783.750397632806198  |grad|_K:  1.650e-08  alpha:  3.818e-01  linmin: -4.480e-05  t[s]:  58884.85
	Linear fluid (dielectric constant: 78.4, screening length: 8.12261 Bohr) occupying 0.362504 of unit cell:	Completed after 2 iterations at t[s]:  59024.93
	Linear fluid (dielectric constant: 78.4, screening length: 8.12261 Bohr) occupying 0.362504 of unit cell:	Completed after 0 iterations at t[s]:  59117.95
	FillingsUpdate:  mu: -0.189392292  nElectrons: 1226.000000  magneticMoment: [ Abs: 0.00000  Tot: -0.00000 ]
	SubspaceRotationAdjust: set factor to 0.0229
ElecMinimize: Iter:  20  F: -6783.750397694613639  |grad|_K:  1.285e-08  alpha:  3.904e-01  linmin: -2.018e-03  t[s]:  59248.44
ElecMinimize: Converged (|Delta F|<1.000000e-07 for 2 iters).
Setting wave functions to eigenvectors of Hamiltonian
Converging empty states (this may take a while): |deigs|: 3.401e-09

Computing DFT-D3 correction:
# coordination-number Pt 6.143 5.972 6.002 5.980 7.107 8.138 7.106 7.534 9.402 8.563 8.595 8.563 5.972 5.972 5.972 5.972 9.225 9.225 9.225 9.225 9.402 9.404 9.402 9.403 9.504 9.504 9.504 9.504 9.524 9.524 9.524 9.524 9.562 9.562 9.562 9.562 9.557 9.557 9.557 9.557 9.569 9.569 9.569 9.569 9.555 9.555 9.555 9.555 9.558 9.558 9.558 9.558 9.521 9.521 9.521 9.521 9.503 9.503 9.503 9.503 9.404 9.404 9.404 9.404 9.227 9.227 9.227 9.227 8.566 8.566 8.566 8.566 7.110 7.110 7.110 7.110
# coordination-number C 3.477
# coordination-number O 1.090
# diagonal-C6 Pt 336.87 336.87 336.87 336.87 336.87 336.87 336.87 336.87 336.87 336.87 336.87 336.87 336.87 336.87 336.87 336.87 336.87 336.87 336.87 336.87 336.87 336.87 336.87 336.87 336.87 336.87 336.87 336.87 336.87 336.87 336.87 336.87 336.87 336.87 336.87 336.87 336.87 336.87 336.87 336.87 336.87 336.87 336.87 336.87 336.87 336.87 336.87 336.87 336.87 336.87 336.87 336.87 336.87 336.87 336.87 336.87 336.87 336.87 336.87 336.87 336.87 336.87 336.87 336.87 336.87 336.87 336.87 336.87 336.87 336.87 336.87 336.87 336.87 336.87 336.87 336.87
# diagonal-C6 C 21.98
# diagonal-C6 O 12.74
EvdW_6 =   -0.723051
EvdW_8 =   -1.137429

# Ionic positions in cartesian coordinates:
ion Pt  -0.003625000000000   7.025740000000002  63.415598000000003 0
ion Pt  -2.619617000000002  18.428585999999999  63.415598000000003 0
ion Pt   5.228370999999997   7.025740000000002  63.415598000000003 0
ion Pt   2.612378999999997  18.428585999999999  63.415598000000003 0
ion Pt   2.611577000000000   2.915417000000001  62.117125000000001 0
ion Pt  -0.004425000000000  14.318308000000002  62.117125000000001 0
ion Pt   7.843572999999998   2.915417000000001  62.117125000000001 0
ion Pt   5.227570999999999  14.318308000000002  62.117125000000001 0
ion Pt   2.612163999999999  10.310451000000000  60.490712000000002 0
ion Pt  -0.003844000000003  21.713318999999998  60.490712000000002 0
ion Pt   7.844159999999995  10.310451000000000  60.490712000000002 0
ion Pt   5.228162999999996  21.713318999999998  60.490712000000002 0
ion Pt   0.004081000000000   0.176152000000000  33.343209999999999 0
ion Pt  -2.611916000000000  11.579020000000002  33.343209999999999 0
ion Pt   5.236076999999999   0.176152000000000  33.343209999999999 0
ion Pt   2.620079999999998  11.579020000000002  33.343209999999999 0
ion Pt  -0.007031000000000   6.054923000000000  58.452824999999997 0
ion Pt  -2.623034000000002  17.457813999999999  58.452824999999997 0
ion Pt   5.224965000000000   6.054923000000000  58.452824999999997 0
ion Pt   2.608961999999996  17.457813999999999  58.452824999999997 0
ion Pt   2.607397000000000   1.786647000000000  56.910010000000000 0
ion Pt  -0.008600000000002  13.189515000000004  56.910010000000000 0
ion Pt   7.839392999999998   1.786647000000000  56.910010000000000 0
ion Pt   5.223384999999997  13.189515000000004  56.910010000000000 0
ion Pt   2.605691999999999   9.066512000000001  55.152394999999999 0
ion Pt  -0.010305000000003  20.469380000000001  55.152394999999999 0
ion Pt   7.837687999999996   9.066512000000001  55.152394999999999 0
ion Pt   5.221690999999996  20.469380000000001  55.152394999999999 0
ion Pt  -0.008156000000000   4.827131000000000  53.486634000000002 0
ion Pt  -2.624153000000002  16.229998999999999  53.486634000000002 0
ion Pt   5.223839999999998   4.827131000000000  53.486634000000002 0
ion Pt   2.607842999999998  16.229998999999999  53.486634000000002 0
ion Pt   2.609735000000000   0.615322000000000  51.780881000000001 0
ion Pt  -0.006262000000001  12.018190000000002  51.780881000000001 0
ion Pt   7.841730999999997   0.615322000000000  51.780881000000001 0
ion Pt   5.225733999999997  12.018190000000002  51.780881000000001 0
ion Pt   2.612801999999998   7.796666000000001  50.055065999999997 0
ion Pt  -0.003195000000003  19.199534000000003  50.055065999999997 0
ion Pt   7.844797999999996   7.796666000000001  50.055065999999997 0
ion Pt   5.228800999999997  19.199534000000003  50.055065999999997 0
ion Pt  -0.000235000000000   3.600775000000001  48.378791000000000 0
ion Pt  -2.616232000000001  15.003643000000002  48.378791000000000 0
ion Pt   5.231760999999999   3.600775000000001  48.378791000000000 0
ion Pt   2.615763999999999  15.003643000000002  48.378791000000000 0
ion Pt   0.003259999999998  10.807981000000000  46.702193999999999 0
ion Pt  -2.612737000000002  22.210849000000000  46.702193999999999 0
ion Pt   5.235255999999998  10.807981000000000  46.702193999999999 0
ion Pt   2.619258999999998  22.210849000000000  46.702193999999999 0
ion Pt   2.622014999999998   6.586662000000000  44.975670000000001 0
ion Pt   0.006012999999998  17.989553000000001  44.975670000000001 0
ion Pt   7.854010999999995   6.586662000000000  44.975670000000001 0
ion Pt   5.238008999999997  17.989553000000001  44.975670000000001 0
ion Pt   0.008073000000000   2.374602000000000  43.269012999999987 0
ion Pt  -2.607924000000001  13.777469999999999  43.269012999999987 0
ion Pt   5.240068999999997   2.374602000000000  43.269012999999987 0
ion Pt   2.624072000000000  13.777469999999999  43.269012999999987 0
ion Pt   0.010323999999998   9.538157000000000  41.602607999999996 0
ion Pt  -2.605673000000002  20.941025000000000  41.602607999999996 0
ion Pt   5.242318999999998   9.538157000000000  41.602607999999996 0
ion Pt   2.626321999999998  20.941025000000000  41.602607999999996 0
ion Pt   2.624333000000000   5.415154000000000  39.845444000000001 0
ion Pt   0.008335999999998  16.818021999999999  39.845444000000001 0
ion Pt   7.856328999999996   5.415154000000000  39.845444000000001 0
ion Pt   5.240331999999996  16.818021999999999  39.845444000000001 0
ion Pt   0.007414000000000   1.147015000000000  38.303145000000001 0
ion Pt  -2.608583000000000  12.549882999999999  38.303145000000001 0
ion Pt   5.239410000000000   1.147015000000000  38.303145000000001 0
ion Pt   2.623413000000000  12.549882999999999  38.303145000000001 0
ion Pt   0.003689000000000   8.293875999999999  36.265515999999998 0
ion Pt  -2.612297000000003  19.696744000000002  36.265515999999998 0
ion Pt   5.235684999999997   8.293875999999999  36.265515999999998 0
ion Pt   2.619687999999996  19.696744000000002  36.265515999999998 0
ion Pt   2.620486999999999   4.286566000000000  34.640458000000002 0
ion Pt   0.004495999999999  15.689412000000003  34.640458000000002 0
ion Pt   7.852483000000000   4.286566000000000  34.640458000000002 0
ion Pt   5.236490999999998  15.689412000000003  34.640458000000002 0
ion C   1.739837999999998  11.887445000000001  64.377215683844796 1  Linear 0 0 1
ion O   1.799932999999998  11.887445000000001   2.113230260809547 1  Linear 0 0 1

# Forces in Cartesian coordinates:
force Pt  -0.004561816499695  -0.006417382958000   0.001894765571114 0
force Pt  -0.001343388451798   0.001089637441605  -0.000735522201166 0
force Pt   0.004680445646300  -0.006860648048737   0.001661243199517 0
force Pt   0.001276433820499   0.006629418358350  -0.000241508792050 0
force Pt   0.000264387212949  -0.000864869210771  -0.000489976926928 0
force Pt  -0.009103459912495   0.002947823789658   0.005584420378571 0
force Pt   0.000565959983241   0.001668750727583   0.000778580573914 0
force Pt   0.009380897829288   0.005356620822678   0.002552292580700 0
force Pt   0.004011688692171  -0.007451640971303   0.005494152273630 0
force Pt   0.000275074288002  -0.000407357886317  -0.000796517663790 0
force Pt  -0.005250817027487  -0.006106555203740  -0.008017743780615 0
force Pt   0.000116992613225  -0.000211455354589  -0.000699028916995 0
force Pt   0.000239995066157   0.000177617169405  -0.000830578964851 0
force Pt   0.000300444538393   0.000054003053706  -0.000594686155361 0
force Pt  -0.000047706625503   0.000195592160533  -0.000669304950082 0
force Pt   0.000108634152400   0.000120633639226  -0.000866513047576 0
force Pt  -0.000587407827967  -0.001302014213951  -0.001348653707446 0
force Pt   0.001298841668421  -0.002615319443283   0.003614982331566 0
force Pt   0.000087157051064  -0.000861305653011  -0.000642424198196 0
force Pt   0.000148552659107   0.001966659240175  -0.001383675902256 0
force Pt  -0.000049072538050   0.000582992399220   0.000877869753048 0
force Pt  -0.001443797119569   0.001876358330988  -0.005542939635572 0
force Pt  -0.000071545333449   0.000618830364790   0.000632514475044 0
force Pt   0.000731474210618   0.001028467205983  -0.000637930413129 0
force Pt  -0.000196830451720   0.000895138424783   0.004908386556360 0
force Pt   0.000419873271712  -0.000120457944851  -0.000373350172970 0
force Pt   0.000679927919079   0.000252476810001   0.000329759060856 0
force Pt  -0.000347221124744   0.001444238603377  -0.002039387556168 0
force Pt   0.000153168459775  -0.000683606612376  -0.000743612548333 0
force Pt   0.000330052283736  -0.000334203840855  -0.000394506937920 0
force Pt   0.000180236936926  -0.000462674592955  -0.000772861443932 0
force Pt  -0.000033115052204  -0.000760724206300   0.000422103913574 0
force Pt  -0.000010073441958  -0.000006200408312  -0.000100663575149 0
force Pt  -0.000203306861711  -0.000147755793010  -0.002006436552117 0
force Pt  -0.000417319508274   0.000850963574981  -0.000849867901305 0
force Pt  -0.000067796549249  -0.000165163565091  -0.000651803731493 0
force Pt   0.000242622102871   0.000266727362748   0.000567804834006 0
force Pt   0.000242545772812  -0.000326180446502  -0.000027032033396 0
force Pt   0.000375256722991  -0.000058730765126   0.000123719718814 0
force Pt   0.000422724347784  -0.000503814081951   0.000349092485376 0
force Pt   0.000163116626200   0.000460119387600  -0.000084211753589 0
force Pt   0.000023851288116   0.000131056687322   0.000159971827197 0
force Pt  -0.000287248905154   0.000261406176671   0.000048455612635 0
force Pt  -0.000069921628317   0.000085815540942   0.000287199239041 0
force Pt  -0.000118397001389   0.000324383282848  -0.000391271541216 0
force Pt  -0.000312966486149   0.000461375639855  -0.000073860837500 0
force Pt  -0.000407805899307   0.000279225558368   0.000171894905696 0
force Pt  -0.000137340372210   0.000489951360482   0.000141306790258 0
force Pt   0.000128404045708  -0.000592514986778  -0.000631734173953 0
force Pt   0.000065146627018  -0.000225680283996  -0.000155734897184 0
force Pt   0.000065094916845  -0.000362251537700  -0.000170839804650 0
force Pt   0.000114853604524  -0.000230671489060  -0.000129909671873 0
force Pt  -0.000232597531729   0.000142279296365   0.000534132549709 0
force Pt  -0.000313168120713   0.000224208554885   0.000283750747756 0
force Pt  -0.000100569748775   0.000363046914563   0.000270629043270 0
force Pt  -0.000145444821007   0.000180172036730   0.000470769838286 0
force Pt   0.000054147126547   0.000007440485394   0.000591463757866 0
force Pt  -0.000232879432480   0.000211968566901   0.000393152635364 0
force Pt  -0.000353459118848   0.000025281366474   0.000503978517793 0
force Pt  -0.000306700989500   0.000454750331632   0.000393934850883 0
force Pt   0.000071515168372  -0.000277076674243  -0.001183999637778 0
force Pt   0.000051793633716  -0.000604559582264  -0.000614037850326 0
force Pt   0.000065324570469  -0.000470105142138  -0.000835216901583 0
force Pt   0.000021642507807  -0.000476548518518  -0.000626759818018 0
force Pt   0.000135678094125  -0.000039261804215   0.000079297977951 0
force Pt   0.000226494686536   0.000378733380678  -0.000185330325888 0
force Pt   0.000227407843645  -0.000007510952092  -0.000071556040744 0
force Pt   0.000094387980985   0.000286087947855   0.000001786071631 0
force Pt  -0.000039171516580   0.000057362606988   0.000589983667725 0
force Pt  -0.000068073252867   0.000107983656862   0.000434708544118 0
force Pt  -0.000109132348214   0.000029127138948   0.000255291974515 0
force Pt  -0.000173030584863   0.000354834810057   0.000334001807693 0
force Pt  -0.000062918406973   0.000199222832530   0.000208701003197 0
force Pt  -0.000244532006577   0.000230341763123  -0.000085170593949 0
force Pt  -0.000429467034564   0.000317737880797  -0.000052035386107 0
force Pt  -0.000374742732522   0.000293356011269   0.000114472121392 0
force C  -0.008438885879186   0.020024009669280  -0.000086175022223 1  Linear 0 0 1
force O   0.008628117544534  -0.014583410077890   0.000063878789184 1  Linear 0 0 1

# Energy components:
   A_diel =       -0.0143133565440133
   Eewald =    46258.5468566447452758
       EH =    52620.9553480601171032
     Eloc =  -106844.4926770902675344
      Enl =      -77.1050457371316611
     EvdW =       -1.8604800375528081
      Exc =    -2168.0679240046661107
 Exc_core =     1245.8437157947619198
       KE =     2182.4573373588850700
  MuShift =       -0.0000000000016351
-------------------------------------
     Etot =    -6783.7371823676621716
       TS =        0.0132153269516735
-------------------------------------
        F =    -6783.7503976946136390


Dumping 'jdft.fillings' ... done
Dumping 'jdft.wfns' ... done
Dumping 'jdft.fluidState' ... done
Dumping 'jdft.ionpos' ... done
Dumping 'jdft.lattice' ... done
Dumping 'jdft.eigenvals' ... done
Dumping 'jdft.eigStats' ... 
	eMin: -2.148864 at state 6 ( [ +0.000000 +0.000000 +0.000000 ] spin -1 )
	HOMO: -0.189452 at state 0 ( [ +0.000000 +0.000000 +0.000000 ] spin 1 )
	mu  : -0.189392
	LUMO: -0.189388 at state 6 ( [ +0.000000 +0.000000 +0.000000 ] spin -1 )
	eMax: +0.109809 at state 4 ( [ +0.400000 +0.000000 +0.000000 ] spin 1 )
	HOMO-LUMO gap: +0.000065
	Optical gap  : +0.000065 at state 6 ( [ +0.000000 +0.000000 +0.000000 ] spin -1 )
Dumping 'jdft.Ecomponents' ... done
IonicMinimize: Iter:   5  F: -6783.750397694613639  |grad|_K:  7.585e-05  alpha:  1.000e+00  linmin: -6.477e-04  t[s]:  59861.59
IonicMinimize: Converged (|grad|_K<1.000000e-04).

#--- Lowdin population analysis ---
# oxidation-state Pt +0.010 +0.067 +0.045 +0.066 +0.018 -0.045 +0.018 -0.029 -0.075 -0.045 -0.042 -0.042 +0.065 +0.066 +0.065 +0.066 +0.009 -0.011 +0.008 +0.003 +0.009 -0.002 +0.008 +0.003 +0.008 +0.012 +0.013 +0.006 +0.012 +0.011 +0.012 +0.013 +0.012 +0.010 +0.010 +0.011 +0.005 +0.009 +0.008 +0.008 +0.004 +0.004 +0.005 +0.004 +0.009 +0.007 +0.008 +0.007 +0.010 +0.011 +0.011 +0.011 +0.012 +0.011 +0.011 +0.011 +0.012 +0.013 +0.013 +0.013 +0.007 +0.007 +0.008 +0.007 +0.010 +0.010 +0.010 +0.010 -0.043 -0.043 -0.043 -0.043 +0.020 +0.020 +0.020 +0.020
# magnetic-moments Pt -0.000 -0.000 -0.000 -0.000 -0.000 -0.000 -0.000 -0.000 -0.000 -0.000 -0.000 -0.000 -0.000 -0.000 -0.000 -0.000 -0.000 -0.000 -0.000 -0.000 -0.000 -0.000 -0.000 -0.000 -0.000 -0.000 -0.000 -0.000 -0.000 -0.000 -0.000 -0.000 -0.000 -0.000 -0.000 -0.000 -0.000 -0.000 -0.000 -0.000 -0.000 -0.000 -0.000 -0.000 -0.000 -0.000 -0.000 -0.000 -0.000 -0.000 -0.000 -0.000 -0.000 -0.000 -0.000 -0.000 -0.000 -0.000 -0.000 -0.000 -0.000 -0.000 -0.000 -0.000 -0.000 -0.000 -0.000 -0.000 -0.000 -0.000 -0.000 -0.000 -0.000 -0.000 -0.000 -0.000
# oxidation-state C +0.435
# magnetic-moments C -0.000
# oxidation-state O -0.147
# magnetic-moments O +0.000


Dumping 'jdft.n_up' ... done
Dumping 'jdft.n_dn' ... done
Dumping 'jdft.tau_up' ... done
Dumping 'jdft.tau_dn' ... done
Dumping 'jdft.eigenvals' ... done
Dumping 'jdft.eigStats' ... 
	eMin: -2.148864 at state 6 ( [ +0.000000 +0.000000 +0.000000 ] spin -1 )
	HOMO: -0.189452 at state 0 ( [ +0.000000 +0.000000 +0.000000 ] spin 1 )
	mu  : -0.189392
	LUMO: -0.189388 at state 6 ( [ +0.000000 +0.000000 +0.000000 ] spin -1 )
	eMax: +0.109809 at state 4 ( [ +0.400000 +0.000000 +0.000000 ] spin 1 )
	HOMO-LUMO gap: +0.000065
	Optical gap  : +0.000065 at state 6 ( [ +0.000000 +0.000000 +0.000000 ] spin -1 )
Dumping 'jdft.kPts' ... done
Dumping 'jdft.kMap' ... done
Dumping 'jdft.dosUp' ... done.
Dumping 'jdft.dosDn' ... done.
End date and time: Sun Feb 20 22:04:10 2022  (Duration: 0-16:41:07.39)
Done!
ipcrm: permission denied for id (137592834)
ipcrm: permission denied for id (137625603)
ipcrm: permission denied for id (137723910)
ipcrm: permission denied for id (137789448)
ipcrm: permission denied for id (137953293)
ipcrm: permission denied for id (138051600)
ipcrm: permission denied for id (138117138)
ipcrm: permission denied for id (138182676)
ipcrm: permission denied for id (138215445)
ipcrm: permission denied for id (138280983)
