
*************** JDFTx 1.6.0  ***************

Start date and time: Thu Dec  9 05:46:27 2021
Executable /projects/musgravc/apps/jdftx-1.6.1/build/jdftx with command-line: -i in
Running on hosts (process indices):  shas0131.rc.int.colorado.edu (0-23)
Divided in process groups (process indices):  0 (0)  1 (1)  2 (2)  3 (3)  4 (4)  5 (5)  6 (6)  7 (7)  8 (8)  9 (9)  10 (10)  11 (11)  12 (12)  13 (13)  14 (14)  15 (15)  16 (16)  17 (17)  18 (18)  19 (19)  20 (20)  21 (21)  22 (22)  23 (23)
Resource initialization completed at t[s]:      0.00
Run totals: 24 processes, 24 threads, 0 GPUs


Input parsed successfully to the following command list (including defaults):

basis kpoint-dependent
converge-empty-states yes
coords-type Cartesian
core-overlap-check none
coulomb-interaction Periodic
davidson-band-ratio 1.1
density-of-states Etol 1.000000e-06 Esigma 1.000000e-03 \
		Complete \
	Total \
	OrthoOrbital Pt 1   s \
	OrthoOrbital Pt 1   p \
	OrthoOrbital Pt 1   px \
	OrthoOrbital Pt 1   py \
	OrthoOrbital Pt 1   pz \
	OrthoOrbital Pt 1   d \
	OrthoOrbital Pt 1   dxy \
	OrthoOrbital Pt 1   dyz \
	OrthoOrbital Pt 1   dz2 \
	OrthoOrbital Pt 1   dxz \
	OrthoOrbital Pt 1   dx2-y2 \
	OrthoOrbital Pt 2   s \
	OrthoOrbital Pt 2   p \
	OrthoOrbital Pt 2   px \
	OrthoOrbital Pt 2   py \
	OrthoOrbital Pt 2   pz \
	OrthoOrbital Pt 2   d \
	OrthoOrbital Pt 2   dxy \
	OrthoOrbital Pt 2   dyz \
	OrthoOrbital Pt 2   dz2 \
	OrthoOrbital Pt 2   dxz \
	OrthoOrbital Pt 2   dx2-y2 \
	OrthoOrbital Pt 3   s \
	OrthoOrbital Pt 3   p \
	OrthoOrbital Pt 3   px \
	OrthoOrbital Pt 3   py \
	OrthoOrbital Pt 3   pz \
	OrthoOrbital Pt 3   d \
	OrthoOrbital Pt 3   dxy \
	OrthoOrbital Pt 3   dyz \
	OrthoOrbital Pt 3   dz2 \
	OrthoOrbital Pt 3   dxz \
	OrthoOrbital Pt 3   dx2-y2 \
	OrthoOrbital Pt 4   s \
	OrthoOrbital Pt 4   p \
	OrthoOrbital Pt 4   px \
	OrthoOrbital Pt 4   py \
	OrthoOrbital Pt 4   pz \
	OrthoOrbital Pt 4   d \
	OrthoOrbital Pt 4   dxy \
	OrthoOrbital Pt 4   dyz \
	OrthoOrbital Pt 4   dz2 \
	OrthoOrbital Pt 4   dxz \
	OrthoOrbital Pt 4   dx2-y2 \
	OrthoOrbital Pt 5   s \
	OrthoOrbital Pt 5   p \
	OrthoOrbital Pt 5   px \
	OrthoOrbital Pt 5   py \
	OrthoOrbital Pt 5   pz \
	OrthoOrbital Pt 5   d \
	OrthoOrbital Pt 5   dxy \
	OrthoOrbital Pt 5   dyz \
	OrthoOrbital Pt 5   dz2 \
	OrthoOrbital Pt 5   dxz \
	OrthoOrbital Pt 5   dx2-y2 \
	OrthoOrbital Pt 6   s \
	OrthoOrbital Pt 6   p \
	OrthoOrbital Pt 6   px \
	OrthoOrbital Pt 6   py \
	OrthoOrbital Pt 6   pz \
	OrthoOrbital Pt 6   d \
	OrthoOrbital Pt 6   dxy \
	OrthoOrbital Pt 6   dyz \
	OrthoOrbital Pt 6   dz2 \
	OrthoOrbital Pt 6   dxz \
	OrthoOrbital Pt 6   dx2-y2 \
	OrthoOrbital Pt 7   s \
	OrthoOrbital Pt 7   p \
	OrthoOrbital Pt 7   px \
	OrthoOrbital Pt 7   py \
	OrthoOrbital Pt 7   pz \
	OrthoOrbital Pt 7   d \
	OrthoOrbital Pt 7   dxy \
	OrthoOrbital Pt 7   dyz \
	OrthoOrbital Pt 7   dz2 \
	OrthoOrbital Pt 7   dxz \
	OrthoOrbital Pt 7   dx2-y2 \
	OrthoOrbital Pt 8   s \
	OrthoOrbital Pt 8   p \
	OrthoOrbital Pt 8   px \
	OrthoOrbital Pt 8   py \
	OrthoOrbital Pt 8   pz \
	OrthoOrbital Pt 8   d \
	OrthoOrbital Pt 8   dxy \
	OrthoOrbital Pt 8   dyz \
	OrthoOrbital Pt 8   dz2 \
	OrthoOrbital Pt 8   dxz \
	OrthoOrbital Pt 8   dx2-y2 \
	OrthoOrbital Pt 9   s \
	OrthoOrbital Pt 9   p \
	OrthoOrbital Pt 9   px \
	OrthoOrbital Pt 9   py \
	OrthoOrbital Pt 9   pz \
	OrthoOrbital Pt 9   d \
	OrthoOrbital Pt 9   dxy \
	OrthoOrbital Pt 9   dyz \
	OrthoOrbital Pt 9   dz2 \
	OrthoOrbital Pt 9   dxz \
	OrthoOrbital Pt 9   dx2-y2 \
	OrthoOrbital Pt 10   s \
	OrthoOrbital Pt 10   p \
	OrthoOrbital Pt 10   px \
	OrthoOrbital Pt 10   py \
	OrthoOrbital Pt 10   pz \
	OrthoOrbital Pt 10   d \
	OrthoOrbital Pt 10   dxy \
	OrthoOrbital Pt 10   dyz \
	OrthoOrbital Pt 10   dz2 \
	OrthoOrbital Pt 10   dxz \
	OrthoOrbital Pt 10   dx2-y2 \
	OrthoOrbital Pt 11   s \
	OrthoOrbital Pt 11   p \
	OrthoOrbital Pt 11   px \
	OrthoOrbital Pt 11   py \
	OrthoOrbital Pt 11   pz \
	OrthoOrbital Pt 11   d \
	OrthoOrbital Pt 11   dxy \
	OrthoOrbital Pt 11   dyz \
	OrthoOrbital Pt 11   dz2 \
	OrthoOrbital Pt 11   dxz \
	OrthoOrbital Pt 11   dx2-y2 \
	OrthoOrbital Pt 12   s \
	OrthoOrbital Pt 12   p \
	OrthoOrbital Pt 12   px \
	OrthoOrbital Pt 12   py \
	OrthoOrbital Pt 12   pz \
	OrthoOrbital Pt 12   d \
	OrthoOrbital Pt 12   dxy \
	OrthoOrbital Pt 12   dyz \
	OrthoOrbital Pt 12   dz2 \
	OrthoOrbital Pt 12   dxz \
	OrthoOrbital Pt 12   dx2-y2 \
	OrthoOrbital Pt 13   s \
	OrthoOrbital Pt 13   p \
	OrthoOrbital Pt 13   px \
	OrthoOrbital Pt 13   py \
	OrthoOrbital Pt 13   pz \
	OrthoOrbital Pt 13   d \
	OrthoOrbital Pt 13   dxy \
	OrthoOrbital Pt 13   dyz \
	OrthoOrbital Pt 13   dz2 \
	OrthoOrbital Pt 13   dxz \
	OrthoOrbital Pt 13   dx2-y2 \
	OrthoOrbital Pt 14   s \
	OrthoOrbital Pt 14   p \
	OrthoOrbital Pt 14   px \
	OrthoOrbital Pt 14   py \
	OrthoOrbital Pt 14   pz \
	OrthoOrbital Pt 14   d \
	OrthoOrbital Pt 14   dxy \
	OrthoOrbital Pt 14   dyz \
	OrthoOrbital Pt 14   dz2 \
	OrthoOrbital Pt 14   dxz \
	OrthoOrbital Pt 14   dx2-y2 \
	OrthoOrbital Pt 15   s \
	OrthoOrbital Pt 15   p \
	OrthoOrbital Pt 15   px \
	OrthoOrbital Pt 15   py \
	OrthoOrbital Pt 15   pz \
	OrthoOrbital Pt 15   d \
	OrthoOrbital Pt 15   dxy \
	OrthoOrbital Pt 15   dyz \
	OrthoOrbital Pt 15   dz2 \
	OrthoOrbital Pt 15   dxz \
	OrthoOrbital Pt 15   dx2-y2 \
	OrthoOrbital Pt 16   s \
	OrthoOrbital Pt 16   p \
	OrthoOrbital Pt 16   px \
	OrthoOrbital Pt 16   py \
	OrthoOrbital Pt 16   pz \
	OrthoOrbital Pt 16   d \
	OrthoOrbital Pt 16   dxy \
	OrthoOrbital Pt 16   dyz \
	OrthoOrbital Pt 16   dz2 \
	OrthoOrbital Pt 16   dxz \
	OrthoOrbital Pt 16   dx2-y2 \
	OrthoOrbital Pt 17   s \
	OrthoOrbital Pt 17   p \
	OrthoOrbital Pt 17   px \
	OrthoOrbital Pt 17   py \
	OrthoOrbital Pt 17   pz \
	OrthoOrbital Pt 17   d \
	OrthoOrbital Pt 17   dxy \
	OrthoOrbital Pt 17   dyz \
	OrthoOrbital Pt 17   dz2 \
	OrthoOrbital Pt 17   dxz \
	OrthoOrbital Pt 17   dx2-y2 \
	OrthoOrbital Pt 18   s \
	OrthoOrbital Pt 18   p \
	OrthoOrbital Pt 18   px \
	OrthoOrbital Pt 18   py \
	OrthoOrbital Pt 18   pz \
	OrthoOrbital Pt 18   d \
	OrthoOrbital Pt 18   dxy \
	OrthoOrbital Pt 18   dyz \
	OrthoOrbital Pt 18   dz2 \
	OrthoOrbital Pt 18   dxz \
	OrthoOrbital Pt 18   dx2-y2 \
	OrthoOrbital Pt 19   s \
	OrthoOrbital Pt 19   p \
	OrthoOrbital Pt 19   px \
	OrthoOrbital Pt 19   py \
	OrthoOrbital Pt 19   pz \
	OrthoOrbital Pt 19   d \
	OrthoOrbital Pt 19   dxy \
	OrthoOrbital Pt 19   dyz \
	OrthoOrbital Pt 19   dz2 \
	OrthoOrbital Pt 19   dxz \
	OrthoOrbital Pt 19   dx2-y2 \
	OrthoOrbital Pt 20   s \
	OrthoOrbital Pt 20   p \
	OrthoOrbital Pt 20   px \
	OrthoOrbital Pt 20   py \
	OrthoOrbital Pt 20   pz \
	OrthoOrbital Pt 20   d \
	OrthoOrbital Pt 20   dxy \
	OrthoOrbital Pt 20   dyz \
	OrthoOrbital Pt 20   dz2 \
	OrthoOrbital Pt 20   dxz \
	OrthoOrbital Pt 20   dx2-y2 \
	OrthoOrbital Pt 21   s \
	OrthoOrbital Pt 21   p \
	OrthoOrbital Pt 21   px \
	OrthoOrbital Pt 21   py \
	OrthoOrbital Pt 21   pz \
	OrthoOrbital Pt 21   d \
	OrthoOrbital Pt 21   dxy \
	OrthoOrbital Pt 21   dyz \
	OrthoOrbital Pt 21   dz2 \
	OrthoOrbital Pt 21   dxz \
	OrthoOrbital Pt 21   dx2-y2 \
	OrthoOrbital Pt 22   s \
	OrthoOrbital Pt 22   p \
	OrthoOrbital Pt 22   px \
	OrthoOrbital Pt 22   py \
	OrthoOrbital Pt 22   pz \
	OrthoOrbital Pt 22   d \
	OrthoOrbital Pt 22   dxy \
	OrthoOrbital Pt 22   dyz \
	OrthoOrbital Pt 22   dz2 \
	OrthoOrbital Pt 22   dxz \
	OrthoOrbital Pt 22   dx2-y2 \
	OrthoOrbital Pt 23   s \
	OrthoOrbital Pt 23   p \
	OrthoOrbital Pt 23   px \
	OrthoOrbital Pt 23   py \
	OrthoOrbital Pt 23   pz \
	OrthoOrbital Pt 23   d \
	OrthoOrbital Pt 23   dxy \
	OrthoOrbital Pt 23   dyz \
	OrthoOrbital Pt 23   dz2 \
	OrthoOrbital Pt 23   dxz \
	OrthoOrbital Pt 23   dx2-y2 \
	OrthoOrbital Pt 24   s \
	OrthoOrbital Pt 24   p \
	OrthoOrbital Pt 24   px \
	OrthoOrbital Pt 24   py \
	OrthoOrbital Pt 24   pz \
	OrthoOrbital Pt 24   d \
	OrthoOrbital Pt 24   dxy \
	OrthoOrbital Pt 24   dyz \
	OrthoOrbital Pt 24   dz2 \
	OrthoOrbital Pt 24   dxz \
	OrthoOrbital Pt 24   dx2-y2 \
	OrthoOrbital Pt 25   s \
	OrthoOrbital Pt 25   p \
	OrthoOrbital Pt 25   px \
	OrthoOrbital Pt 25   py \
	OrthoOrbital Pt 25   pz \
	OrthoOrbital Pt 25   d \
	OrthoOrbital Pt 25   dxy \
	OrthoOrbital Pt 25   dyz \
	OrthoOrbital Pt 25   dz2 \
	OrthoOrbital Pt 25   dxz \
	OrthoOrbital Pt 25   dx2-y2 \
	OrthoOrbital Pt 26   s \
	OrthoOrbital Pt 26   p \
	OrthoOrbital Pt 26   px \
	OrthoOrbital Pt 26   py \
	OrthoOrbital Pt 26   pz \
	OrthoOrbital Pt 26   d \
	OrthoOrbital Pt 26   dxy \
	OrthoOrbital Pt 26   dyz \
	OrthoOrbital Pt 26   dz2 \
	OrthoOrbital Pt 26   dxz \
	OrthoOrbital Pt 26   dx2-y2 \
	OrthoOrbital Pt 27   s \
	OrthoOrbital Pt 27   p \
	OrthoOrbital Pt 27   px \
	OrthoOrbital Pt 27   py \
	OrthoOrbital Pt 27   pz \
	OrthoOrbital Pt 27   d \
	OrthoOrbital Pt 27   dxy \
	OrthoOrbital Pt 27   dyz \
	OrthoOrbital Pt 27   dz2 \
	OrthoOrbital Pt 27   dxz \
	OrthoOrbital Pt 27   dx2-y2 \
	OrthoOrbital Pt 28   s \
	OrthoOrbital Pt 28   p \
	OrthoOrbital Pt 28   px \
	OrthoOrbital Pt 28   py \
	OrthoOrbital Pt 28   pz \
	OrthoOrbital Pt 28   d \
	OrthoOrbital Pt 28   dxy \
	OrthoOrbital Pt 28   dyz \
	OrthoOrbital Pt 28   dz2 \
	OrthoOrbital Pt 28   dxz \
	OrthoOrbital Pt 28   dx2-y2 \
	OrthoOrbital Pt 29   s \
	OrthoOrbital Pt 29   p \
	OrthoOrbital Pt 29   px \
	OrthoOrbital Pt 29   py \
	OrthoOrbital Pt 29   pz \
	OrthoOrbital Pt 29   d \
	OrthoOrbital Pt 29   dxy \
	OrthoOrbital Pt 29   dyz \
	OrthoOrbital Pt 29   dz2 \
	OrthoOrbital Pt 29   dxz \
	OrthoOrbital Pt 29   dx2-y2 \
	OrthoOrbital Pt 30   s \
	OrthoOrbital Pt 30   p \
	OrthoOrbital Pt 30   px \
	OrthoOrbital Pt 30   py \
	OrthoOrbital Pt 30   pz \
	OrthoOrbital Pt 30   d \
	OrthoOrbital Pt 30   dxy \
	OrthoOrbital Pt 30   dyz \
	OrthoOrbital Pt 30   dz2 \
	OrthoOrbital Pt 30   dxz \
	OrthoOrbital Pt 30   dx2-y2 \
	OrthoOrbital Pt 31   s \
	OrthoOrbital Pt 31   p \
	OrthoOrbital Pt 31   px \
	OrthoOrbital Pt 31   py \
	OrthoOrbital Pt 31   pz \
	OrthoOrbital Pt 31   d \
	OrthoOrbital Pt 31   dxy \
	OrthoOrbital Pt 31   dyz \
	OrthoOrbital Pt 31   dz2 \
	OrthoOrbital Pt 31   dxz \
	OrthoOrbital Pt 31   dx2-y2 \
	OrthoOrbital Pt 32   s \
	OrthoOrbital Pt 32   p \
	OrthoOrbital Pt 32   px \
	OrthoOrbital Pt 32   py \
	OrthoOrbital Pt 32   pz \
	OrthoOrbital Pt 32   d \
	OrthoOrbital Pt 32   dxy \
	OrthoOrbital Pt 32   dyz \
	OrthoOrbital Pt 32   dz2 \
	OrthoOrbital Pt 32   dxz \
	OrthoOrbital Pt 32   dx2-y2 \
	OrthoOrbital Pt 33   s \
	OrthoOrbital Pt 33   p \
	OrthoOrbital Pt 33   px \
	OrthoOrbital Pt 33   py \
	OrthoOrbital Pt 33   pz \
	OrthoOrbital Pt 33   d \
	OrthoOrbital Pt 33   dxy \
	OrthoOrbital Pt 33   dyz \
	OrthoOrbital Pt 33   dz2 \
	OrthoOrbital Pt 33   dxz \
	OrthoOrbital Pt 33   dx2-y2 \
	OrthoOrbital Pt 34   s \
	OrthoOrbital Pt 34   p \
	OrthoOrbital Pt 34   px \
	OrthoOrbital Pt 34   py \
	OrthoOrbital Pt 34   pz \
	OrthoOrbital Pt 34   d \
	OrthoOrbital Pt 34   dxy \
	OrthoOrbital Pt 34   dyz \
	OrthoOrbital Pt 34   dz2 \
	OrthoOrbital Pt 34   dxz \
	OrthoOrbital Pt 34   dx2-y2 \
	OrthoOrbital Pt 35   s \
	OrthoOrbital Pt 35   p \
	OrthoOrbital Pt 35   px \
	OrthoOrbital Pt 35   py \
	OrthoOrbital Pt 35   pz \
	OrthoOrbital Pt 35   d \
	OrthoOrbital Pt 35   dxy \
	OrthoOrbital Pt 35   dyz \
	OrthoOrbital Pt 35   dz2 \
	OrthoOrbital Pt 35   dxz \
	OrthoOrbital Pt 35   dx2-y2 \
	OrthoOrbital Pt 36   s \
	OrthoOrbital Pt 36   p \
	OrthoOrbital Pt 36   px \
	OrthoOrbital Pt 36   py \
	OrthoOrbital Pt 36   pz \
	OrthoOrbital Pt 36   d \
	OrthoOrbital Pt 36   dxy \
	OrthoOrbital Pt 36   dyz \
	OrthoOrbital Pt 36   dz2 \
	OrthoOrbital Pt 36   dxz \
	OrthoOrbital Pt 36   dx2-y2 \
	OrthoOrbital Pt 37   s \
	OrthoOrbital Pt 37   p \
	OrthoOrbital Pt 37   px \
	OrthoOrbital Pt 37   py \
	OrthoOrbital Pt 37   pz \
	OrthoOrbital Pt 37   d \
	OrthoOrbital Pt 37   dxy \
	OrthoOrbital Pt 37   dyz \
	OrthoOrbital Pt 37   dz2 \
	OrthoOrbital Pt 37   dxz \
	OrthoOrbital Pt 37   dx2-y2 \
	OrthoOrbital Pt 38   s \
	OrthoOrbital Pt 38   p \
	OrthoOrbital Pt 38   px \
	OrthoOrbital Pt 38   py \
	OrthoOrbital Pt 38   pz \
	OrthoOrbital Pt 38   d \
	OrthoOrbital Pt 38   dxy \
	OrthoOrbital Pt 38   dyz \
	OrthoOrbital Pt 38   dz2 \
	OrthoOrbital Pt 38   dxz \
	OrthoOrbital Pt 38   dx2-y2 \
	OrthoOrbital Pt 39   s \
	OrthoOrbital Pt 39   p \
	OrthoOrbital Pt 39   px \
	OrthoOrbital Pt 39   py \
	OrthoOrbital Pt 39   pz \
	OrthoOrbital Pt 39   d \
	OrthoOrbital Pt 39   dxy \
	OrthoOrbital Pt 39   dyz \
	OrthoOrbital Pt 39   dz2 \
	OrthoOrbital Pt 39   dxz \
	OrthoOrbital Pt 39   dx2-y2 \
	OrthoOrbital Pt 40   s \
	OrthoOrbital Pt 40   p \
	OrthoOrbital Pt 40   px \
	OrthoOrbital Pt 40   py \
	OrthoOrbital Pt 40   pz \
	OrthoOrbital Pt 40   d \
	OrthoOrbital Pt 40   dxy \
	OrthoOrbital Pt 40   dyz \
	OrthoOrbital Pt 40   dz2 \
	OrthoOrbital Pt 40   dxz \
	OrthoOrbital Pt 40   dx2-y2 \
	OrthoOrbital Pt 41   s \
	OrthoOrbital Pt 41   p \
	OrthoOrbital Pt 41   px \
	OrthoOrbital Pt 41   py \
	OrthoOrbital Pt 41   pz \
	OrthoOrbital Pt 41   d \
	OrthoOrbital Pt 41   dxy \
	OrthoOrbital Pt 41   dyz \
	OrthoOrbital Pt 41   dz2 \
	OrthoOrbital Pt 41   dxz \
	OrthoOrbital Pt 41   dx2-y2 \
	OrthoOrbital Pt 42   s \
	OrthoOrbital Pt 42   p \
	OrthoOrbital Pt 42   px \
	OrthoOrbital Pt 42   py \
	OrthoOrbital Pt 42   pz \
	OrthoOrbital Pt 42   d \
	OrthoOrbital Pt 42   dxy \
	OrthoOrbital Pt 42   dyz \
	OrthoOrbital Pt 42   dz2 \
	OrthoOrbital Pt 42   dxz \
	OrthoOrbital Pt 42   dx2-y2 \
	OrthoOrbital Pt 43   s \
	OrthoOrbital Pt 43   p \
	OrthoOrbital Pt 43   px \
	OrthoOrbital Pt 43   py \
	OrthoOrbital Pt 43   pz \
	OrthoOrbital Pt 43   d \
	OrthoOrbital Pt 43   dxy \
	OrthoOrbital Pt 43   dyz \
	OrthoOrbital Pt 43   dz2 \
	OrthoOrbital Pt 43   dxz \
	OrthoOrbital Pt 43   dx2-y2 \
	OrthoOrbital Pt 44   s \
	OrthoOrbital Pt 44   p \
	OrthoOrbital Pt 44   px \
	OrthoOrbital Pt 44   py \
	OrthoOrbital Pt 44   pz \
	OrthoOrbital Pt 44   d \
	OrthoOrbital Pt 44   dxy \
	OrthoOrbital Pt 44   dyz \
	OrthoOrbital Pt 44   dz2 \
	OrthoOrbital Pt 44   dxz \
	OrthoOrbital Pt 44   dx2-y2
dump End ElecDensity KEdensity BandEigs EigStats RhoAtom DOS Kpoints
dump Ionic State IonicPositions Lattice EigStats Ecomponents
dump 
dump 
dump 
dump 
dump 
dump 
dump 
dump 
dump-name jdft.$VAR
elec-cutoff 20
elec-eigen-algo Davidson
elec-ex-corr gga-PBE
elec-initial-magnetization 0.000000 no
elec-n-bands 423
elec-smearing Fermi 0.001
electronic-minimize  \
	dirUpdateScheme      FletcherReeves \
	linminMethod         DirUpdateRecommended \
	nIterations          100 \
	history              15 \
	knormThreshold       0 \
	energyDiffThreshold  1e-07 \
	nEnergyDiff          2 \
	alphaTstart          1 \
	alphaTmin            1e-10 \
	updateTestStepSize   yes \
	alphaTreduceFactor   0.1 \
	alphaTincreaseFactor 3 \
	nAlphaAdjustMax      3 \
	wolfeEnergy          0.0001 \
	wolfeGradient        0.9 \
	fdTest               no
exchange-regularization WignerSeitzTruncated
fluid LinearPCM 298.000000 1.013250
fluid-anion F- 0.5 MeanFieldLJ \
	epsBulk 1 \
	pMol 0 \
	epsInf 1 \
	Pvap 0 \
	sigmaBulk 0 \
	Rvdw 2.24877 \
	Res 0 \
	tauNuc 343133
fluid-cation Na+ 0.5 MeanFieldLJ \
	epsBulk 1 \
	pMol 0 \
	epsInf 1 \
	Pvap 0 \
	sigmaBulk 0 \
	Rvdw 2.19208 \
	Res 0 \
	tauNuc 343133
fluid-ex-corr lda-TF lda-PZ
fluid-gummel-loop 10 1.000000e-05
fluid-minimize  \
	dirUpdateScheme      PolakRibiere \
	linminMethod         DirUpdateRecommended \
	nIterations          400 \
	history              15 \
	knormThreshold       1e-11 \
	energyDiffThreshold  0 \
	nEnergyDiff          2 \
	alphaTstart          1 \
	alphaTmin            1e-10 \
	updateTestStepSize   yes \
	alphaTreduceFactor   0.1 \
	alphaTincreaseFactor 3 \
	nAlphaAdjustMax      6 \
	wolfeEnergy          0.0001 \
	wolfeGradient        0.9 \
	fdTest               no
fluid-solvent H2O 55.338 ScalarEOS \
	epsBulk 78.4 \
	pMol 0.92466 \
	epsInf 1.77 \
	Pvap 1.06736e-10 \
	sigmaBulk 4.62e-05 \
	Rvdw 2.61727 \
	Res 1.42 \
	tauNuc 343133 \
	poleEl 15 7 1
forces-output-coords Positions
initial-state jdft.$VAR
ion Pt  -0.000059881180609  15.411408737037377  68.277210948389225 1
ion Pt   0.000015250526075  22.579811707613832  65.333917023198396 1
ion Pt  -0.000123568096919   6.730711479287609  66.732126457952489 1
ion Pt  -0.000103843727777  13.355744587337092  63.459423932577430 1
ion Pt  -0.000065027673515  20.176348110613315  60.326845216710758 1
ion Pt  -0.000051953823444  17.834182108309665  55.577982757183889 1
ion Pt   0.000042952417150   0.288916631305929  35.366289390406280 1
ion Pt   5.232051961999454   4.450191327890049  61.882304931560306 1
ion Pt   5.232000883905512  11.166418129332868  58.771247006994685 1
ion Pt   5.232070178688268   2.193582075159235  57.189829080920546 1
ion Pt   5.231982146845811   8.936144129967440  54.025191199805683 1
ion Pt  -0.000076247595127  15.595089963667085  50.880561123403027 1
ion Pt   0.000050477697185  22.335641021711400  47.725258809453834 1
ion Pt  -0.000084500697281  13.404023299818403  46.170581393340974 1
ion Pt  -0.000050191965080  20.067909825975871  42.900384728118318 1
ion Pt   0.000066698443410  24.542782318483670  52.474781509147810 1
ion Pt   0.000011069426416   6.687666309670433  49.262217202365370 1
ion Pt   5.232062710737234   4.405173171484615  44.542546826701646 1
ion Pt   5.232012787117885  11.173355952977460  41.461506417641260 1
ion Pt   5.232034204177737  17.679545855171554  38.055124786499370 1
ion Pt   0.000085843165135   2.180273627427249  39.967468205471953 1
ion Pt   5.232074387697562   8.980517425775147  36.588158447445522 1
ion Pt   2.615896285073918  17.898945943197592  64.147626734310037 1
ion Pt   2.616097375303622   0.011380484684272  61.214600643732901 1
ion Pt   2.615970336282975   8.904683418684700  62.654283698020635 1
ion Pt   2.615889396084041  15.673854279317661  59.571416153345623 1
ion Pt   2.615980788471639  22.283884354585421  56.390466145741549 1
ion Pt   2.615967033752322  20.076785792308041  51.640469207141585 1
ion Pt   2.616004670008898   2.397604791637581  66.061173826390913 1
ion Pt   2.616065760256252   6.674544486395446  57.944515004430279 1
ion Pt   2.615948602360690  13.390689373706659  54.853692248366286 1
ion Pt   2.616044763730960   4.483342056373188  53.234651365226959 1
ion Pt   2.615930171195121  11.141834164461404  50.090199002666367 1
ion Pt   2.615947387156156  17.885860754555097  46.925769901612590 1
ion Pt   2.616138620613055  -0.096409198744361  43.787474242764148 1
ion Pt   2.615988786015517  15.628464505720510  42.233346203114486 1
ion Pt   2.615982443286380  22.039198860846831  38.782505098770990 1
ion Pt   2.616072035941663   2.244481565902348  48.537531034990302 1
ion Pt   2.615957422804440   8.911905861759960  45.343616068393580 1
ion Pt   2.616072504719538   6.721839010165221  40.655467544101803 1
ion Pt   2.616025211995805  13.345567058399519  37.383954025308846 1
ion Pt   2.616007539538593  19.789395939399267  68.748399276046001 1
ion Pt   2.616086303092732   4.665573646645695  35.838651708361631 1
ion Pt   2.615904224230592  11.096028053980749  67.527763471874067 1
ion-species /projects/musgravc/apps/jdftx-1.6.0/build/pseudopotentials/GBRV_v1.5/$ID_pbe_v1.uspp
ion-species /projects/musgravc/apps/jdftx-1.6.0/build/pseudopotentials/GBRV_v1.5/$ID_pbe_v1.2.uspp
ion-species /projects/musgravc/apps/jdftx-1.6.0/build/pseudopotentials/GBRV_v1.5/$ID_pbe_v1.4.uspp
ion-species /projects/musgravc/apps/jdftx-1.6.0/build/pseudopotentials/GBRV_v1.5/$ID_pbe_v1.5.uspp
ion-width Ecut
ionic-minimize  \
	dirUpdateScheme      L-BFGS \
	linminMethod         DirUpdateRecommended \
	nIterations          100 \
	history              15 \
	knormThreshold       0.0001 \
	energyDiffThreshold  1e-06 \
	nEnergyDiff          2 \
	alphaTstart          1 \
	alphaTmin            1e-10 \
	updateTestStepSize   yes \
	alphaTreduceFactor   0.1 \
	alphaTincreaseFactor 3 \
	nAlphaAdjustMax      3 \
	wolfeEnergy          0.0001 \
	wolfeGradient        0.9 \
	fdTest               no
kpoint   0.000000000000   0.000000000000   0.000000000000  1.00000000000000
kpoint-folding 11 2 1 
latt-move-scale 0 0 0
latt-scale 1 1 1 
lattice  \
	   5.231996000000000    0.000000000000000    0.000000000000000  \
	   0.000000000000000   24.540233000000001    0.000000000000000  \
	   0.000000000000000   -0.000000000000000   69.410258999999996 
lattice-minimize  \
	dirUpdateScheme      L-BFGS \
	linminMethod         DirUpdateRecommended \
	nIterations          0 \
	history              15 \
	knormThreshold       0 \
	energyDiffThreshold  1e-06 \
	nEnergyDiff          2 \
	alphaTstart          1 \
	alphaTmin            1e-10 \
	updateTestStepSize   yes \
	alphaTreduceFactor   0.1 \
	alphaTincreaseFactor 3 \
	nAlphaAdjustMax      3 \
	wolfeEnergy          0.0001 \
	wolfeGradient        0.9 \
	fdTest               no
lcao-params 30 1e-06 0.001
pcm-variant CANDLE
spintype z-spin
subspace-rotation-factor 1 yes
symmetries none
symmetry-threshold 0.0001
van-der-waals D3


Applied RMS atom displacement 0 bohrs to make symmetries exact.

---------- Initializing the Grid ----------
R = 
[        5.232            0            0  ]
[            0      24.5402            0  ]
[            0            0      69.4103  ]
unit cell volume = 8911.89
G =
[    1.20092         -0          0  ]
[          0   0.256036          0  ]
[         -0          0  0.0905224  ]
Minimum fftbox size, Smin = [  24  100  280  ]
Chosen fftbox size, S = [  24  100  280  ]

---------- Exchange Correlation functional ----------
Initalized PBE GGA exchange.
Initalized PBE GGA correlation.

---------- Setting up pseudopotentials ----------
Width of ionic core gaussian charges (only for fluid interactions / plotting) set to 0.397384

Reading pseudopotential file '/projects/musgravc/apps/jdftx-1.6.0/build/pseudopotentials/GBRV_v1.5/pt_pbe_v1.4.uspp':
  Title: Pt.  Created by USPP 7.3.6 on 31-3-15
  Reference state energy: -105.002503.  16 valence electrons in orbitals:
    |510>  occupation: 6  eigenvalue: -2.158104
    |520>  occupation: 9.5  eigenvalue: -0.335376
    |600>  occupation: 0  eigenvalue: -0.319640
    |610>  occupation: 0  eigenvalue: -0.122947
  lMax: 2  lLocal: 3  QijEcut: 5.5
  6 projectors sampled on a log grid with 745 points:
    l: 0  eig: -0.319640  rCut: 2.45
    l: 0  eig: 1.500000  rCut: 2.45
    l: 1  eig: -2.158104  rCut: 1.6
    l: 1  eig: -0.122947  rCut: 1.6
    l: 2  eig: -0.500000  rCut: 1.6
    l: 2  eig: -0.335375  rCut: 1.6
  Partial core density with radius 1.1
  Transforming core density to a uniform radial grid of dG=0.02 with 1159 points.
  Transforming local potential to a uniform radial grid of dG=0.02 with 1159 points.
  Transforming nonlocal projectors to a uniform radial grid of dG=0.02 with 432 points.
  Transforming density augmentations to a uniform radial grid of dG=0.02 with 1159 points.
  Transforming atomic orbitals to a uniform radial grid of dG=0.02 with 432 points.
  Core radius for overlap checks: 2.45 bohrs.

Initialized 1 species with 44 total atoms.

Folded 1 k-points by 11x2x1 to 22 k-points.

---------- Setting up k-points, bands, fillings ----------
No reducable k-points. 
Computing the number of bands and number of electrons
Reading initial fillings from file jdft.fillings.
nElectrons: 704.000000   nBands: 423   nStates: 44

----- Setting up reduced wavefunction bases (one per k-point) -----
average nbasis = 38070.500 , ideal nbasis = 38072.267

----- Initializing Supercell corresponding to k-point mesh -----
Lattice vector linear combinations in supercell:
[  11   0   0  ]
[   0   2   0  ]
[   0   0   1  ]
Supercell lattice vectors:
[  57.552  0  0  ]
[  0  49.0805  0  ]
[  0  0  69.4103  ]

Initializing DFT-D3 calculator:
	Parameters set for gga-PBE functional
	s6:  1.000  s_r6:  1.217
	s8:  0.722  s_r8:  1.000
	Per-atom parameters loaded for:
	Pt:  sqrtQ[a0]:  5.888  Rcov[a0]:  2.116  CN: [ 0.00 1.92 6.67 ]

Initializing DFT-D2 calculator for fluid / solvation:
	Pt:  C6:  815.23 Eh-a0^6  R0: 3.326 a0 (WARNING: beyond Grimme's data set)

---------- Setting up ewald sum ----------
Optimum gaussian width for ewald sums = 4.402079 bohr.
Real space sum over 665 unit cells with max indices [  9  3  2  ]
Reciprocal space sum over 7497 terms with max indices [  3  10  25  ]

Computing DFT-D3 correction:
# coordination-number Pt 7.031 8.321 7.171 9.396 9.462 9.568 5.919 9.415 9.566 9.510 9.568 9.544 9.586 9.560 9.400 9.565 9.576 9.550 9.453 7.136 9.103 7.143 9.098 9.400 9.452 9.549 9.586 9.564 7.136 9.561 9.576 9.547 9.567 9.509 9.463 9.415 8.321 9.567 9.566 9.400 7.171 5.919 7.035 7.141
# diagonal-C6 Pt 336.87 336.87 336.87 336.87 336.87 336.87 336.87 336.87 336.87 336.87 336.87 336.87 336.87 336.87 336.87 336.87 336.87 336.87 336.87 336.87 336.87 336.87 336.87 336.87 336.87 336.87 336.87 336.87 336.87 336.87 336.87 336.87 336.87 336.87 336.87 336.87 336.87 336.87 336.87 336.87 336.87 336.87 336.87 336.87
EvdW_6 =   -0.421219
EvdW_8 =   -0.658738

---------- Allocating electronic variables ----------
Initializing wave functions:  reading from 'jdft.wfns'
----- createFluidSolver() ----- (Fluid-side solver setup)
   Initializing fluid molecule 'H2O'
     Initializing site 'O'
       Electron density: proportional to exp(-r/0.36935)*erfc((r-0.51523)/0.36823) with norm 6.826
       Charge density: gaussian nuclear width 0.478731 with net site charge 0.826
       Polarizability: cuspless exponential with width 0.32 and norm 3.73
       Hard sphere radius: 2.57003 bohrs
       Positions in reference frame:
         [ +0.000000 +0.000000 +0.000000 ]
     Initializing site 'H'
       Electron density: proportional to exp(-r/0.34641)*erfc((r-0)/0.390882) with norm 0.587
       Charge density: gaussian nuclear width 0.377945 with net site charge -0.413
       Polarizability: cuspless exponential with width 0.39 and norm 3.3
       Positions in reference frame:
         [ +0.000000 -1.441945 +1.122523 ]
         [ +0.000000 +1.441945 +1.122523 ]
     Net charge: 0   dipole magnitude: 0.927204
     Initializing spherical shell mfKernel with radius 2.61727 Bohr
     deltaS corrections:
       site 'O': -7.54299
       site 'H': -6.83917
   Initializing fluid molecule 'Na+'
     Initializing site 'Na'
       Electron density: proportional to exp(-r/0.19682)*erfc((r-0.71491)/0.41314) with norm 8.1383
       Charge density: gaussian nuclear width 0.365347 with net site charge -1
       Hard sphere radius: 1.86327 bohrs
       Positions in reference frame:
         [ +0.000000 +0.000000 +0.000000 ]
     Net charge: -1   dipole magnitude: 0
     Initializing gaussian mfKernel with width: 1.55004 Bohr
     deltaS corrections:
       site 'Na': -22.3555
   Initializing fluid molecule 'F-'
     Initializing site 'F'
       Electron density: proportional to exp(-r/0.38886)*erfc((r-0)/0.438782) with norm 8
       Charge density: gaussian nuclear width 0.374796 with net site charge 1
       Hard sphere radius: 2.39995 bohrs
       Positions in reference frame:
         [ +0.000000 +0.000000 +0.000000 ]
     Net charge: 1   dipole magnitude: 0
     Initializing gaussian mfKernel with width: 1.59012 Bohr
     deltaS corrections:
       site 'F': -9.04335

Correction to mu due to finite nuclear width = -0.0783795
   Cavity determined by nc: 0.00142 and sigma: 0.707107
   Nonlocal vdW cavity from gaussian model electron density with norm = 8 and sigma = 0.993594 bohr
   Charge asymmetry in cavity with sensitivity pCavity = 36.5 e-bohr/Eh
   Electrostatic cavity expanded by eta = 1.46 bohrs
   Weighted density cavitation model constrained by Nbulk: 0.0049383 bohr^-3, Pvap: 3.14029 kPa, Rvdw: 2.61727 bohr and sigmaBulk: 4.62e-05 Eh/bohr^2 at T: 298 K.
   Weighted density dispersion model using vdW pair potentials with single solvent site with sqrtC6eff: 0.77 SI.
Reading fluid state from 'jdft.fluidState'


---- Citations for features of the code used in this run ----

   Software package:
      R. Sundararaman, K. Letchworth-Weaver, K.A. Schwarz, D. Gunceler, Y. Ozhabes and T.A. Arias, 'JDFTx: software for joint density-functional theory', SoftwareX 6, 278 (2017)

   gga-PBE exchange-correlation functional:
      J.P. Perdew, K. Burke and M. Ernzerhof, Phys. Rev. Lett. 77, 3865 (1996)

   Pseudopotentials:
      KF Garrity, JW Bennett, KM Rabe and D Vanderbilt, Comput. Mater. Sci. 81, 446 (2014)

   DFT-D3 dispersion correction:
      S. Grimme, J. Antony, S. Ehrlich and H. Krieg, J. Chem. Phys. 132, 154104 (2010)

   DFT-D2 dispersion correction:
      S. Grimme, J. Comput. Chem. 27, 1787 (2006)

   Charge-asymmetric nonlocally-determined local-electric (CANDLE) solvation model:
      R. Sundararaman and W.A. Goddard III, J. Chem. Phys. 142, 064107 (2015)

   Total energy minimization with Auxiliary Hamiltonian:
      C. Freysoldt, S. Boeck, and J. Neugebauer, Phys. Rev. B 79, 241103(R) (2009)

   Linear-tetrahedron sampling for density of states:
      G. Lehmann and M. Taut, Phys. status solidi (b) 54, 469 (1972)

This list may not be complete. Please suggest additional citations or
report any other bugs at https://github.com/shankar1729/jdftx/issues

Initialization completed successfully at t[s]:     40.54


Computing DFT-D3 correction:
# coordination-number Pt 7.031 8.321 7.171 9.396 9.462 9.568 5.919 9.415 9.566 9.510 9.568 9.544 9.586 9.560 9.400 9.565 9.576 9.550 9.453 7.136 9.103 7.143 9.098 9.400 9.452 9.549 9.586 9.564 7.136 9.561 9.576 9.547 9.567 9.509 9.463 9.415 8.321 9.567 9.566 9.400 7.171 5.919 7.035 7.141
# diagonal-C6 Pt 336.87 336.87 336.87 336.87 336.87 336.87 336.87 336.87 336.87 336.87 336.87 336.87 336.87 336.87 336.87 336.87 336.87 336.87 336.87 336.87 336.87 336.87 336.87 336.87 336.87 336.87 336.87 336.87 336.87 336.87 336.87 336.87 336.87 336.87 336.87 336.87 336.87 336.87 336.87 336.87 336.87 336.87 336.87 336.87
EvdW_6 =   -0.421219
EvdW_8 =   -0.658738

-------- Electronic minimization -----------
	Linear fluid (dielectric constant: 78.4, screening length: 8.12261 Bohr) occupying 0.382506 of unit cell:	Completed after 21 iterations at t[s]:     62.66
	FillingsUpdate:  mu: -0.197538984  nElectrons: 704.000000  magneticMoment: [ Abs: 0.00001  Tot: +0.00000 ]
ElecMinimize: Iter:   0  F: -3914.884637782390200  |grad|_K:  4.859e-06  alpha:  1.000e+00
	Linear fluid (dielectric constant: 78.4, screening length: 8.12261 Bohr) occupying 0.409701 of unit cell:	Completed after 40 iterations at t[s]:    225.06
	Linear fluid (dielectric constant: 78.4, screening length: 8.12261 Bohr) occupying 0.382508 of unit cell:	Completed after 35 iterations at t[s]:    278.97
	FillingsUpdate:  mu: -0.194146647  nElectrons: 704.000000  magneticMoment: [ Abs: 0.00001  Tot: +0.00000 ]
	SubspaceRotationAdjust: set factor to 0.398
ElecMinimize: Iter:   1  F: -3914.884717852821723  |grad|_K:  1.103e-06  alpha:  5.421e-03  linmin:  4.511e-02  t[s]:    353.39
	Linear fluid (dielectric constant: 78.4, screening length: 8.12261 Bohr) occupying 0.382508 of unit cell:	Completed after 14 iterations at t[s]:    425.57
	Linear fluid (dielectric constant: 78.4, screening length: 8.12261 Bohr) occupying 0.382508 of unit cell:	Completed after 2 iterations at t[s]:    474.03
	FillingsUpdate:  mu: -0.193740447  nElectrons: 704.000000  magneticMoment: [ Abs: 0.00001  Tot: +0.00000 ]
	SubspaceRotationAdjust: set factor to 0.234
ElecMinimize: Iter:   2  F: -3914.884721774861191  |grad|_K:  1.749e-07  alpha:  5.155e-03  linmin:  2.646e-03  t[s]:    547.25
	Linear fluid (dielectric constant: 78.4, screening length: 8.12261 Bohr) occupying 0.382508 of unit cell:	Completed after 3 iterations at t[s]:    617.35
ElecMinimize: 	Predicted alpha/alphaT>3.000000, increasing alphaT to 1.546621e-02.
	Linear fluid (dielectric constant: 78.4, screening length: 8.12261 Bohr) occupying 0.382507 of unit cell:	Completed after 5 iterations at t[s]:    666.56
ElecMinimize: 	Predicted alpha/alphaT>3.000000, increasing alphaT to 4.639863e-02.
	Linear fluid (dielectric constant: 78.4, screening length: 8.12261 Bohr) occupying 0.382507 of unit cell:	Completed after 11 iterations at t[s]:    716.57
	Linear fluid (dielectric constant: 78.4, screening length: 8.12261 Bohr) occupying 0.382507 of unit cell:	Completed after 2 iterations at t[s]:    765.12
	FillingsUpdate:  mu: -0.194162652  nElectrons: 704.000000  magneticMoment: [ Abs: 0.00001  Tot: +0.00000 ]
	SubspaceRotationAdjust: set factor to 0.129
	SubspaceRotationAdjust: resetting CG because factor has changed by 0.128712
	Linear fluid (dielectric constant: 78.4, screening length: 8.12261 Bohr) occupying 0.382507 of unit cell:	Completed after 0 iterations at t[s]:    855.53
ElecMinimize: 	State modified externally: resetting search direction.
ElecMinimize: Iter:   3  F: -3914.884722963729018  |grad|_K:  1.174e-07  alpha:  5.494e-02
	Linear fluid (dielectric constant: 78.4, screening length: 8.12261 Bohr) occupying 0.382507 of unit cell:	Completed after 10 iterations at t[s]:    999.57
	Linear fluid (dielectric constant: 78.4, screening length: 8.12261 Bohr) occupying 0.382507 of unit cell:	Completed after 0 iterations at t[s]:   1047.80
	FillingsUpdate:  mu: -0.193865035  nElectrons: 704.000000  magneticMoment: [ Abs: 0.00001  Tot: +0.00000 ]
	SubspaceRotationAdjust: set factor to 0.0888
ElecMinimize: Iter:   4  F: -3914.884723513956033  |grad|_K:  6.283e-08  alpha:  5.613e-02  linmin:  3.358e-03  t[s]:   1120.74
	Linear fluid (dielectric constant: 78.4, screening length: 8.12261 Bohr) occupying 0.382507 of unit cell:	Completed after 6 iterations at t[s]:   1191.14
	Linear fluid (dielectric constant: 78.4, screening length: 8.12261 Bohr) occupying 0.382507 of unit cell:	Completed after 7 iterations at t[s]:   1240.54
	FillingsUpdate:  mu: -0.193777285  nElectrons: 704.000000  magneticMoment: [ Abs: 0.00001  Tot: +0.00000 ]
	SubspaceRotationAdjust: set factor to 0.0506
ElecMinimize: Iter:   5  F: -3914.884723893724640  |grad|_K:  6.179e-08  alpha:  1.379e-01  linmin: -6.948e-04  t[s]:   1313.99
	Linear fluid (dielectric constant: 78.4, screening length: 8.12261 Bohr) occupying 0.382507 of unit cell:	Completed after 11 iterations at t[s]:   1385.90
	Linear fluid (dielectric constant: 78.4, screening length: 8.12261 Bohr) occupying 0.382507 of unit cell:	Completed after 5 iterations at t[s]:   1434.95
	FillingsUpdate:  mu: -0.193967632  nElectrons: 704.000000  magneticMoment: [ Abs: 0.00001  Tot: +0.00000 ]
	SubspaceRotationAdjust: set factor to 0.0346
ElecMinimize: Iter:   6  F: -3914.884724155851018  |grad|_K:  1.918e-08  alpha:  9.523e-02  linmin:  8.387e-04  t[s]:   1508.41
	Linear fluid (dielectric constant: 78.4, screening length: 8.12261 Bohr) occupying 0.382507 of unit cell:	Completed after 2 iterations at t[s]:   1578.22
	Linear fluid (dielectric constant: 78.4, screening length: 8.12261 Bohr) occupying 0.382507 of unit cell:	Completed after 2 iterations at t[s]:   1626.99
	FillingsUpdate:  mu: -0.193936926  nElectrons: 704.000000  magneticMoment: [ Abs: 0.00001  Tot: +0.00000 ]
	SubspaceRotationAdjust: set factor to 0.038
ElecMinimize: Iter:   7  F: -3914.884724239267598  |grad|_K:  1.006e-08  alpha:  2.856e-01  linmin: -1.957e-02  t[s]:   1700.30
	Linear fluid (dielectric constant: 78.4, screening length: 8.12261 Bohr) occupying 0.382507 of unit cell:	Completed after 3 iterations at t[s]:   1770.52
	Linear fluid (dielectric constant: 78.4, screening length: 8.12261 Bohr) occupying 0.382507 of unit cell:	Completed after 0 iterations at t[s]:   1818.29
	FillingsUpdate:  mu: -0.193916559  nElectrons: 704.000000  magneticMoment: [ Abs: 0.00001  Tot: +0.00000 ]
	SubspaceRotationAdjust: set factor to 0.034
ElecMinimize: Iter:   8  F: -3914.884724266198191  |grad|_K:  8.066e-09  alpha:  3.165e-01  linmin: -9.322e-03  t[s]:   1891.53
ElecMinimize: Converged (|Delta F|<1.000000e-07 for 2 iters).
Setting wave functions to eigenvectors of Hamiltonian
Converging empty states (this may take a while): |deigs|: 6.533e-09

Computing DFT-D3 correction:
# coordination-number Pt 7.031 8.321 7.171 9.396 9.462 9.568 5.919 9.415 9.566 9.510 9.568 9.544 9.586 9.560 9.400 9.565 9.576 9.550 9.453 7.136 9.103 7.143 9.098 9.400 9.452 9.549 9.586 9.564 7.136 9.561 9.576 9.547 9.567 9.509 9.463 9.415 8.321 9.567 9.566 9.400 7.171 5.919 7.035 7.141
# diagonal-C6 Pt 336.87 336.87 336.87 336.87 336.87 336.87 336.87 336.87 336.87 336.87 336.87 336.87 336.87 336.87 336.87 336.87 336.87 336.87 336.87 336.87 336.87 336.87 336.87 336.87 336.87 336.87 336.87 336.87 336.87 336.87 336.87 336.87 336.87 336.87 336.87 336.87 336.87 336.87 336.87 336.87 336.87 336.87 336.87 336.87
EvdW_6 =   -0.421219
EvdW_8 =   -0.658738

# Ionic positions in cartesian coordinates:
ion Pt  -0.000059881180609  15.411408737037377  68.277210948389225 1
ion Pt   0.000015250526075  22.579811707613832  65.333917023198396 1
ion Pt  -0.000123568096919   6.730711479287609  66.732126457952489 1
ion Pt  -0.000103843727777  13.355744587337092  63.459423932577430 1
ion Pt  -0.000065027673515  20.176348110613315  60.326845216710758 1
ion Pt  -0.000051953823444  17.834182108309665  55.577982757183889 1
ion Pt   0.000042952417150   0.288916631305929  35.366289390406280 1
ion Pt   5.232051961999454   4.450191327890049  61.882304931560306 1
ion Pt   5.232000883905512  11.166418129332868  58.771247006994685 1
ion Pt   5.232070178688268   2.193582075159235  57.189829080920546 1
ion Pt   5.231982146845811   8.936144129967440  54.025191199805683 1
ion Pt  -0.000076247595127  15.595089963667085  50.880561123403027 1
ion Pt   0.000050477697185  22.335641021711400  47.725258809453834 1
ion Pt  -0.000084500697281  13.404023299818403  46.170581393340974 1
ion Pt  -0.000050191965080  20.067909825975871  42.900384728118318 1
ion Pt   0.000066698443410  24.542782318483670  52.474781509147810 1
ion Pt   0.000011069426416   6.687666309670433  49.262217202365370 1
ion Pt   5.232062710737234   4.405173171484615  44.542546826701646 1
ion Pt   5.232012787117885  11.173355952977460  41.461506417641260 1
ion Pt   5.232034204177737  17.679545855171554  38.055124786499370 1
ion Pt   0.000085843165135   2.180273627427249  39.967468205471953 1
ion Pt   5.232074387697562   8.980517425775147  36.588158447445522 1
ion Pt   2.615896285073918  17.898945943197592  64.147626734310037 1
ion Pt   2.616097375303622   0.011380484684272  61.214600643732901 1
ion Pt   2.615970336282975   8.904683418684700  62.654283698020635 1
ion Pt   2.615889396084041  15.673854279317661  59.571416153345623 1
ion Pt   2.615980788471639  22.283884354585421  56.390466145741549 1
ion Pt   2.615967033752322  20.076785792308041  51.640469207141585 1
ion Pt   2.616004670008898   2.397604791637581  66.061173826390913 1
ion Pt   2.616065760256252   6.674544486395446  57.944515004430279 1
ion Pt   2.615948602360690  13.390689373706659  54.853692248366286 1
ion Pt   2.616044763730960   4.483342056373188  53.234651365226959 1
ion Pt   2.615930171195121  11.141834164461404  50.090199002666367 1
ion Pt   2.615947387156156  17.885860754555097  46.925769901612590 1
ion Pt   2.616138620613055  -0.096409198744361  43.787474242764148 1
ion Pt   2.615988786015517  15.628464505720510  42.233346203114486 1
ion Pt   2.615982443286380  22.039198860846831  38.782505098770990 1
ion Pt   2.616072035941663   2.244481565902348  48.537531034990302 1
ion Pt   2.615957422804440   8.911905861759960  45.343616068393580 1
ion Pt   2.616072504719538   6.721839010165221  40.655467544101803 1
ion Pt   2.616025211995805  13.345567058399519  37.383954025308846 1
ion Pt   2.616007539538593  19.789395939399267  68.748399276046001 1
ion Pt   2.616086303092732   4.665573646645695  35.838651708361631 1
ion Pt   2.615904224230592  11.096028053980749  67.527763471874067 1

# Forces in Cartesian coordinates:
force Pt   0.000001416499153  -0.000518025760637  -0.001356788314969 1
force Pt   0.000003795226268   0.000270882139950   0.000508794073281 1
force Pt   0.000001834713397  -0.000078110339221  -0.000288509960435 1
force Pt  -0.000002253191254   0.000019736207302   0.000654997563219 1
force Pt  -0.000003359856754   0.000901705325368   0.000022090347503 1
force Pt   0.000000960563032   0.000193874292681   0.000600112339625 1
force Pt  -0.000001606900579   0.000808384932808  -0.000170697234398 1
force Pt   0.000001071734841  -0.000065369122817   0.001899824503856 1
force Pt  -0.000002118059605   0.000302444033793  -0.001676473490116 1
force Pt  -0.000001368268218   0.000144595567755  -0.000519149337142 1
force Pt  -0.000000421494683   0.000080738800353   0.001425582801601 1
force Pt  -0.000000169151379   0.000198592598739  -0.001276972092766 1
force Pt  -0.000000367727666  -0.000381533316943   0.000008922561785 1
force Pt  -0.000000720381688  -0.000240226591748   0.001405595282007 1
force Pt   0.000000103982373  -0.000709366064640  -0.001394108513796 1
force Pt   0.000001572334517   0.000169690567008   0.000632238940342 1
force Pt   0.000001031414534   0.000400836220415  -0.001495249332438 1
force Pt   0.000002278839733  -0.000663817428646   0.001508707062935 1
force Pt  -0.000000026669901   0.000435456937289  -0.001043693369031 1
force Pt  -0.000006701734177  -0.000330837437038  -0.000380416268577 1
force Pt  -0.000002315345313  -0.000009624396512   0.000357876397730 1
force Pt   0.000001483265696   0.001024559987655   0.000451688086786 1
force Pt   0.000007022990952  -0.000046363036785  -0.000391132966905 1
force Pt  -0.000000668945355   0.000742979736138   0.001542008909077 1
force Pt  -0.000000659635658  -0.000495040962994   0.001082995370751 1
force Pt  -0.000000015101099   0.000700774353367  -0.001288780517161 1
force Pt   0.000000669129736   0.000459680133576  -0.000262235539623 1
force Pt  -0.000000546642828  -0.000179413243935  -0.000730847777270 1
force Pt  -0.000002088970511   0.000405965254282   0.000499119387914 1
force Pt   0.000001308733840   0.000241025976617  -0.001415898626828 1
force Pt  -0.000000260178575  -0.000438801143076   0.001183031170805 1
force Pt   0.000000825405069  -0.000226580931134   0.001125441623361 1
force Pt  -0.000000362781187  -0.000077528538540  -0.001614539670988 1
force Pt   0.000002278126769  -0.000130388241385   0.000382771537615 1
force Pt  -0.000002377099822  -0.001026731009992   0.000156501703780 1
force Pt  -0.000002120187937   0.000063615873498  -0.001815167491094 1
force Pt  -0.000000038276737  -0.000228095334581  -0.000524286602190 1
force Pt  -0.000000452240419  -0.000118288317882  -0.000876025352267 1
force Pt   0.000001485204277  -0.000374346502521   0.001716483448280 1
force Pt   0.000000661280379   0.000069466346333  -0.000548604323017 1
force Pt   0.000001516274871   0.000081737451747   0.000404930932468 1
force Pt   0.000000811170012  -0.000896356464029   0.000342403320371 1
force Pt  -0.000003243775281   0.000598512441706   0.001394445476244 1
force Pt  -0.000000585691007  -0.001008485438199  -0.000365022632070 1

# Energy components:
   A_diel =       -0.0088870855129182
   Eewald =    31594.1323083271709038
       EH =    35261.7696790135960327
     Eloc =   -71449.5634312393522123
      Enl =      -46.4395291015385965
     EvdW =       -1.0799574944540575
      Exc =    -1252.0045544920740213
 Exc_core =      721.2207914477960458
       KE =     1257.0970195894979042
  MuShift =        0.0000000000004723
-------------------------------------
     Etot =    -3914.8765610348687005
       TS =        0.0081632313294398
-------------------------------------
        F =    -3914.8847242661981909


Dumping 'jdft.fillings' ... done
Dumping 'jdft.wfns' ... done
Dumping 'jdft.fluidState' ... done
Dumping 'jdft.ionpos' ... done
Dumping 'jdft.lattice' ... done
Dumping 'jdft.eigenvals' ... done
Dumping 'jdft.eigStats' ... 
	eMin: -2.144239 at state 1 ( [ +0.000000 +0.500000 +0.000000 ] spin 1 )
	HOMO: -0.193910 at state 33 ( [ +0.454545 +0.500000 +0.000000 ] spin -1 )
	mu  : -0.193917
	LUMO: -0.193855 at state 4 ( [ +0.181818 +0.000000 +0.000000 ] spin 1 )
	eMax: +0.115792 at state 39 ( [ -0.272727 +0.500000 +0.000000 ] spin -1 )
	HOMO-LUMO gap: +0.000055
	Optical gap  : +0.000154 at state 33 ( [ +0.454545 +0.500000 +0.000000 ] spin -1 )
Dumping 'jdft.Ecomponents' ... done
IonicMinimize: Iter:   0  F: -3914.884724266198191  |grad|_K:  6.602e-04  t[s]:   2096.18

#--- Lowdin population analysis ---
# oxidation-state Pt -0.006 -0.043 -0.006 +0.013 +0.012 +0.008 +0.069 +0.016 +0.013 +0.008 +0.006 +0.010 +0.011 +0.015 +0.010 +0.010 +0.007 +0.016 +0.017 +0.021 +0.015 -0.001 +0.013 +0.009 +0.015 +0.013 +0.009 +0.010 +0.020 +0.014 +0.006 +0.010 +0.007 +0.010 +0.015 +0.018 -0.042 +0.009 +0.015 +0.015 -0.005 +0.068 -0.005 -0.002
# magnetic-moments Pt +0.000 +0.000 +0.000 +0.000 +0.000 +0.000 +0.000 +0.000 +0.000 +0.000 +0.000 +0.000 +0.000 +0.000 +0.000 +0.000 +0.000 +0.000 +0.000 +0.000 +0.000 +0.000 +0.000 +0.000 +0.000 +0.000 +0.000 +0.000 +0.000 +0.000 +0.000 +0.000 +0.000 +0.000 +0.000 +0.000 +0.000 +0.000 +0.000 +0.000 +0.000 +0.000 +0.000 +0.000


Computing DFT-D3 correction:
# coordination-number Pt 7.033 8.320 7.175 9.394 9.462 9.567 5.919 9.415 9.566 9.510 9.568 9.544 9.585 9.560 9.399 9.565 9.576 9.551 9.452 7.138 9.103 7.145 9.098 9.399 9.451 9.549 9.585 9.563 7.139 9.561 9.576 9.546 9.568 9.509 9.463 9.415 8.320 9.567 9.567 9.399 7.176 5.919 7.036 7.143
# diagonal-C6 Pt 336.87 336.87 336.87 336.87 336.87 336.87 336.87 336.87 336.87 336.87 336.87 336.87 336.87 336.87 336.87 336.87 336.87 336.87 336.87 336.87 336.87 336.87 336.87 336.87 336.87 336.87 336.87 336.87 336.87 336.87 336.87 336.87 336.87 336.87 336.87 336.87 336.87 336.87 336.87 336.87 336.87 336.87 336.87 336.87
EvdW_6 =   -0.421214
EvdW_8 =   -0.658730

-------- Electronic minimization -----------
	Linear fluid (dielectric constant: 78.4, screening length: 8.12261 Bohr) occupying 0.382522 of unit cell:	Completed after 21 iterations at t[s]:   2181.61
	FillingsUpdate:  mu: -0.196632394  nElectrons: 704.000000  magneticMoment: [ Abs: 0.00000  Tot: +0.00000 ]
ElecMinimize: Iter:   0  F: -3914.884677597559858  |grad|_K:  1.017e-06  alpha:  1.000e+00
	Linear fluid (dielectric constant: 78.4, screening length: 8.12261 Bohr) occupying 0.382765 of unit cell:	Completed after 26 iterations at t[s]:   2341.78
	Linear fluid (dielectric constant: 78.4, screening length: 8.12261 Bohr) occupying 0.382519 of unit cell:	Completed after 24 iterations at t[s]:   2393.81
	FillingsUpdate:  mu: -0.194514162  nElectrons: 704.000000  magneticMoment: [ Abs: 0.00000  Tot: +0.00000 ]
	SubspaceRotationAdjust: set factor to 0.0412
ElecMinimize: Iter:   1  F: -3914.884760694545548  |grad|_K:  1.613e-07  alpha:  1.127e-01  linmin: -9.910e-04  t[s]:   2467.51
	Linear fluid (dielectric constant: 78.4, screening length: 8.12261 Bohr) occupying 0.382520 of unit cell:	Completed after 13 iterations at t[s]:   2539.21
	Linear fluid (dielectric constant: 78.4, screening length: 8.12261 Bohr) occupying 0.382520 of unit cell:	Completed after 11 iterations at t[s]:   2589.23
	FillingsUpdate:  mu: -0.193639435  nElectrons: 704.000000  magneticMoment: [ Abs: 0.00000  Tot: +0.00000 ]
	SubspaceRotationAdjust: set factor to 0.0288
ElecMinimize: Iter:   2  F: -3914.884764857933078  |grad|_K:  1.043e-07  alpha:  2.258e-01  linmin:  1.357e-03  t[s]:   2662.57
	Linear fluid (dielectric constant: 78.4, screening length: 8.12261 Bohr) occupying 0.382519 of unit cell:	Completed after 12 iterations at t[s]:   2734.48
	Linear fluid (dielectric constant: 78.4, screening length: 8.12261 Bohr) occupying 0.382519 of unit cell:	Completed after 3 iterations at t[s]:   2782.94
	FillingsUpdate:  mu: -0.194000719  nElectrons: 704.000000  magneticMoment: [ Abs: 0.00000  Tot: +0.00000 ]
	SubspaceRotationAdjust: set factor to 0.023
ElecMinimize: Iter:   3  F: -3914.884766800658326  |grad|_K:  5.123e-08  alpha:  2.529e-01  linmin: -2.746e-03  t[s]:   2856.17
	Linear fluid (dielectric constant: 78.4, screening length: 8.12261 Bohr) occupying 0.382519 of unit cell:	Completed after 2 iterations at t[s]:   2925.95
	Linear fluid (dielectric constant: 78.4, screening length: 8.12261 Bohr) occupying 0.382519 of unit cell:	Completed after 2 iterations at t[s]:   2974.74
	FillingsUpdate:  mu: -0.194014235  nElectrons: 704.000000  magneticMoment: [ Abs: 0.00000  Tot: +0.00000 ]
	SubspaceRotationAdjust: set factor to 0.0293
ElecMinimize: Iter:   4  F: -3914.884767817678039  |grad|_K:  4.103e-08  alpha:  5.395e-01  linmin:  6.988e-04  t[s]:   3048.81
	Linear fluid (dielectric constant: 78.4, screening length: 8.12261 Bohr) occupying 0.382519 of unit cell:	Completed after 6 iterations at t[s]:   3119.31
	Linear fluid (dielectric constant: 78.4, screening length: 8.12261 Bohr) occupying 0.382519 of unit cell:	Completed after 0 iterations at t[s]:   3167.30
	FillingsUpdate:  mu: -0.193842164  nElectrons: 704.000000  magneticMoment: [ Abs: 0.00000  Tot: +0.00000 ]
	SubspaceRotationAdjust: set factor to 0.0311
ElecMinimize: Iter:   5  F: -3914.884768514343250  |grad|_K:  3.967e-08  alpha:  5.839e-01  linmin: -1.427e-03  t[s]:   3240.66
	Linear fluid (dielectric constant: 78.4, screening length: 8.12261 Bohr) occupying 0.382518 of unit cell:	Completed after 6 iterations at t[s]:   3311.48
	Linear fluid (dielectric constant: 78.4, screening length: 8.12261 Bohr) occupying 0.382518 of unit cell:	Completed after 0 iterations at t[s]:   3359.36
	FillingsUpdate:  mu: -0.194012565  nElectrons: 704.000000  magneticMoment: [ Abs: 0.00000  Tot: +0.00000 ]
	SubspaceRotationAdjust: set factor to 0.0306
ElecMinimize: Iter:   6  F: -3914.884769171088919  |grad|_K:  4.454e-08  alpha:  5.726e-01  linmin:  1.042e-03  t[s]:   3432.73
	Linear fluid (dielectric constant: 78.4, screening length: 8.12261 Bohr) occupying 0.382518 of unit cell:	Completed after 6 iterations at t[s]:   3503.29
	Linear fluid (dielectric constant: 78.4, screening length: 8.12261 Bohr) occupying 0.382518 of unit cell:	Completed after 0 iterations at t[s]:   3551.50
	FillingsUpdate:  mu: -0.193880640  nElectrons: 704.000000  magneticMoment: [ Abs: 0.00000  Tot: +0.00000 ]
	SubspaceRotationAdjust: set factor to 0.0316
ElecMinimize: Iter:   7  F: -3914.884769993263490  |grad|_K:  4.414e-08  alpha:  5.969e-01  linmin: -4.497e-04  t[s]:   3624.92
	Linear fluid (dielectric constant: 78.4, screening length: 8.12261 Bohr) occupying 0.382518 of unit cell:	Completed after 3 iterations at t[s]:   3695.48
	Linear fluid (dielectric constant: 78.4, screening length: 8.12261 Bohr) occupying 0.382517 of unit cell:	Completed after 2 iterations at t[s]:   3743.96
	FillingsUpdate:  mu: -0.193862648  nElectrons: 704.000000  magneticMoment: [ Abs: 0.00000  Tot: +0.00000 ]
	SubspaceRotationAdjust: set factor to 0.0358
ElecMinimize: Iter:   8  F: -3914.884771146968887  |grad|_K:  5.111e-08  alpha:  8.187e-01  linmin:  3.977e-05  t[s]:   3817.42
	Linear fluid (dielectric constant: 78.4, screening length: 8.12261 Bohr) occupying 0.382516 of unit cell:	Completed after 11 iterations at t[s]:   3889.00
	Linear fluid (dielectric constant: 78.4, screening length: 8.12261 Bohr) occupying 0.382517 of unit cell:	Completed after 6 iterations at t[s]:   3938.41
	FillingsUpdate:  mu: -0.194072377  nElectrons: 704.000000  magneticMoment: [ Abs: 0.00000  Tot: +0.00000 ]
	SubspaceRotationAdjust: set factor to 0.0316
ElecMinimize: Iter:   9  F: -3914.884772219217666  |grad|_K:  6.482e-08  alpha:  5.726e-01  linmin:  1.426e-04  t[s]:   4012.08
	Linear fluid (dielectric constant: 78.4, screening length: 8.12261 Bohr) occupying 0.382515 of unit cell:	Completed after 13 iterations at t[s]:   4084.10
	Linear fluid (dielectric constant: 78.4, screening length: 8.12261 Bohr) occupying 0.382516 of unit cell:	Completed after 9 iterations at t[s]:   4133.79
	FillingsUpdate:  mu: -0.193861083  nElectrons: 704.000000  magneticMoment: [ Abs: 0.00000  Tot: +0.00000 ]
	SubspaceRotationAdjust: set factor to 0.0234
ElecMinimize: Iter:  10  F: -3914.884773059108738  |grad|_K:  5.423e-08  alpha:  2.851e-01  linmin:  3.967e-05  t[s]:   4207.08
	Linear fluid (dielectric constant: 78.4, screening length: 8.12261 Bohr) occupying 0.382515 of unit cell:	Completed after 6 iterations at t[s]:   4277.89
	Linear fluid (dielectric constant: 78.4, screening length: 8.12261 Bohr) occupying 0.382515 of unit cell:	Completed after 6 iterations at t[s]:   4327.14
	FillingsUpdate:  mu: -0.193760294  nElectrons: 704.000000  magneticMoment: [ Abs: 0.00000  Tot: +0.00000 ]
	SubspaceRotationAdjust: set factor to 0.0224
ElecMinimize: Iter:  11  F: -3914.884774025444131  |grad|_K:  4.681e-08  alpha:  4.604e-01  linmin: -1.632e-04  t[s]:   4400.43
	Linear fluid (dielectric constant: 78.4, screening length: 8.12261 Bohr) occupying 0.382513 of unit cell:	Completed after 11 iterations at t[s]:   4471.83
	Linear fluid (dielectric constant: 78.4, screening length: 8.12261 Bohr) occupying 0.382514 of unit cell:	Completed after 3 iterations at t[s]:   4520.56
	FillingsUpdate:  mu: -0.194076107  nElectrons: 704.000000  magneticMoment: [ Abs: 0.00000  Tot: +0.00000 ]
	SubspaceRotationAdjust: set factor to 0.0188
ElecMinimize: Iter:  12  F: -3914.884774625101727  |grad|_K:  3.736e-08  alpha:  3.802e-01  linmin:  2.589e-04  t[s]:   4593.83
	Linear fluid (dielectric constant: 78.4, screening length: 8.12261 Bohr) occupying 0.382513 of unit cell:	Completed after 6 iterations at t[s]:   4664.46
	Linear fluid (dielectric constant: 78.4, screening length: 8.12261 Bohr) occupying 0.382513 of unit cell:	Completed after 0 iterations at t[s]:   4712.47
	FillingsUpdate:  mu: -0.193964462  nElectrons: 704.000000  magneticMoment: [ Abs: 0.00000  Tot: +0.00000 ]
	SubspaceRotationAdjust: set factor to 0.0222
ElecMinimize: Iter:  13  F: -3914.884775084920875  |grad|_K:  2.674e-08  alpha:  4.639e-01  linmin: -1.150e-03  t[s]:   4786.62
	Linear fluid (dielectric constant: 78.4, screening length: 8.12261 Bohr) occupying 0.382512 of unit cell:	Completed after 7 iterations at t[s]:   4857.54
	Linear fluid (dielectric constant: 78.4, screening length: 8.12261 Bohr) occupying 0.382512 of unit cell:	Completed after 0 iterations at t[s]:   4905.45
	FillingsUpdate:  mu: -0.193836307  nElectrons: 704.000000  magneticMoment: [ Abs: 0.00000  Tot: +0.00000 ]
	SubspaceRotationAdjust: set factor to 0.0227
ElecMinimize: Iter:  14  F: -3914.884775328758224  |grad|_K:  2.612e-08  alpha:  4.582e-01  linmin: -8.807e-04  t[s]:   4978.71
	Linear fluid (dielectric constant: 78.4, screening length: 8.12261 Bohr) occupying 0.382512 of unit cell:	Completed after 6 iterations at t[s]:   5049.36
	Linear fluid (dielectric constant: 78.4, screening length: 8.12261 Bohr) occupying 0.382512 of unit cell:	Completed after 2 iterations at t[s]:   5097.82
	FillingsUpdate:  mu: -0.193974671  nElectrons: 704.000000  magneticMoment: [ Abs: 0.00000  Tot: +0.00000 ]
	SubspaceRotationAdjust: set factor to 0.0224
ElecMinimize: Iter:  15  F: -3914.884775503139281  |grad|_K:  2.107e-08  alpha:  3.515e-01  linmin:  5.024e-04  t[s]:   5171.29
	Linear fluid (dielectric constant: 78.4, screening length: 8.12261 Bohr) occupying 0.382512 of unit cell:	Completed after 3 iterations at t[s]:   5241.56
	Linear fluid (dielectric constant: 78.4, screening length: 8.12261 Bohr) occupying 0.382512 of unit cell:	Completed after 0 iterations at t[s]:   5289.56
	FillingsUpdate:  mu: -0.193973796  nElectrons: 704.000000  magneticMoment: [ Abs: 0.00000  Tot: +0.00000 ]
	SubspaceRotationAdjust: set factor to 0.0294
ElecMinimize: Iter:  16  F: -3914.884775675643596  |grad|_K:  1.896e-08  alpha:  5.441e-01  linmin: -1.370e-03  t[s]:   5363.10
	Linear fluid (dielectric constant: 78.4, screening length: 8.12261 Bohr) occupying 0.382512 of unit cell:	Completed after 5 iterations at t[s]:   5433.54
	Linear fluid (dielectric constant: 78.4, screening length: 8.12261 Bohr) occupying 0.382512 of unit cell:	Completed after 0 iterations at t[s]:   5481.49
	FillingsUpdate:  mu: -0.193881011  nElectrons: 704.000000  magneticMoment: [ Abs: 0.00000  Tot: +0.00000 ]
	SubspaceRotationAdjust: set factor to 0.0286
ElecMinimize: Iter:  17  F: -3914.884775807353435  |grad|_K:  2.156e-08  alpha:  4.920e-01  linmin:  8.348e-04  t[s]:   5554.78
	Linear fluid (dielectric constant: 78.4, screening length: 8.12261 Bohr) occupying 0.382512 of unit cell:	Completed after 6 iterations at t[s]:   5625.57
	Linear fluid (dielectric constant: 78.4, screening length: 8.12261 Bohr) occupying 0.382512 of unit cell:	Completed after 2 iterations at t[s]:   5674.05
	FillingsUpdate:  mu: -0.193967383  nElectrons: 704.000000  magneticMoment: [ Abs: 0.00000  Tot: +0.00000 ]
	SubspaceRotationAdjust: set factor to 0.0272
ElecMinimize: Iter:  18  F: -3914.884775927509054  |grad|_K:  1.841e-08  alpha:  3.764e-01  linmin:  2.465e-04  t[s]:   5748.06
	Linear fluid (dielectric constant: 78.4, screening length: 8.12261 Bohr) occupying 0.382511 of unit cell:	Completed after 3 iterations at t[s]:   5818.19
	Linear fluid (dielectric constant: 78.4, screening length: 8.12261 Bohr) occupying 0.382511 of unit cell:	Completed after 0 iterations at t[s]:   5866.28
	FillingsUpdate:  mu: -0.193964808  nElectrons: 704.000000  magneticMoment: [ Abs: 0.00000  Tot: +0.00000 ]
	SubspaceRotationAdjust: set factor to 0.029
ElecMinimize: Iter:  19  F: -3914.884776043715647  |grad|_K:  1.551e-08  alpha:  4.773e-01  linmin: -2.198e-03  t[s]:   5939.49
	Linear fluid (dielectric constant: 78.4, screening length: 8.12261 Bohr) occupying 0.382511 of unit cell:	Completed after 4 iterations at t[s]:   6009.94
	Linear fluid (dielectric constant: 78.4, screening length: 8.12261 Bohr) occupying 0.382511 of unit cell:	Completed after 0 iterations at t[s]:   6058.12
	FillingsUpdate:  mu: -0.193920268  nElectrons: 704.000000  magneticMoment: [ Abs: 0.00000  Tot: +0.00000 ]
	SubspaceRotationAdjust: set factor to 0.0276
ElecMinimize: Iter:  20  F: -3914.884776131179478  |grad|_K:  1.435e-08  alpha:  4.715e-01  linmin:  6.128e-04  t[s]:   6131.51
	Linear fluid (dielectric constant: 78.4, screening length: 8.12261 Bohr) occupying 0.382511 of unit cell:	Completed after 3 iterations at t[s]:   6201.59
	Linear fluid (dielectric constant: 78.4, screening length: 8.12261 Bohr) occupying 0.382511 of unit cell:	Completed after 0 iterations at t[s]:   6249.71
	FillingsUpdate:  mu: -0.193939808  nElectrons: 704.000000  magneticMoment: [ Abs: 0.00000  Tot: +0.00000 ]
	SubspaceRotationAdjust: set factor to 0.027
ElecMinimize: Iter:  21  F: -3914.884776188620890  |grad|_K:  1.256e-08  alpha:  3.974e-01  linmin:  1.271e-03  t[s]:   6323.04
ElecMinimize: Converged (|Delta F|<1.000000e-07 for 2 iters).
Setting wave functions to eigenvectors of Hamiltonian
Converging empty states (this may take a while): |deigs|: 1.896e-09

Computing DFT-D3 correction:
# coordination-number Pt 7.033 8.320 7.175 9.394 9.462 9.567 5.919 9.415 9.566 9.510 9.568 9.544 9.585 9.560 9.399 9.565 9.576 9.551 9.452 7.138 9.103 7.145 9.098 9.399 9.451 9.549 9.585 9.563 7.139 9.561 9.576 9.546 9.568 9.509 9.463 9.415 8.320 9.567 9.567 9.399 7.176 5.919 7.036 7.143
# diagonal-C6 Pt 336.87 336.87 336.87 336.87 336.87 336.87 336.87 336.87 336.87 336.87 336.87 336.87 336.87 336.87 336.87 336.87 336.87 336.87 336.87 336.87 336.87 336.87 336.87 336.87 336.87 336.87 336.87 336.87 336.87 336.87 336.87 336.87 336.87 336.87 336.87 336.87 336.87 336.87 336.87 336.87 336.87 336.87 336.87 336.87
EvdW_6 =   -0.421214
EvdW_8 =   -0.658730

# Ionic positions in cartesian coordinates:
ion Pt  -0.000058402831043  15.410889076605033  68.275857069996349 1
ion Pt   0.000019107602757  22.580080955082074  65.334428727193753 1
ion Pt  -0.000121671533109   6.730631734276681  66.731840857914150 1
ion Pt  -0.000106035068617  13.355762688872689  63.460081840062735 1
ion Pt  -0.000068325679855  20.177248181266975  60.326870216980346 1
ion Pt  -0.000050931409999  17.834374347930641  55.578585779445604 1
ion Pt   0.000041407366984   0.289723381567030  35.366121603093958 1
ion Pt   5.232053095584708   4.450124324095524  61.884207665986246 1
ion Pt   5.231998827696319  11.166718938694954  58.769573443426651 1
ion Pt   5.232068872270463   2.193725036055283  57.189312841505490 1
ion Pt   5.231981787201542   8.936223234096085  54.026619692529366 1
ion Pt  -0.000076354896093  15.595286921594115  50.879287061232340 1
ion Pt   0.000050171819932  22.335257853722748  47.725270641937705 1
ion Pt  -0.000085159228556  13.403781438554947  46.171989898545064 1
ion Pt  -0.000050026132293  20.067198825239522  42.898993529526606 1
ion Pt   0.000068332628340  24.542950374378975  52.475416658010232 1
ion Pt   0.000012162691363   6.688065511219142  49.260724862955023 1
ion Pt   5.232065051427381   4.404507719384261  44.544058443686666 1
ion Pt   5.232012822298397  11.173789775243042  41.460465634194321 1
ion Pt   5.232027564293972  17.679213383062809  38.054747280152874 1
ion Pt   0.000083589670235   2.180262368359030  39.967828991791770 1
ion Pt   5.232075932813671   8.981540351091095  36.588613045454395 1
ion Pt   2.615903369915283  17.898897945489100  64.147238511265215 1
ion Pt   2.616096768208680   0.012121829748703  61.216145562564058 1
ion Pt   2.615969738497731   8.904186743049998  62.655369603313474 1
ion Pt   2.615889442833355  15.674553418999322  59.570130282750547 1
ion Pt   2.615981519451788  22.284342400047290  56.390206820124014 1
ion Pt   2.615966548959908  20.076604744392398  51.639741269286404 1
ion Pt   2.616002642888800   2.398009122220156  66.061675855700912 1
ion Pt   2.616067130840505   6.674783877700355  57.943102015725536 1
ion Pt   2.615948404032528  13.390248937891876  54.854878189459178 1
ion Pt   2.616045650986442   4.483113840770346  53.235779716772406 1
ion Pt   2.615929870264348  11.141755001251157  50.088587372917466 1
ion Pt   2.615949727133338  17.885728731642008  46.926155583072294 1
ion Pt   2.616136305363646  -0.097437564426061  43.787633654390014 1
ion Pt   2.615986727677993  15.628526486922301  42.231533945545472 1
ion Pt   2.615982466860057  22.038969130840545  38.781983722090885 1
ion Pt   2.616071645551657   2.244361642912759  48.536657919560120 1
ion Pt   2.615958969859130   8.911529880585732  45.345335461763945 1
ion Pt   2.616073227850330   6.721906841839847  40.654921849700870 1
ion Pt   2.616026790121090  13.345647161179560  37.384361866163395 1
ion Pt   2.616008412559018  19.788497948263533  68.748744589288449 1
ion Pt   2.616083121167864   4.666170524415694  35.840049063759956 1
ion Pt   2.615903700389999  11.095017933870842  67.527401359164088 1

# Forces in Cartesian coordinates:
force Pt   0.000001255667798  -0.000485914731131  -0.001424939448299 1
force Pt   0.000003618658476   0.000129799975052   0.000424912047838 1
force Pt   0.000001716353160  -0.000069844808517  -0.000316633597803 1
force Pt  -0.000001954652354   0.000013181001304   0.000345359545835 1
force Pt  -0.000003109110351   0.000925329851004   0.000171435894528 1
force Pt   0.000001039190656   0.000244174481200   0.000702178813981 1
force Pt  -0.000001593004939   0.000754687900583  -0.000359817593771 1
force Pt   0.000001132101596   0.000019496077409   0.001547530584421 1
force Pt  -0.000002000529329   0.000213819232529  -0.000997172214013 1
force Pt  -0.000001371267253   0.000143748831768   0.000059544996602 1
force Pt  -0.000000362472986   0.000075269541856   0.001224561843666 1
force Pt  -0.000000114077942   0.000091729492355  -0.000730565324751 1
force Pt  -0.000000371948372  -0.000377390392257  -0.000012424382177 1
force Pt  -0.000000717723866  -0.000076986490044   0.000956660481335 1
force Pt   0.000000149689462  -0.000700133337960  -0.001340143887087 1
force Pt   0.000001545552489   0.000182717251292   0.000748151014058 1
force Pt   0.000001184341822   0.000284602491894  -0.000810703325695 1
force Pt   0.000002198680887  -0.000691124206567   0.001085561543896 1
force Pt  -0.000000050950052   0.000401134670213  -0.000887839003669 1
force Pt  -0.000006506064638  -0.000300875387032  -0.000719201971208 1
force Pt  -0.000002301795920  -0.000064786936830   0.000304251572544 1
force Pt   0.000001254606059   0.001026519080205   0.000109667474377 1
force Pt   0.000006734567152   0.000011934349696  -0.000526583689998 1
force Pt  -0.000000851254744   0.000711156255275   0.001382090099655 1
force Pt  -0.000000667192049  -0.000425798084501   0.000753083673561 1
force Pt  -0.000000053214254   0.000706523712564  -0.000843336377531 1
force Pt   0.000000549825514   0.000431198593680   0.000158702570005 1
force Pt  -0.000000504955036  -0.000188593833640  -0.000341819880101 1
force Pt  -0.000001852035894   0.000355886492538   0.000398485926954 1
force Pt   0.000001115740506   0.000091259123660  -0.000752953574038 1
force Pt  -0.000000243331435  -0.000310701275766   0.001011370606943 1
force Pt   0.000000839234846  -0.000094756871791   0.001096473573957 1
force Pt  -0.000000189368108  -0.000074753439556  -0.000893714780920 1
force Pt   0.000002141804026  -0.000124296002238   0.000113282417036 1
force Pt  -0.000002353115823  -0.001032532379656  -0.000035057579648 1
force Pt  -0.000002161359049  -0.000013854184147  -0.001619768032155 1
force Pt  -0.000000241284426  -0.000147949610276  -0.000742509587283 1
force Pt  -0.000000327748104  -0.000187601671992  -0.000525666135067 1
force Pt   0.000001374671931  -0.000260823021113   0.001177004803032 1
force Pt   0.000000620493974   0.000054190212745  -0.000448396303481 1
force Pt   0.000001427954607   0.000132978058732  -0.000023155765307 1
force Pt   0.000000891254278  -0.000895826037730   0.000148611827779 1
force Pt  -0.000003096897827   0.000595003672414   0.001089647194784 1
force Pt  -0.000000600249053  -0.000951114675708  -0.000451241174508 1

# Energy components:
   A_diel =       -0.0088862038353508
   Eewald =    31593.8520521432765236
       EH =    35261.4688478080424829
     Eloc =   -71448.9821117729443358
      Enl =      -46.4394961056198028
     EvdW =       -1.0799436447838504
      Exc =    -1252.0045932112768696
 Exc_core =      721.2207911422631241
       KE =     1257.0967259676506274
  MuShift =        0.0000000000004723
-------------------------------------
     Etot =    -3914.8766138772202794
       TS =        0.0081623114004443
-------------------------------------
        F =    -3914.8847761886208900


Dumping 'jdft.fillings' ... done
Dumping 'jdft.wfns' ... done
Dumping 'jdft.fluidState' ... done
Dumping 'jdft.ionpos' ... done
Dumping 'jdft.lattice' ... done
Dumping 'jdft.eigenvals' ... done
Dumping 'jdft.eigStats' ... 
	eMin: -2.144281 at state 1 ( [ +0.000000 +0.500000 +0.000000 ] spin 1 )
	HOMO: -0.194130 at state 33 ( [ +0.454545 +0.500000 +0.000000 ] spin -1 )
	mu  : -0.193940
	LUMO: -0.193938 at state 11 ( [ +0.454545 +0.500000 +0.000000 ] spin 1 )
	eMax: +0.115791 at state 39 ( [ -0.272727 +0.500000 +0.000000 ] spin -1 )
	HOMO-LUMO gap: +0.000192
	Optical gap  : +0.000192 at state 11 ( [ +0.454545 +0.500000 +0.000000 ] spin 1 )
Dumping 'jdft.Ecomponents' ... done
IonicMinimize: Iter:   1  F: -3914.884776188620890  |grad|_K:  5.376e-04  alpha:  1.000e+00  linmin: -9.637e-01  t[s]:   6528.03

#--- Lowdin population analysis ---
# oxidation-state Pt -0.004 -0.041 -0.003 +0.016 +0.017 +0.009 +0.068 +0.019 +0.015 +0.010 +0.007 +0.008 +0.008 +0.012 +0.008 +0.009 +0.004 +0.012 +0.014 +0.020 +0.013 -0.002 +0.016 +0.012 +0.018 +0.017 +0.011 +0.008 +0.022 +0.016 +0.007 +0.009 +0.005 +0.007 +0.012 +0.015 -0.043 +0.006 +0.010 +0.012 -0.005 +0.070 -0.005 +0.000
# magnetic-moments Pt +0.000 +0.000 +0.000 +0.000 +0.000 +0.000 +0.000 +0.000 +0.000 +0.000 +0.000 +0.000 +0.000 +0.000 +0.000 +0.000 +0.000 +0.000 +0.000 +0.000 +0.000 +0.000 +0.000 +0.000 +0.000 +0.000 +0.000 +0.000 +0.000 +0.000 +0.000 +0.000 +0.000 +0.000 +0.000 +0.000 +0.000 +0.000 +0.000 +0.000 +0.000 +0.000 +0.000 +0.000


Computing DFT-D3 correction:
# coordination-number Pt 7.047 8.319 7.204 9.389 9.464 9.564 5.916 9.425 9.567 9.513 9.570 9.536 9.579 9.553 9.395 9.556 9.572 9.545 9.445 7.152 9.098 7.155 9.102 9.403 9.452 9.550 9.584 9.555 7.157 9.562 9.574 9.540 9.567 9.505 9.458 9.415 8.315 9.561 9.561 9.384 7.200 5.917 7.045 7.157
# diagonal-C6 Pt 336.87 336.87 336.87 336.87 336.87 336.87 336.87 336.87 336.87 336.87 336.87 336.87 336.87 336.87 336.87 336.87 336.87 336.87 336.87 336.87 336.87 336.87 336.87 336.87 336.87 336.87 336.87 336.87 336.87 336.87 336.87 336.87 336.87 336.87 336.87 336.87 336.87 336.87 336.87 336.87 336.87 336.87 336.87 336.87
EvdW_6 =   -0.421160
EvdW_8 =   -0.658645

-------- Electronic minimization -----------
	Linear fluid (dielectric constant: 78.4, screening length: 8.12261 Bohr) occupying 0.382606 of unit cell:	Completed after 17 iterations at t[s]:   6612.96
	FillingsUpdate:  mu: -0.192191720  nElectrons: 704.000000  magneticMoment: [ Abs: 0.00000  Tot: +0.00000 ]
ElecMinimize: Iter:   0  F: -3914.884228464660282  |grad|_K:  1.832e-06  alpha:  1.000e+00
	Linear fluid (dielectric constant: 78.4, screening length: 8.12261 Bohr) occupying 0.383177 of unit cell:	Completed after 26 iterations at t[s]:   6773.22
	Linear fluid (dielectric constant: 78.4, screening length: 8.12261 Bohr) occupying 0.382588 of unit cell:	Completed after 25 iterations at t[s]:   6825.48
	FillingsUpdate:  mu: -0.193915179  nElectrons: 704.000000  magneticMoment: [ Abs: 0.00000  Tot: +0.00000 ]
	SubspaceRotationAdjust: set factor to 0.0155
ElecMinimize: Iter:   1  F: -3914.884562717183599  |grad|_K:  4.923e-07  alpha:  1.398e-01  linmin:  1.173e-04  t[s]:   6898.95
	Linear fluid (dielectric constant: 78.4, screening length: 8.12261 Bohr) occupying 0.382588 of unit cell:	Completed after 10 iterations at t[s]:   6970.37
	Linear fluid (dielectric constant: 78.4, screening length: 8.12261 Bohr) occupying 0.382586 of unit cell:	Completed after 11 iterations at t[s]:   7020.24
	FillingsUpdate:  mu: -0.194183490  nElectrons: 704.000000  magneticMoment: [ Abs: 0.00000  Tot: +0.00000 ]
	SubspaceRotationAdjust: set factor to 0.0178
ElecMinimize: Iter:   2  F: -3914.884630567244585  |grad|_K:  2.234e-07  alpha:  3.935e-01  linmin:  6.880e-04  t[s]:   7093.33
	Linear fluid (dielectric constant: 78.4, screening length: 8.12261 Bohr) occupying 0.382585 of unit cell:	Completed after 13 iterations at t[s]:   7165.42
	Linear fluid (dielectric constant: 78.4, screening length: 8.12261 Bohr) occupying 0.382585 of unit cell:	Completed after 6 iterations at t[s]:   7214.31
	FillingsUpdate:  mu: -0.193511395  nElectrons: 704.000000  magneticMoment: [ Abs: 0.00000  Tot: +0.00000 ]
	SubspaceRotationAdjust: set factor to 0.0211
ElecMinimize: Iter:   3  F: -3914.884648737954649  |grad|_K:  1.666e-07  alpha:  5.114e-01  linmin: -3.845e-04  t[s]:   7287.74
	Linear fluid (dielectric constant: 78.4, screening length: 8.12261 Bohr) occupying 0.382583 of unit cell:	Completed after 14 iterations at t[s]:   7359.92
	Linear fluid (dielectric constant: 78.4, screening length: 8.12261 Bohr) occupying 0.382583 of unit cell:	Completed after 7 iterations at t[s]:   7409.26
	FillingsUpdate:  mu: -0.194284991  nElectrons: 704.000000  magneticMoment: [ Abs: 0.00000  Tot: +0.00000 ]
	SubspaceRotationAdjust: set factor to 0.024
ElecMinimize: Iter:   4  F: -3914.884661455089372  |grad|_K:  1.691e-07  alpha:  6.417e-01  linmin:  5.467e-05  t[s]:   7482.59
	Linear fluid (dielectric constant: 78.4, screening length: 8.12261 Bohr) occupying 0.382581 of unit cell:	Completed after 14 iterations at t[s]:   7554.75
	Linear fluid (dielectric constant: 78.4, screening length: 8.12261 Bohr) occupying 0.382580 of unit cell:	Completed after 6 iterations at t[s]:   7604.15
	FillingsUpdate:  mu: -0.193543946  nElectrons: 704.000000  magneticMoment: [ Abs: 0.00000  Tot: +0.00000 ]
	SubspaceRotationAdjust: set factor to 0.0254
ElecMinimize: Iter:   5  F: -3914.884676056095032  |grad|_K:  2.019e-07  alpha:  7.177e-01  linmin:  6.734e-06  t[s]:   7677.38
	Linear fluid (dielectric constant: 78.4, screening length: 8.12261 Bohr) occupying 0.382576 of unit cell:	Completed after 13 iterations at t[s]:   7749.74
	Linear fluid (dielectric constant: 78.4, screening length: 8.12261 Bohr) occupying 0.382577 of unit cell:	Completed after 9 iterations at t[s]:   7799.62
	FillingsUpdate:  mu: -0.193863387  nElectrons: 704.000000  magneticMoment: [ Abs: 0.00000  Tot: +0.00000 ]
	SubspaceRotationAdjust: set factor to 0.0239
ElecMinimize: Iter:   6  F: -3914.884693275651443  |grad|_K:  2.585e-07  alpha:  5.929e-01  linmin:  1.238e-05  t[s]:   7873.32
	Linear fluid (dielectric constant: 78.4, screening length: 8.12261 Bohr) occupying 0.382571 of unit cell:	Completed after 16 iterations at t[s]:   7945.83
	Linear fluid (dielectric constant: 78.4, screening length: 8.12261 Bohr) occupying 0.382571 of unit cell:	Completed after 0 iterations at t[s]:   7993.95
	FillingsUpdate:  mu: -0.194430988  nElectrons: 704.000000  magneticMoment: [ Abs: 0.00000  Tot: +0.00000 ]
	SubspaceRotationAdjust: set factor to 0.0209
ElecMinimize: Iter:   7  F: -3914.884721372090553  |grad|_K:  2.964e-07  alpha:  5.906e-01  linmin:  1.621e-05  t[s]:   8067.17
	Linear fluid (dielectric constant: 78.4, screening length: 8.12261 Bohr) occupying 0.382564 of unit cell:	Completed after 16 iterations at t[s]:   8139.74
	Linear fluid (dielectric constant: 78.4, screening length: 8.12261 Bohr) occupying 0.382564 of unit cell:	Completed after 2 iterations at t[s]:   8188.15
	FillingsUpdate:  mu: -0.193089930  nElectrons: 704.000000  magneticMoment: [ Abs: 0.00000  Tot: +0.00000 ]
	SubspaceRotationAdjust: set factor to 0.0184
ElecMinimize: Iter:   8  F: -3914.884759351844878  |grad|_K:  3.137e-07  alpha:  6.072e-01  linmin: -2.771e-05  t[s]:   8261.30
	Linear fluid (dielectric constant: 78.4, screening length: 8.12261 Bohr) occupying 0.382555 of unit cell:	Completed after 14 iterations at t[s]:   8333.23
	Linear fluid (dielectric constant: 78.4, screening length: 8.12261 Bohr) occupying 0.382553 of unit cell:	Completed after 11 iterations at t[s]:   8383.50
	FillingsUpdate:  mu: -0.194382954  nElectrons: 704.000000  magneticMoment: [ Abs: 0.00000  Tot: +0.00000 ]
	SubspaceRotationAdjust: set factor to 0.0178
ElecMinimize: Iter:   9  F: -3914.884813490315992  |grad|_K:  3.162e-07  alpha:  7.715e-01  linmin:  3.192e-05  t[s]:   8456.86
	Linear fluid (dielectric constant: 78.4, screening length: 8.12261 Bohr) occupying 0.382542 of unit cell:	Completed after 14 iterations at t[s]:   8529.29
	Linear fluid (dielectric constant: 78.4, screening length: 8.12261 Bohr) occupying 0.382544 of unit cell:	Completed after 6 iterations at t[s]:   8578.45
	FillingsUpdate:  mu: -0.193469831  nElectrons: 704.000000  magneticMoment: [ Abs: 0.00000  Tot: +0.00000 ]
	SubspaceRotationAdjust: set factor to 0.0176
ElecMinimize: Iter:  10  F: -3914.884859719963970  |grad|_K:  2.531e-07  alpha:  6.505e-01  linmin:  1.664e-06  t[s]:   8651.72
	Linear fluid (dielectric constant: 78.4, screening length: 8.12261 Bohr) occupying 0.382538 of unit cell:	Completed after 14 iterations at t[s]:   8723.65
	Linear fluid (dielectric constant: 78.4, screening length: 8.12261 Bohr) occupying 0.382538 of unit cell:	Completed after 6 iterations at t[s]:   8772.76
	FillingsUpdate:  mu: -0.193960562  nElectrons: 704.000000  magneticMoment: [ Abs: 0.00000  Tot: +0.00000 ]
	SubspaceRotationAdjust: set factor to 0.0171
ElecMinimize: Iter:  11  F: -3914.884885865934848  |grad|_K:  1.917e-07  alpha:  5.732e-01  linmin: -4.667e-06  t[s]:   8846.21
	Linear fluid (dielectric constant: 78.4, screening length: 8.12261 Bohr) occupying 0.382536 of unit cell:	Completed after 11 iterations at t[s]:   8917.83
	Linear fluid (dielectric constant: 78.4, screening length: 8.12261 Bohr) occupying 0.382537 of unit cell:	Completed after 8 iterations at t[s]:   8967.46
	FillingsUpdate:  mu: -0.193881750  nElectrons: 704.000000  magneticMoment: [ Abs: 0.00000  Tot: +0.00000 ]
	SubspaceRotationAdjust: set factor to 0.0141
ElecMinimize: Iter:  12  F: -3914.884898099334350  |grad|_K:  1.412e-07  alpha:  4.672e-01  linmin: -8.170e-07  t[s]:   9040.33
	Linear fluid (dielectric constant: 78.4, screening length: 8.12261 Bohr) occupying 0.382536 of unit cell:	Completed after 11 iterations at t[s]:   9112.07
	Linear fluid (dielectric constant: 78.4, screening length: 8.12261 Bohr) occupying 0.382536 of unit cell:	Completed after 5 iterations at t[s]:   9161.12
	FillingsUpdate:  mu: -0.193750301  nElectrons: 704.000000  magneticMoment: [ Abs: 0.00000  Tot: +0.00000 ]
	SubspaceRotationAdjust: set factor to 0.0122
ElecMinimize: Iter:  13  F: -3914.884903792132718  |grad|_K:  9.462e-08  alpha:  4.008e-01  linmin:  4.093e-05  t[s]:   9234.51
	Linear fluid (dielectric constant: 78.4, screening length: 8.12261 Bohr) occupying 0.382537 of unit cell:	Completed after 6 iterations at t[s]:   9305.53
	Linear fluid (dielectric constant: 78.4, screening length: 8.12261 Bohr) occupying 0.382537 of unit cell:	Completed after 2 iterations at t[s]:   9354.85
	FillingsUpdate:  mu: -0.193836736  nElectrons: 704.000000  magneticMoment: [ Abs: 0.00000  Tot: +0.00000 ]
	SubspaceRotationAdjust: set factor to 0.0143
ElecMinimize: Iter:  14  F: -3914.884907120276239  |grad|_K:  6.254e-08  alpha:  5.226e-01  linmin: -3.170e-05  t[s]:   9428.09
	Linear fluid (dielectric constant: 78.4, screening length: 8.12261 Bohr) occupying 0.382537 of unit cell:	Completed after 7 iterations at t[s]:   9498.84
	Linear fluid (dielectric constant: 78.4, screening length: 8.12261 Bohr) occupying 0.382537 of unit cell:	Completed after 0 iterations at t[s]:   9547.32
	FillingsUpdate:  mu: -0.193870796  nElectrons: 704.000000  magneticMoment: [ Abs: 0.00000  Tot: +0.00000 ]
	SubspaceRotationAdjust: set factor to 0.0159
ElecMinimize: Iter:  15  F: -3914.884908604153679  |grad|_K:  4.761e-08  alpha:  5.322e-01  linmin: -5.413e-04  t[s]:   9621.03
	Linear fluid (dielectric constant: 78.4, screening length: 8.12261 Bohr) occupying 0.382538 of unit cell:	Completed after 9 iterations at t[s]:   9692.40
	Linear fluid (dielectric constant: 78.4, screening length: 8.12261 Bohr) occupying 0.382538 of unit cell:	Completed after 0 iterations at t[s]:   9740.40
	FillingsUpdate:  mu: -0.193845070  nElectrons: 704.000000  magneticMoment: [ Abs: 0.00000  Tot: +0.00000 ]
	SubspaceRotationAdjust: set factor to 0.0164
ElecMinimize: Iter:  16  F: -3914.884909450577197  |grad|_K:  4.125e-08  alpha:  5.204e-01  linmin:  6.487e-04  t[s]:   9813.98
	Linear fluid (dielectric constant: 78.4, screening length: 8.12261 Bohr) occupying 0.382538 of unit cell:	Completed after 7 iterations at t[s]:   9884.93
	Linear fluid (dielectric constant: 78.4, screening length: 8.12261 Bohr) occupying 0.382538 of unit cell:	Completed after 1 iterations at t[s]:   9933.37
	FillingsUpdate:  mu: -0.193891180  nElectrons: 704.000000  magneticMoment: [ Abs: 0.00000  Tot: +0.00000 ]
	SubspaceRotationAdjust: set factor to 0.0176
ElecMinimize: Iter:  17  F: -3914.884910022678923  |grad|_K:  3.332e-08  alpha:  4.772e-01  linmin:  1.922e-04  t[s]:  10006.63
	Linear fluid (dielectric constant: 78.4, screening length: 8.12261 Bohr) occupying 0.382538 of unit cell:	Completed after 3 iterations at t[s]:  10076.69
	Linear fluid (dielectric constant: 78.4, screening length: 8.12261 Bohr) occupying 0.382538 of unit cell:	Completed after 3 iterations at t[s]:  10125.41
	FillingsUpdate:  mu: -0.193901811  nElectrons: 704.000000  magneticMoment: [ Abs: 0.00000  Tot: +0.00000 ]
	SubspaceRotationAdjust: set factor to 0.0209
ElecMinimize: Iter:  18  F: -3914.884910493212828  |grad|_K:  2.931e-08  alpha:  6.013e-01  linmin:  6.769e-04  t[s]:  10198.83
	Linear fluid (dielectric constant: 78.4, screening length: 8.12261 Bohr) occupying 0.382538 of unit cell:	Completed after 4 iterations at t[s]:  10269.02
	Linear fluid (dielectric constant: 78.4, screening length: 8.12261 Bohr) occupying 0.382538 of unit cell:	Completed after 0 iterations at t[s]:  10316.91
	FillingsUpdate:  mu: -0.193908606  nElectrons: 704.000000  magneticMoment: [ Abs: 0.00000  Tot: +0.00000 ]
	SubspaceRotationAdjust: set factor to 0.0246
ElecMinimize: Iter:  19  F: -3914.884910900919749  |grad|_K:  2.645e-08  alpha:  6.749e-01  linmin: -3.391e-04  t[s]:  10390.22
[...]
	Linear fluid (dielectric constant: 78.4, screening length: 8.12261 Bohr) occupying 0.382747 of unit cell:	Completed after 0 iterations at t[s]:  56955.50
	FillingsUpdate:  mu: -0.194030460  nElectrons: 704.000000  magneticMoment: [ Abs: 0.00000  Tot: +0.00000 ]
	SubspaceRotationAdjust: set factor to 0.0241
ElecMinimize: Iter:   6  F: -3914.885359489906023  |grad|_K:  8.523e-08  alpha:  8.314e-01  linmin: -1.758e-04  t[s]:  57028.97
	Linear fluid (dielectric constant: 78.4, screening length: 8.12261 Bohr) occupying 0.382747 of unit cell:	Completed after 11 iterations at t[s]:  57100.59
	Linear fluid (dielectric constant: 78.4, screening length: 8.12261 Bohr) occupying 0.382747 of unit cell:	Completed after 5 iterations at t[s]:  57149.56
	FillingsUpdate:  mu: -0.193882061  nElectrons: 704.000000  magneticMoment: [ Abs: 0.00000  Tot: +0.00000 ]
	SubspaceRotationAdjust: set factor to 0.0229
ElecMinimize: Iter:   7  F: -3914.885363237327965  |grad|_K:  1.093e-07  alpha:  7.189e-01  linmin:  1.165e-04  t[s]:  57222.92
	Linear fluid (dielectric constant: 78.4, screening length: 8.12261 Bohr) occupying 0.382747 of unit cell:	Completed after 11 iterations at t[s]:  57294.70
	Linear fluid (dielectric constant: 78.4, screening length: 8.12261 Bohr) occupying 0.382747 of unit cell:	Completed after 9 iterations at t[s]:  57344.31
	FillingsUpdate:  mu: -0.194046097  nElectrons: 704.000000  magneticMoment: [ Abs: 0.00000  Tot: +0.00000 ]
	SubspaceRotationAdjust: set factor to 0.0195
ElecMinimize: Iter:   8  F: -3914.885367332100031  |grad|_K:  1.129e-07  alpha:  4.840e-01  linmin:  2.414e-06  t[s]:  57417.68
	Linear fluid (dielectric constant: 78.4, screening length: 8.12261 Bohr) occupying 0.382748 of unit cell:	Completed after 10 iterations at t[s]:  57489.09
	Linear fluid (dielectric constant: 78.4, screening length: 8.12261 Bohr) occupying 0.382749 of unit cell:	Completed after 6 iterations at t[s]:  57538.35
	FillingsUpdate:  mu: -0.194109484  nElectrons: 704.000000  magneticMoment: [ Abs: 0.00000  Tot: +0.00000 ]
	SubspaceRotationAdjust: set factor to 0.0195
ElecMinimize: Iter:   9  F: -3914.885373442821674  |grad|_K:  1.051e-07  alpha:  6.724e-01  linmin: -1.853e-05  t[s]:  57611.54
	Linear fluid (dielectric constant: 78.4, screening length: 8.12261 Bohr) occupying 0.382753 of unit cell:	Completed after 7 iterations at t[s]:  57683.05
	Linear fluid (dielectric constant: 78.4, screening length: 8.12261 Bohr) occupying 0.382753 of unit cell:	Completed after 0 iterations at t[s]:  57730.92
	FillingsUpdate:  mu: -0.193955676  nElectrons: 704.000000  magneticMoment: [ Abs: 0.00000  Tot: +0.00000 ]
	SubspaceRotationAdjust: set factor to 0.0215
ElecMinimize: Iter:  10  F: -3914.885378771198702  |grad|_K:  9.368e-08  alpha:  6.758e-01  linmin: -1.472e-05  t[s]:  57804.14
	Linear fluid (dielectric constant: 78.4, screening length: 8.12261 Bohr) occupying 0.382758 of unit cell:	Completed after 9 iterations at t[s]:  57875.33
	Linear fluid (dielectric constant: 78.4, screening length: 8.12261 Bohr) occupying 0.382757 of unit cell:	Completed after 0 iterations at t[s]:  57923.68
	FillingsUpdate:  mu: -0.194210954  nElectrons: 704.000000  magneticMoment: [ Abs: 0.00000  Tot: +0.00000 ]
	SubspaceRotationAdjust: set factor to 0.0232
ElecMinimize: Iter:  11  F: -3914.885382824908447  |grad|_K:  8.662e-08  alpha:  6.477e-01  linmin:  6.400e-05  t[s]:  57996.71
	Linear fluid (dielectric constant: 78.4, screening length: 8.12261 Bohr) occupying 0.382763 of unit cell:	Completed after 13 iterations at t[s]:  58068.79
	Linear fluid (dielectric constant: 78.4, screening length: 8.12261 Bohr) occupying 0.382762 of unit cell:	Completed after 5 iterations at t[s]:  58117.95
	FillingsUpdate:  mu: -0.193810662  nElectrons: 704.000000  magneticMoment: [ Abs: 0.00000  Tot: +0.00000 ]
	SubspaceRotationAdjust: set factor to 0.0239
ElecMinimize: Iter:  12  F: -3914.885385594593117  |grad|_K:  7.640e-08  alpha:  5.205e-01  linmin: -1.843e-05  t[s]:  58191.20
	Linear fluid (dielectric constant: 78.4, screening length: 8.12261 Bohr) occupying 0.382764 of unit cell:	Completed after 11 iterations at t[s]:  58263.63
	Linear fluid (dielectric constant: 78.4, screening length: 8.12261 Bohr) occupying 0.382764 of unit cell:	Completed after 2 iterations at t[s]:  58311.86
	FillingsUpdate:  mu: -0.194191146  nElectrons: 704.000000  magneticMoment: [ Abs: 0.00000  Tot: +0.00000 ]
	SubspaceRotationAdjust: set factor to 0.0228
ElecMinimize: Iter:  13  F: -3914.885387682579221  |grad|_K:  6.636e-08  alpha:  5.020e-01  linmin: -7.724e-06  t[s]:  58384.99
	Linear fluid (dielectric constant: 78.4, screening length: 8.12261 Bohr) occupying 0.382766 of unit cell:	Completed after 10 iterations at t[s]:  58456.34
	Linear fluid (dielectric constant: 78.4, screening length: 8.12261 Bohr) occupying 0.382766 of unit cell:	Completed after 0 iterations at t[s]:  58504.51
	FillingsUpdate:  mu: -0.194016215  nElectrons: 704.000000  magneticMoment: [ Abs: 0.00000  Tot: +0.00000 ]
	SubspaceRotationAdjust: set factor to 0.0213
ElecMinimize: Iter:  14  F: -3914.885389227162250  |grad|_K:  5.814e-08  alpha:  4.918e-01  linmin:  7.777e-05  t[s]:  58578.06
	Linear fluid (dielectric constant: 78.4, screening length: 8.12261 Bohr) occupying 0.382767 of unit cell:	Completed after 10 iterations at t[s]:  58649.42
	Linear fluid (dielectric constant: 78.4, screening length: 8.12261 Bohr) occupying 0.382767 of unit cell:	Completed after 4 iterations at t[s]:  58698.35
	FillingsUpdate:  mu: -0.193886023  nElectrons: 704.000000  magneticMoment: [ Abs: 0.00000  Tot: +0.00000 ]
	SubspaceRotationAdjust: set factor to 0.0175
ElecMinimize: Iter:  15  F: -3914.885390168012691  |grad|_K:  4.869e-08  alpha:  3.923e-01  linmin:  1.506e-04  t[s]:  58771.59
	Linear fluid (dielectric constant: 78.4, screening length: 8.12261 Bohr) occupying 0.382767 of unit cell:	Completed after 7 iterations at t[s]:  58842.37
	Linear fluid (dielectric constant: 78.4, screening length: 8.12261 Bohr) occupying 0.382767 of unit cell:	Completed after 2 iterations at t[s]:  58890.81
	FillingsUpdate:  mu: -0.193996919  nElectrons: 704.000000  magneticMoment: [ Abs: 0.00000  Tot: +0.00000 ]
	SubspaceRotationAdjust: set factor to 0.0172
ElecMinimize: Iter:  16  F: -3914.885390938479304  |grad|_K:  3.487e-08  alpha:  4.577e-01  linmin: -7.650e-04  t[s]:  58963.87
	Linear fluid (dielectric constant: 78.4, screening length: 8.12261 Bohr) occupying 0.382767 of unit cell:	Completed after 3 iterations at t[s]:  59033.84
	Linear fluid (dielectric constant: 78.4, screening length: 8.12261 Bohr) occupying 0.382767 of unit cell:	Completed after 0 iterations at t[s]:  59081.75
	FillingsUpdate:  mu: -0.193983261  nElectrons: 704.000000  magneticMoment: [ Abs: 0.00000  Tot: +0.00000 ]
	SubspaceRotationAdjust: set factor to 0.02
ElecMinimize: Iter:  17  F: -3914.885391441257525  |grad|_K:  2.754e-08  alpha:  5.670e-01  linmin: -4.518e-04  t[s]:  59155.73
	Linear fluid (dielectric constant: 78.4, screening length: 8.12261 Bohr) occupying 0.382767 of unit cell:	Completed after 6 iterations at t[s]:  59226.42
	Linear fluid (dielectric constant: 78.4, screening length: 8.12261 Bohr) occupying 0.382767 of unit cell:	Completed after 0 iterations at t[s]:  59274.67
	FillingsUpdate:  mu: -0.193879083  nElectrons: 704.000000  magneticMoment: [ Abs: 0.00000  Tot: +0.00000 ]
	SubspaceRotationAdjust: set factor to 0.0197
ElecMinimize: Iter:  18  F: -3914.885391706985047  |grad|_K:  2.481e-08  alpha:  4.885e-01  linmin:  3.230e-04  t[s]:  59348.24
	Linear fluid (dielectric constant: 78.4, screening length: 8.12261 Bohr) occupying 0.382767 of unit cell:	Completed after 6 iterations at t[s]:  59418.67
	Linear fluid (dielectric constant: 78.4, screening length: 8.12261 Bohr) occupying 0.382767 of unit cell:	Completed after 2 iterations at t[s]:  59467.13
	FillingsUpdate:  mu: -0.193972877  nElectrons: 704.000000  magneticMoment: [ Abs: 0.00000  Tot: +0.00000 ]
	SubspaceRotationAdjust: set factor to 0.018
ElecMinimize: Iter:  19  F: -3914.885391855840680  |grad|_K:  1.929e-08  alpha:  3.507e-01  linmin:  9.613e-06  t[s]:  59540.35
	Linear fluid (dielectric constant: 78.4, screening length: 8.12261 Bohr) occupying 0.382767 of unit cell:	Completed after 2 iterations at t[s]:  59610.20
	Linear fluid (dielectric constant: 78.4, screening length: 8.12261 Bohr) occupying 0.382767 of unit cell:	Completed after 0 iterations at t[s]:  59658.07
	FillingsUpdate:  mu: -0.193962654  nElectrons: 704.000000  magneticMoment: [ Abs: 0.00000  Tot: +0.00000 ]
	SubspaceRotationAdjust: set factor to 0.0239
ElecMinimize: Iter:  20  F: -3914.885391982844794  |grad|_K:  1.499e-08  alpha:  4.747e-01  linmin: -2.460e-03  t[s]:  59731.32
	Linear fluid (dielectric constant: 78.4, screening length: 8.12261 Bohr) occupying 0.382767 of unit cell:	Completed after 5 iterations at t[s]:  59801.71
	Linear fluid (dielectric constant: 78.4, screening length: 8.12261 Bohr) occupying 0.382767 of unit cell:	Completed after 2 iterations at t[s]:  59850.25
	FillingsUpdate:  mu: -0.193886485  nElectrons: 704.000000  magneticMoment: [ Abs: 0.00000  Tot: +0.00000 ]
	SubspaceRotationAdjust: set factor to 0.0223
ElecMinimize: Iter:  21  F: -3914.885392035534551  |grad|_K:  1.667e-08  alpha:  3.448e-01  linmin: -9.412e-04  t[s]:  59923.40
	Linear fluid (dielectric constant: 78.4, screening length: 8.12261 Bohr) occupying 0.382767 of unit cell:	Completed after 4 iterations at t[s]:  59994.16
	Linear fluid (dielectric constant: 78.4, screening length: 8.12261 Bohr) occupying 0.382767 of unit cell:	Completed after 0 iterations at t[s]:  60042.05
	FillingsUpdate:  mu: -0.193913746  nElectrons: 704.000000  magneticMoment: [ Abs: 0.00000  Tot: +0.00000 ]
	SubspaceRotationAdjust: set factor to 0.027
ElecMinimize: Iter:  22  F: -3914.885392095802672  |grad|_K:  1.274e-08  alpha:  2.987e-01  linmin:  7.850e-04  t[s]:  60115.35
ElecMinimize: Converged (|Delta F|<1.000000e-07 for 2 iters).
Setting wave functions to eigenvectors of Hamiltonian
Converging empty states (this may take a while): |deigs|: 6.579e-09

Computing DFT-D3 correction:
# coordination-number Pt 7.069 8.287 7.207 9.383 9.443 9.562 5.925 9.411 9.560 9.496 9.560 9.529 9.572 9.543 9.377 9.558 9.568 9.539 9.448 7.129 9.091 7.170 9.091 9.381 9.451 9.540 9.575 9.556 7.131 9.548 9.569 9.532 9.558 9.492 9.440 9.406 8.288 9.562 9.557 9.381 7.205 5.926 7.068 7.172
# diagonal-C6 Pt 336.87 336.87 336.87 336.87 336.87 336.87 336.87 336.87 336.87 336.87 336.87 336.87 336.87 336.87 336.87 336.87 336.87 336.87 336.87 336.87 336.87 336.87 336.87 336.87 336.87 336.87 336.87 336.87 336.87 336.87 336.87 336.87 336.87 336.87 336.87 336.87 336.87 336.87 336.87 336.87 336.87 336.87 336.87 336.87
EvdW_6 =   -0.421114
EvdW_8 =   -0.658692

# Ionic positions in cartesian coordinates:
ion Pt   0.000133487037954  15.362018016032595  68.211302727975522 1
ion Pt   0.000252643880653  22.572392204803961  65.388741587749010 1
ion Pt   0.000060574060404   6.709637513600456  66.746192679430493 1
ion Pt  -0.000123026404715  13.365314971086391  63.412689783596925 1
ion Pt   0.000029948625568  20.224886655386342  60.326813975777050 1
ion Pt  -0.000028881324987  17.868533250849701  55.561447826333698 1
ion Pt  -0.000234688673745   0.356233976490662  35.362600247509647 1
ion Pt   5.232031408097813   4.457095797959572  61.936144674753621 1
ion Pt   5.231949801801475  11.186083572150357  58.745198916098005 1
ion Pt   5.232099241898949   2.212021418280521  57.230683920829165 1
ion Pt   5.231980611697582   8.942850949261823  54.033834735777496 1
ion Pt  -0.000107584431971  15.599643531372912  50.853846464832479 1
ion Pt   0.000012040083627  22.303336316538861  47.714416238188619 1
ion Pt  -0.000075063321740  13.391364107063652  46.159818541382535 1
ion Pt  -0.000202070270864  20.039154560571944  42.838011531477306 1
ion Pt   0.000154658613715  24.542774758786958  52.494553012026778 1
ion Pt   0.000091611912250   6.668568034572612  49.279933607683773 1
ion Pt   5.232123590631681   4.367505802774892  44.586903637786406 1
ion Pt   5.232057719610316  11.170666534185360  41.465858143722606 1
ion Pt   5.231739377732167  17.694611886955155  37.984625772602904 1
ion Pt  -0.000013510663432   2.169627132562315  40.001952329743268 1
ion Pt   5.231912000971487   9.022126907622493  36.624642700512169 1
ion Pt   2.616013762254163  17.908805179931313  64.110856393564831 1
ion Pt   2.616152045233336   0.038684389869993  61.277917456849757 1
ion Pt   2.615930854872737   8.906734901997590  62.649064648093891 1
ion Pt   2.615924007663871  15.710980334692220  59.528177511473984 1
ion Pt   2.616079067464679  22.317008566665532  56.401964755161188 1
ion Pt   2.615962143377201  20.077960801729411  51.622611064055420 1
ion Pt   2.616221565224910   2.384387412774073  66.130346895867845 1
ion Pt   2.616044451453145   6.686837833332029  57.956898076103336 1
ion Pt   2.615917304251390  13.409791611289689  54.836773375144190 1
ion Pt   2.616098839280275   4.479203446201448  53.263299367706558 1
ion Pt   2.615960531744675  11.135171215412743  50.083277366848634 1
ion Pt   2.615910076764394  17.867077824708929  46.886238652369251 1
ion Pt   2.616025945119558  -0.146052659519347  43.788317638531353 1
ion Pt   2.615932446013169  15.620761058464170  42.179594272089112 1
ion Pt   2.615675831412918  22.046886733690762  38.726463864622694 1
ion Pt   2.616119469880710   2.210948528985401  48.554770872210582 1
ion Pt   2.616025168973408   8.891401083365430  45.370569600469445 1
ion Pt   2.616114713076782   6.712531975381679  40.701567576656736 1
ion Pt   2.615829646499744  13.368276301214761  37.368357257613020 1
ion Pt   2.616210678479753  19.719585444655614  68.750670264523364 1
ion Pt   2.615883233021420   4.715533050201620  35.901685131121852 1
ion Pt   2.616048326373569  11.055930066045502  67.488894903133840 1

# Forces in Cartesian coordinates:
force Pt   0.000002853361054  -0.000010604735808   0.000152681043044 1
force Pt   0.000000874819352  -0.000040509747247   0.000020269711400 1
force Pt   0.000001107586756  -0.000246975709453   0.000095274061247 1
force Pt   0.000001138942585  -0.000235483052987   0.000024878917592 1
force Pt  -0.000000378337029  -0.000040076310795  -0.000039452821472 1
force Pt   0.000001150617923  -0.000105456219040  -0.000221679221988 1
force Pt  -0.000001095007026   0.000193609683899  -0.000020896455869 1
force Pt   0.000001820049347   0.000182772612549  -0.000069000369161 1
force Pt   0.000000142179363   0.000065698219305  -0.000195208213146 1
force Pt  -0.000000053892170  -0.000071706343562   0.000059511604780 1
force Pt   0.000000181632823   0.000030025688376  -0.000009641645640 1
force Pt  -0.000000421378073  -0.000197281035861  -0.000268674429848 1
force Pt  -0.000000405835796   0.000073703352938  -0.000071248865848 1
force Pt  -0.000000273819853   0.000064225072876  -0.000010569618875 1
force Pt   0.000001999717067  -0.000006090562420  -0.000049891998001 1
force Pt   0.000000106719527   0.000076789570485  -0.000055857827563 1
force Pt   0.000000097607025   0.000155958393020   0.000035741181695 1
force Pt  -0.000000379711911  -0.000149122101135  -0.000033088798448 1
force Pt  -0.000000910722399   0.000014692925415   0.000060924908553 1
force Pt  -0.000003457734976   0.000049318214498  -0.000002205447308 1
force Pt  -0.000001757105061  -0.000004220369277  -0.000168497670001 1
force Pt   0.000000804931043  -0.000017094892010   0.000021857744778 1
force Pt   0.000003043947228   0.000022250649049   0.000350546178772 1
force Pt  -0.000001100528093   0.000056474809063   0.000049890844130 1
force Pt   0.000001011519356   0.000006408453447   0.000017835942405 1
force Pt  -0.000000457391342   0.000128440764787  -0.000058182857090 1
force Pt  -0.000001620860526  -0.000100507406828  -0.000036962241022 1
force Pt  -0.000000796377555  -0.000108965095973  -0.000135130686167 1
force Pt  -0.000000470954331  -0.000079434011749   0.000169771486476 1
force Pt   0.000001188745954  -0.000085690689295  -0.000081702298161 1
force Pt   0.000000310373536  -0.000123227727385  -0.000176922875641 1
force Pt  -0.000000334259927   0.000192696465171   0.000108361233253 1
force Pt  -0.000001304291667  -0.000029883893836  -0.000161213592323 1
force Pt  -0.000000119121727   0.000094463187279  -0.000155173171054 1
force Pt  -0.000001483354611  -0.000002959436997  -0.000011999849687 1
force Pt  -0.000002153837988  -0.000178777285233   0.000100166628912 1
force Pt   0.000000801531751   0.000015227854675   0.000091972347608 1
force Pt  -0.000001051598069   0.000113682989095   0.000079482592236 1
force Pt   0.000000144103585  -0.000003431057584   0.000142808388641 1
force Pt  -0.000001859017409   0.000189845801072   0.000001026133606 1
force Pt   0.000001515497245   0.000239794853671   0.000089519711383 1
force Pt   0.000000800348098  -0.000120649320123   0.000162214322768 1
force Pt  -0.000002626026332  -0.000085766217870  -0.000013460394579 1
force Pt  -0.000000267943126  -0.000009747054424   0.000145966004789 1

# Energy components:
   A_diel =       -0.0089283389138560
   Eewald =    31582.3815466697160446
       EH =    35250.0586788739092299
     Eloc =   -71426.1024526390101528
      Enl =      -46.4298009660524684
     EvdW =       -1.0798066379583617
      Exc =    -1252.0086577390923139
 Exc_core =      721.2207715022896082
       KE =     1257.0913165009137629
  MuShift =        0.0000000000004723
-------------------------------------
     Etot =    -3914.8773327741901085
       TS =        0.0080593216127365
-------------------------------------
        F =    -3914.8853920958026720


Dumping 'jdft.fillings' ... done
Dumping 'jdft.wfns' ... done
Dumping 'jdft.fluidState' ... done
Dumping 'jdft.ionpos' ... done
Dumping 'jdft.lattice' ... done
Dumping 'jdft.eigenvals' ... done
Dumping 'jdft.eigStats' ... 
	eMin: -2.144288 at state 1 ( [ +0.000000 +0.500000 +0.000000 ] spin 1 )
	HOMO: -0.193953 at state 40 ( [ -0.181818 +0.000000 +0.000000 ] spin -1 )
	mu  : -0.193914
	LUMO: -0.193864 at state 18 ( [ -0.181818 +0.000000 +0.000000 ] spin 1 )
	eMax: +0.116351 at state 39 ( [ -0.272727 +0.500000 +0.000000 ] spin -1 )
	HOMO-LUMO gap: +0.000088
	Optical gap  : +0.000088 at state 26 ( [ +0.181818 +0.000000 +0.000000 ] spin -1 )
Dumping 'jdft.Ecomponents' ... done
IonicMinimize: Iter:   8  F: -3914.885392095802672  |grad|_K:  9.622e-05  alpha:  1.000e+00  linmin: -1.149e-01  t[s]:  60320.10
IonicMinimize: Converged (|grad|_K<1.000000e-04).

#--- Lowdin population analysis ---
# oxidation-state Pt -0.007 -0.042 -0.004 +0.013 +0.013 +0.008 +0.067 +0.017 +0.013 +0.009 +0.007 +0.010 +0.011 +0.015 +0.011 +0.008 +0.007 +0.016 +0.016 +0.022 +0.014 -0.003 +0.013 +0.010 +0.015 +0.014 +0.010 +0.008 +0.022 +0.014 +0.007 +0.010 +0.008 +0.010 +0.015 +0.018 -0.042 +0.008 +0.015 +0.014 -0.003 +0.067 -0.007 -0.003
# magnetic-moments Pt +0.000 +0.000 +0.000 +0.000 +0.000 +0.000 +0.000 +0.000 +0.000 +0.000 +0.000 +0.000 +0.000 +0.000 +0.000 +0.000 +0.000 +0.000 +0.000 +0.000 +0.000 +0.000 +0.000 +0.000 +0.000 +0.000 +0.000 +0.000 +0.000 +0.000 +0.000 +0.000 +0.000 +0.000 +0.000 +0.000 +0.000 +0.000 +0.000 +0.000 +0.000 +0.000 +0.000 +0.000


Dumping 'jdft.n_up' ... done
Dumping 'jdft.n_dn' ... done
Dumping 'jdft.tau_up' ... done
Dumping 'jdft.tau_dn' ... done
Dumping 'jdft.eigenvals' ... done
Dumping 'jdft.eigStats' ... 
	eMin: -2.144288 at state 1 ( [ +0.000000 +0.500000 +0.000000 ] spin 1 )
	HOMO: -0.193953 at state 40 ( [ -0.181818 +0.000000 +0.000000 ] spin -1 )
	mu  : -0.193914
	LUMO: -0.193864 at state 18 ( [ -0.181818 +0.000000 +0.000000 ] spin 1 )
	eMax: +0.116351 at state 39 ( [ -0.272727 +0.500000 +0.000000 ] spin -1 )
	HOMO-LUMO gap: +0.000088
	Optical gap  : +0.000088 at state 26 ( [ +0.181818 +0.000000 +0.000000 ] spin -1 )
Dumping 'jdft.kPts' ... done
Dumping 'jdft.dosUp' ... done.
Dumping 'jdft.dosDn' ... done.
End date and time: Thu Dec  9 22:33:42 2021  (Duration: 0-16:47:14.66)
Done!
