
*************** JDFTx 1.6.0  ***************

Start date and time: Mon Dec  6 17:17:48 2021
Executable /projects/musgravc/apps/jdftx-1.6.1/build/jdftx with command-line: -i in
Running on hosts (process indices):  shas0823.rc.int.colorado.edu (0-23)
Divided in process groups (process indices):  0 (0)  1 (1)  2 (2)  3 (3)  4 (4)  5 (5)  6 (6)  7 (7)  8 (8)  9 (9)  10 (10)  11 (11)  12 (12)  13 (13)  14 (14)  15 (15)  16 (16)  17 (17)  18 (18)  19 (19)  20 (20)  21 (21)  22 (22)  23 (23)
Resource initialization completed at t[s]:      0.00
Run totals: 24 processes, 24 threads, 0 GPUs


Input parsed successfully to the following command list (including defaults):

basis kpoint-dependent
converge-empty-states yes
coords-type Cartesian
core-overlap-check none
coulomb-interaction Periodic
davidson-band-ratio 1.1
density-of-states Etol 1.000000e-06 Esigma 1.000000e-03 \
		Complete \
	Total \
	OrthoOrbital Ag 1   s \
	OrthoOrbital Ag 1   p \
	OrthoOrbital Ag 1   px \
	OrthoOrbital Ag 1   py \
	OrthoOrbital Ag 1   pz \
	OrthoOrbital Ag 1   d \
	OrthoOrbital Ag 1   dxy \
	OrthoOrbital Ag 1   dyz \
	OrthoOrbital Ag 1   dz2 \
	OrthoOrbital Ag 1   dxz \
	OrthoOrbital Ag 1   dx2-y2 \
	OrthoOrbital Ag 2   s \
	OrthoOrbital Ag 2   p \
	OrthoOrbital Ag 2   px \
	OrthoOrbital Ag 2   py \
	OrthoOrbital Ag 2   pz \
	OrthoOrbital Ag 2   d \
	OrthoOrbital Ag 2   dxy \
	OrthoOrbital Ag 2   dyz \
	OrthoOrbital Ag 2   dz2 \
	OrthoOrbital Ag 2   dxz \
	OrthoOrbital Ag 2   dx2-y2 \
	OrthoOrbital Ag 3   s \
	OrthoOrbital Ag 3   p \
	OrthoOrbital Ag 3   px \
	OrthoOrbital Ag 3   py \
	OrthoOrbital Ag 3   pz \
	OrthoOrbital Ag 3   d \
	OrthoOrbital Ag 3   dxy \
	OrthoOrbital Ag 3   dyz \
	OrthoOrbital Ag 3   dz2 \
	OrthoOrbital Ag 3   dxz \
	OrthoOrbital Ag 3   dx2-y2 \
	OrthoOrbital Ag 4   s \
	OrthoOrbital Ag 4   p \
	OrthoOrbital Ag 4   px \
	OrthoOrbital Ag 4   py \
	OrthoOrbital Ag 4   pz \
	OrthoOrbital Ag 4   d \
	OrthoOrbital Ag 4   dxy \
	OrthoOrbital Ag 4   dyz \
	OrthoOrbital Ag 4   dz2 \
	OrthoOrbital Ag 4   dxz \
	OrthoOrbital Ag 4   dx2-y2 \
	OrthoOrbital Ag 5   s \
	OrthoOrbital Ag 5   p \
	OrthoOrbital Ag 5   px \
	OrthoOrbital Ag 5   py \
	OrthoOrbital Ag 5   pz \
	OrthoOrbital Ag 5   d \
	OrthoOrbital Ag 5   dxy \
	OrthoOrbital Ag 5   dyz \
	OrthoOrbital Ag 5   dz2 \
	OrthoOrbital Ag 5   dxz \
	OrthoOrbital Ag 5   dx2-y2 \
	OrthoOrbital Ag 6   s \
	OrthoOrbital Ag 6   p \
	OrthoOrbital Ag 6   px \
	OrthoOrbital Ag 6   py \
	OrthoOrbital Ag 6   pz \
	OrthoOrbital Ag 6   d \
	OrthoOrbital Ag 6   dxy \
	OrthoOrbital Ag 6   dyz \
	OrthoOrbital Ag 6   dz2 \
	OrthoOrbital Ag 6   dxz \
	OrthoOrbital Ag 6   dx2-y2 \
	OrthoOrbital Ag 7   s \
	OrthoOrbital Ag 7   p \
	OrthoOrbital Ag 7   px \
	OrthoOrbital Ag 7   py \
	OrthoOrbital Ag 7   pz \
	OrthoOrbital Ag 7   d \
	OrthoOrbital Ag 7   dxy \
	OrthoOrbital Ag 7   dyz \
	OrthoOrbital Ag 7   dz2 \
	OrthoOrbital Ag 7   dxz \
	OrthoOrbital Ag 7   dx2-y2 \
	OrthoOrbital Ag 8   s \
	OrthoOrbital Ag 8   p \
	OrthoOrbital Ag 8   px \
	OrthoOrbital Ag 8   py \
	OrthoOrbital Ag 8   pz \
	OrthoOrbital Ag 8   d \
	OrthoOrbital Ag 8   dxy \
	OrthoOrbital Ag 8   dyz \
	OrthoOrbital Ag 8   dz2 \
	OrthoOrbital Ag 8   dxz \
	OrthoOrbital Ag 8   dx2-y2 \
	OrthoOrbital Ag 9   s \
	OrthoOrbital Ag 9   p \
	OrthoOrbital Ag 9   px \
	OrthoOrbital Ag 9   py \
	OrthoOrbital Ag 9   pz \
	OrthoOrbital Ag 9   d \
	OrthoOrbital Ag 9   dxy \
	OrthoOrbital Ag 9   dyz \
	OrthoOrbital Ag 9   dz2 \
	OrthoOrbital Ag 9   dxz \
	OrthoOrbital Ag 9   dx2-y2 \
	OrthoOrbital Ag 10   s \
	OrthoOrbital Ag 10   p \
	OrthoOrbital Ag 10   px \
	OrthoOrbital Ag 10   py \
	OrthoOrbital Ag 10   pz \
	OrthoOrbital Ag 10   d \
	OrthoOrbital Ag 10   dxy \
	OrthoOrbital Ag 10   dyz \
	OrthoOrbital Ag 10   dz2 \
	OrthoOrbital Ag 10   dxz \
	OrthoOrbital Ag 10   dx2-y2 \
	OrthoOrbital Ag 11   s \
	OrthoOrbital Ag 11   p \
	OrthoOrbital Ag 11   px \
	OrthoOrbital Ag 11   py \
	OrthoOrbital Ag 11   pz \
	OrthoOrbital Ag 11   d \
	OrthoOrbital Ag 11   dxy \
	OrthoOrbital Ag 11   dyz \
	OrthoOrbital Ag 11   dz2 \
	OrthoOrbital Ag 11   dxz \
	OrthoOrbital Ag 11   dx2-y2 \
	OrthoOrbital Ag 12   s \
	OrthoOrbital Ag 12   p \
	OrthoOrbital Ag 12   px \
	OrthoOrbital Ag 12   py \
	OrthoOrbital Ag 12   pz \
	OrthoOrbital Ag 12   d \
	OrthoOrbital Ag 12   dxy \
	OrthoOrbital Ag 12   dyz \
	OrthoOrbital Ag 12   dz2 \
	OrthoOrbital Ag 12   dxz \
	OrthoOrbital Ag 12   dx2-y2 \
	OrthoOrbital Ag 13   s \
	OrthoOrbital Ag 13   p \
	OrthoOrbital Ag 13   px \
	OrthoOrbital Ag 13   py \
	OrthoOrbital Ag 13   pz \
	OrthoOrbital Ag 13   d \
	OrthoOrbital Ag 13   dxy \
	OrthoOrbital Ag 13   dyz \
	OrthoOrbital Ag 13   dz2 \
	OrthoOrbital Ag 13   dxz \
	OrthoOrbital Ag 13   dx2-y2 \
	OrthoOrbital Ag 14   s \
	OrthoOrbital Ag 14   p \
	OrthoOrbital Ag 14   px \
	OrthoOrbital Ag 14   py \
	OrthoOrbital Ag 14   pz \
	OrthoOrbital Ag 14   d \
	OrthoOrbital Ag 14   dxy \
	OrthoOrbital Ag 14   dyz \
	OrthoOrbital Ag 14   dz2 \
	OrthoOrbital Ag 14   dxz \
	OrthoOrbital Ag 14   dx2-y2 \
	OrthoOrbital Ag 15   s \
	OrthoOrbital Ag 15   p \
	OrthoOrbital Ag 15   px \
	OrthoOrbital Ag 15   py \
	OrthoOrbital Ag 15   pz \
	OrthoOrbital Ag 15   d \
	OrthoOrbital Ag 15   dxy \
	OrthoOrbital Ag 15   dyz \
	OrthoOrbital Ag 15   dz2 \
	OrthoOrbital Ag 15   dxz \
	OrthoOrbital Ag 15   dx2-y2 \
	OrthoOrbital Ag 16   s \
	OrthoOrbital Ag 16   p \
	OrthoOrbital Ag 16   px \
	OrthoOrbital Ag 16   py \
	OrthoOrbital Ag 16   pz \
	OrthoOrbital Ag 16   d \
	OrthoOrbital Ag 16   dxy \
	OrthoOrbital Ag 16   dyz \
	OrthoOrbital Ag 16   dz2 \
	OrthoOrbital Ag 16   dxz \
	OrthoOrbital Ag 16   dx2-y2 \
	OrthoOrbital Ag 17   s \
	OrthoOrbital Ag 17   p \
	OrthoOrbital Ag 17   px \
	OrthoOrbital Ag 17   py \
	OrthoOrbital Ag 17   pz \
	OrthoOrbital Ag 17   d \
	OrthoOrbital Ag 17   dxy \
	OrthoOrbital Ag 17   dyz \
	OrthoOrbital Ag 17   dz2 \
	OrthoOrbital Ag 17   dxz \
	OrthoOrbital Ag 17   dx2-y2 \
	OrthoOrbital Ag 18   s \
	OrthoOrbital Ag 18   p \
	OrthoOrbital Ag 18   px \
	OrthoOrbital Ag 18   py \
	OrthoOrbital Ag 18   pz \
	OrthoOrbital Ag 18   d \
	OrthoOrbital Ag 18   dxy \
	OrthoOrbital Ag 18   dyz \
	OrthoOrbital Ag 18   dz2 \
	OrthoOrbital Ag 18   dxz \
	OrthoOrbital Ag 18   dx2-y2 \
	OrthoOrbital Ag 19   s \
	OrthoOrbital Ag 19   p \
	OrthoOrbital Ag 19   px \
	OrthoOrbital Ag 19   py \
	OrthoOrbital Ag 19   pz \
	OrthoOrbital Ag 19   d \
	OrthoOrbital Ag 19   dxy \
	OrthoOrbital Ag 19   dyz \
	OrthoOrbital Ag 19   dz2 \
	OrthoOrbital Ag 19   dxz \
	OrthoOrbital Ag 19   dx2-y2 \
	OrthoOrbital Ag 20   s \
	OrthoOrbital Ag 20   p \
	OrthoOrbital Ag 20   px \
	OrthoOrbital Ag 20   py \
	OrthoOrbital Ag 20   pz \
	OrthoOrbital Ag 20   d \
	OrthoOrbital Ag 20   dxy \
	OrthoOrbital Ag 20   dyz \
	OrthoOrbital Ag 20   dz2 \
	OrthoOrbital Ag 20   dxz \
	OrthoOrbital Ag 20   dx2-y2 \
	OrthoOrbital Ag 21   s \
	OrthoOrbital Ag 21   p \
	OrthoOrbital Ag 21   px \
	OrthoOrbital Ag 21   py \
	OrthoOrbital Ag 21   pz \
	OrthoOrbital Ag 21   d \
	OrthoOrbital Ag 21   dxy \
	OrthoOrbital Ag 21   dyz \
	OrthoOrbital Ag 21   dz2 \
	OrthoOrbital Ag 21   dxz \
	OrthoOrbital Ag 21   dx2-y2 \
	OrthoOrbital Ag 22   s \
	OrthoOrbital Ag 22   p \
	OrthoOrbital Ag 22   px \
	OrthoOrbital Ag 22   py \
	OrthoOrbital Ag 22   pz \
	OrthoOrbital Ag 22   d \
	OrthoOrbital Ag 22   dxy \
	OrthoOrbital Ag 22   dyz \
	OrthoOrbital Ag 22   dz2 \
	OrthoOrbital Ag 22   dxz \
	OrthoOrbital Ag 22   dx2-y2 \
	OrthoOrbital Ag 23   s \
	OrthoOrbital Ag 23   p \
	OrthoOrbital Ag 23   px \
	OrthoOrbital Ag 23   py \
	OrthoOrbital Ag 23   pz \
	OrthoOrbital Ag 23   d \
	OrthoOrbital Ag 23   dxy \
	OrthoOrbital Ag 23   dyz \
	OrthoOrbital Ag 23   dz2 \
	OrthoOrbital Ag 23   dxz \
	OrthoOrbital Ag 23   dx2-y2 \
	OrthoOrbital Ag 24   s \
	OrthoOrbital Ag 24   p \
	OrthoOrbital Ag 24   px \
	OrthoOrbital Ag 24   py \
	OrthoOrbital Ag 24   pz \
	OrthoOrbital Ag 24   d \
	OrthoOrbital Ag 24   dxy \
	OrthoOrbital Ag 24   dyz \
	OrthoOrbital Ag 24   dz2 \
	OrthoOrbital Ag 24   dxz \
	OrthoOrbital Ag 24   dx2-y2 \
	OrthoOrbital Ag 25   s \
	OrthoOrbital Ag 25   p \
	OrthoOrbital Ag 25   px \
	OrthoOrbital Ag 25   py \
	OrthoOrbital Ag 25   pz \
	OrthoOrbital Ag 25   d \
	OrthoOrbital Ag 25   dxy \
	OrthoOrbital Ag 25   dyz \
	OrthoOrbital Ag 25   dz2 \
	OrthoOrbital Ag 25   dxz \
	OrthoOrbital Ag 25   dx2-y2 \
	OrthoOrbital Ag 26   s \
	OrthoOrbital Ag 26   p \
	OrthoOrbital Ag 26   px \
	OrthoOrbital Ag 26   py \
	OrthoOrbital Ag 26   pz \
	OrthoOrbital Ag 26   d \
	OrthoOrbital Ag 26   dxy \
	OrthoOrbital Ag 26   dyz \
	OrthoOrbital Ag 26   dz2 \
	OrthoOrbital Ag 26   dxz \
	OrthoOrbital Ag 26   dx2-y2
dump End ElecDensity KEdensity BandEigs EigStats RhoAtom DOS Kpoints
dump Ionic State IonicPositions Lattice EigStats Ecomponents
dump 
dump 
dump 
dump 
dump 
dump 
dump 
dump 
dump-name jdft.$VAR
elec-cutoff 20
elec-eigen-algo Davidson
elec-ex-corr gga-PBE
elec-initial-magnetization 0.000000 no
elec-n-bands 297
elec-smearing Fermi 0.001
electronic-minimize  \
	dirUpdateScheme      FletcherReeves \
	linminMethod         DirUpdateRecommended \
	nIterations          100 \
	history              15 \
	knormThreshold       0 \
	energyDiffThreshold  1e-07 \
	nEnergyDiff          2 \
	alphaTstart          1 \
	alphaTmin            1e-10 \
	updateTestStepSize   yes \
	alphaTreduceFactor   0.1 \
	alphaTincreaseFactor 3 \
	nAlphaAdjustMax      3 \
	wolfeEnergy          0.0001 \
	wolfeGradient        0.9 \
	fdTest               no
exchange-regularization WignerSeitzTruncated
fluid LinearPCM 298.000000 1.013250
fluid-anion F- 0.5 MeanFieldLJ \
	epsBulk 1 \
	pMol 0 \
	epsInf 1 \
	Pvap 0 \
	sigmaBulk 0 \
	Rvdw 2.24877 \
	Res 0 \
	tauNuc 343133
fluid-cation Na+ 0.5 MeanFieldLJ \
	epsBulk 1 \
	pMol 0 \
	epsInf 1 \
	Pvap 0 \
	sigmaBulk 0 \
	Rvdw 2.19208 \
	Res 0 \
	tauNuc 343133
fluid-ex-corr lda-TF lda-PZ
fluid-gummel-loop 10 1.000000e-05
fluid-minimize  \
	dirUpdateScheme      PolakRibiere \
	linminMethod         DirUpdateRecommended \
	nIterations          400 \
	history              15 \
	knormThreshold       1e-11 \
	energyDiffThreshold  0 \
	nEnergyDiff          2 \
	alphaTstart          1 \
	alphaTmin            1e-10 \
	updateTestStepSize   yes \
	alphaTreduceFactor   0.1 \
	alphaTincreaseFactor 3 \
	nAlphaAdjustMax      6 \
	wolfeEnergy          0.0001 \
	wolfeGradient        0.9 \
	fdTest               no
fluid-solvent H2O 55.338 ScalarEOS \
	epsBulk 78.4 \
	pMol 0.92466 \
	epsInf 1.77 \
	Pvap 1.06736e-10 \
	sigmaBulk 4.62e-05 \
	Rvdw 2.61727 \
	Res 1.42 \
	tauNuc 343133 \
	poleEl 15 7 1
forces-output-coords Positions
ion Ag  -0.000003000000000  10.630373000000001  24.981363999999996 1
ion Ag   0.000000000000000   4.252144000000000  20.729219999999998 1
ion Ag   3.832835000000001   7.441265000000000  22.855291999999992 1
ion Ag   3.832838000000000   1.063036000000000  18.603148999999995 1
ion Ag  -0.000003000000000   8.504301000000000  14.351004999999999 1
ion Ag   0.000000000000000   2.126072000000000  10.098861999999999 1
ion Ag   3.832835000000001  11.693408000000000  16.477076999999998 1
ion Ag   3.832838000000001   5.315179000000000  12.224932999999998 1
ion Ag  -0.000003000000000  12.756444000000000   7.972789999999999 1
ion Ag   0.000000000000000   6.378215000000000   3.720645999999999 1
ion Ag  -3.832833000000000  13.819480000000000  27.107435999999996 1
ion Ag   3.832835000000001   9.567337000000000   5.846717999999999 1
ion Ag   3.832838000000001   3.189108000000000   1.594575000000000 1
ion Ag   3.832831000000000  12.756444000000000  21.792297999999995 1
ion Ag   3.832835000000000   6.378215000000000  17.540070999999998 1
ion Ag   0.000001000000000   9.567337000000000  19.666142999999998 1
ion Ag   0.000004000000000   3.189108000000000  15.413998999999997 1
ion Ag   3.832831000000001  10.630373000000001  11.161855999999998 1
ion Ag   3.832834000000000   4.252144000000000   6.909711999999998 1
ion Ag   0.000001000000000  13.819480000000000  13.287927999999999 1
ion Ag   0.000001000000000   7.441265000000000   9.035783999999998 1
ion Ag   0.000004000000000   1.063036000000000   4.783640999999999 1
ion Ag   3.832831000000000   8.504301000000000   0.531497000000000 1
ion Ag   3.832834000000001   2.126072000000000  23.918368999999995 1
ion Ag   0.000001000000001  11.693408000000000   2.657569000000000 1
ion Ag   0.000004000000000   5.315179000000000  26.044440999999996 1
ion-species /projects/musgravc/apps/jdftx-1.6.0/build/pseudopotentials/GBRV_v1.5/$ID_pbe_v1.uspp
ion-species /projects/musgravc/apps/jdftx-1.6.0/build/pseudopotentials/GBRV_v1.5/$ID_pbe_v1.2.uspp
ion-species /projects/musgravc/apps/jdftx-1.6.0/build/pseudopotentials/GBRV_v1.5/$ID_pbe_v1.4.uspp
ion-species /projects/musgravc/apps/jdftx-1.6.0/build/pseudopotentials/GBRV_v1.5/$ID_pbe_v1.5.uspp
ion-width Ecut
ionic-minimize  \
	dirUpdateScheme      L-BFGS \
	linminMethod         DirUpdateRecommended \
	nIterations          100 \
	history              15 \
	knormThreshold       0.0001 \
	energyDiffThreshold  1e-06 \
	nEnergyDiff          2 \
	alphaTstart          1 \
	alphaTmin            1e-10 \
	updateTestStepSize   yes \
	alphaTreduceFactor   0.1 \
	alphaTincreaseFactor 3 \
	nAlphaAdjustMax      3 \
	wolfeEnergy          0.0001 \
	wolfeGradient        0.9 \
	fdTest               no
kpoint   0.000000000000   0.000000000000   0.000000000000  1.00000000000000
kpoint-folding 9 4 1 
latt-move-scale 0 0 0
latt-scale 1 1 1 
lattice  \
	   7.665668000000000   -3.832833000000000    0.000000000000000  \
	   0.000000000000000   13.819480000000000    0.000000000000000  \
	   0.000000000000000    0.000000000000000   82.916881000000004 
lattice-minimize  \
	dirUpdateScheme      L-BFGS \
	linminMethod         DirUpdateRecommended \
	nIterations          0 \
	history              15 \
	knormThreshold       0 \
	energyDiffThreshold  1e-06 \
	nEnergyDiff          2 \
	alphaTstart          1 \
	alphaTmin            1e-10 \
	updateTestStepSize   yes \
	alphaTreduceFactor   0.1 \
	alphaTincreaseFactor 3 \
	nAlphaAdjustMax      3 \
	wolfeEnergy          0.0001 \
	wolfeGradient        0.9 \
	fdTest               no
lcao-params 30 1e-06 0.001
pcm-variant CANDLE
spintype z-spin
subspace-rotation-factor 1 yes
symmetries none
symmetry-threshold 0.0001
target-mu -0.0978 no

van-der-waals D3


Applied RMS atom displacement 0 bohrs to make symmetries exact.

---------- Initializing the Grid ----------
R = 
[      7.66567     -3.83283            0  ]
[            0      13.8195            0  ]
[            0            0      82.9169  ]
unit cell volume = 8783.85
G =
[   0.819653   0.227331         -0  ]
[          0   0.454661          0  ]
[          0         -0  0.0757769  ]
Minimum fftbox size, Smin = [  32  60  336  ]
Chosen fftbox size, S = [  32  60  336  ]

---------- Exchange Correlation functional ----------
Initalized PBE GGA exchange.
Initalized PBE GGA correlation.

---------- Setting up pseudopotentials ----------
Width of ionic core gaussian charges (only for fluid interactions / plotting) set to 0.397384

Reading pseudopotential file '/projects/musgravc/apps/jdftx-1.6.0/build/pseudopotentials/GBRV_v1.5/ag_pbe_v1.4.uspp':
  Title: Ag.  Created by USPP 7.3.6 on 1-4-15
  Reference state energy: -147.606242.  19 valence electrons in orbitals:
    |400>  occupation: 2  eigenvalue: -3.637437
    |410>  occupation: 6  eigenvalue: -2.297267
    |420>  occupation: 10  eigenvalue: -0.417763
    |500>  occupation: 0.5  eigenvalue: -0.283525
    |510>  occupation: 0  eigenvalue: -0.122889
  lMax: 2  lLocal: 0  QijEcut: 5.5
  6 projectors sampled on a log grid with 717 points:
    l: 0  eig: -0.283528  rCut: 1.5
    l: 0  eig: -3.637440  rCut: 1.5
    l: 1  eig: -0.122892  rCut: 1.5
    l: 1  eig: -2.297267  rCut: 1.5
    l: 2  eig: -0.417762  rCut: 1.7
    l: 2  eig: -1.000000  rCut: 1.7
  Partial core density with radius 1.2
  Transforming core density to a uniform radial grid of dG=0.02 with 1263 points.
  Transforming local potential to a uniform radial grid of dG=0.02 with 1263 points.
  Transforming nonlocal projectors to a uniform radial grid of dG=0.02 with 432 points.
  Transforming density augmentations to a uniform radial grid of dG=0.02 with 1263 points.
  Transforming atomic orbitals to a uniform radial grid of dG=0.02 with 432 points.
  Core radius for overlap checks: 1.70 bohrs.

Initialized 1 species with 26 total atoms.

Folded 1 k-points by 9x4x1 to 36 k-points.

---------- Setting up k-points, bands, fillings ----------
No reducable k-points. 
Computing the number of bands and number of electrons
Calculating initial fillings.
nElectrons: 494.000000   nBands: 297   nStates: 72

----- Setting up reduced wavefunction bases (one per k-point) -----
average nbasis = 37531.861 , ideal nbasis = 37525.255

----- Initializing Supercell corresponding to k-point mesh -----
Lattice vector linear combinations in supercell:
[   9   0   0  ]
[   0   4   0  ]
[   0   0   1  ]
Supercell lattice vectors:
[  68.991  -15.3313  0  ]
[  0  55.2779  0  ]
[  0  0  82.9169  ]

Initializing DFT-D3 calculator:
	Parameters set for gga-PBE functional
	s6:  1.000  s_r6:  1.217
	s8:  0.722  s_r8:  1.000
	Per-atom parameters loaded for:
	Ag:  sqrtQ[a0]:  5.443  Rcov[a0]:  2.173  CN: [ 0.00 0.97 ]

Initializing DFT-D2 calculator for fluid / solvation:
	Ag:  C6:  427.91 Eh-a0^6  R0: 3.097 a0

---------- Setting up ewald sum ----------
Optimum gaussian width for ewald sums = 4.782365 bohr.
Real space sum over 935 unit cells with max indices [  8  5  2  ]
Reciprocal space sum over 6669 terms with max indices [  4  6  28  ]

Computing DFT-D3 correction:
# coordination-number Ag 6.892 9.199 8.421 9.209 9.211 9.210 9.211 9.211 9.204 8.396 4.628 9.178 5.388 9.178 9.210 9.204 9.211 9.211 9.199 9.211 9.209 8.421 4.627 8.396 6.892 5.388
# diagonal-C6 Ag 268.61 268.61 268.61 268.61 268.61 268.61 268.61 268.61 268.61 268.61 268.61 268.61 268.61 268.61 268.61 268.61 268.61 268.61 268.61 268.61 268.61 268.61 268.61 268.61 268.61 268.61
EvdW_6 =   -0.170292
EvdW_8 =   -0.230198

---------- Allocating electronic variables ----------
Initializing wave functions:  linear combination of atomic orbitals
Ag pseudo-atom occupations:   s ( 2 1 )  p ( 6 0 )  d ( 10 )
	FillingsUpdate:  mu: -0.097800000  nElectrons: 494.000000  magneticMoment: [ Abs: 0.00093  Tot: +0.00003 ]
LCAOMinimize: Iter:   0  G: -3789.1056921660497210  |grad|_K:  7.155e-04  alpha:  1.000e+00
	FillingsUpdate:  mu: -0.097800000  nElectrons: 494.000000  magneticMoment: [ Abs: 0.00081  Tot: +0.00003 ]
LCAOMinimize: Iter:   1  G: -3789.1850353360819099  |grad|_K:  7.487e-04  alpha:  1.109e-01  linmin:  8.398e-02  cgtest: -6.138e-01  t[s]:    236.65
	FillingsUpdate:  mu: -0.097800000  nElectrons: 494.000000  magneticMoment: [ Abs: 0.00073  Tot: +0.00004 ]
LCAOMinimize: Iter:   2  G: -3789.2007628353781001  |grad|_K:  8.849e-04  alpha:  4.097e-02  linmin:  1.565e-03  cgtest:  9.879e-01  t[s]:    329.85
	FillingsUpdate:  mu: -0.097800000  nElectrons: 494.000000  magneticMoment: [ Abs: 0.00071  Tot: +0.00003 ]
LCAOMinimize: Iter:   3  G: -3789.3908973396687543  |grad|_K:  1.701e-04  alpha:  5.754e-02  linmin: -7.471e-02  cgtest:  1.078e-01  t[s]:    422.56
LCAOMinimize: 	Predicted alpha/alphaT>3.000000, increasing alphaT to 1.726243e-01.
	FillingsUpdate:  mu: -0.097800000  nElectrons: 494.000000  magneticMoment: [ Abs: 0.00059  Tot: +0.00003 ]
LCAOMinimize: Iter:   4  G: -3789.4437810109593556  |grad|_K:  9.941e-05  alpha:  4.101e-01  linmin: -2.571e-02  cgtest:  7.817e-02  t[s]:    539.15
	FillingsUpdate:  mu: -0.097800000  nElectrons: 494.000000  magneticMoment: [ Abs: 0.00058  Tot: +0.00002 ]
LCAOMinimize: Iter:   5  G: -3789.4486252393758150  |grad|_K:  7.612e-05  alpha:  1.102e-01  linmin:  1.428e-03  cgtest: -8.903e-02  t[s]:    632.56
	FillingsUpdate:  mu: -0.097800000  nElectrons: 494.000000  magneticMoment: [ Abs: 0.00056  Tot: +0.00002 ]
LCAOMinimize: Iter:   6  G: -3789.4513133996906618  |grad|_K:  1.848e-05  alpha:  1.134e-01  linmin: -7.021e-03  cgtest:  3.196e-01  t[s]:    724.88
LCAOMinimize: Encountered beta<0, resetting CG.
	FillingsUpdate:  mu: -0.097800000  nElectrons: 494.000000  magneticMoment: [ Abs: 0.00056  Tot: +0.00002 ]
LCAOMinimize: Iter:   7  G: -3789.4514026826250301  |grad|_K:  1.886e-05  alpha:  6.124e-02  linmin:  4.560e-03  cgtest: -4.028e-02  t[s]:    817.23
	FillingsUpdate:  mu: -0.097800000  nElectrons: 494.000000  magneticMoment: [ Abs: 0.00056  Tot: +0.00002 ]
LCAOMinimize: Iter:   8  G: -3789.4514847470945824  |grad|_K:  1.387e-05  alpha:  5.782e-02  linmin:  1.314e-02  cgtest: -4.422e-02  t[s]:    910.41
	FillingsUpdate:  mu: -0.097800000  nElectrons: 494.000000  magneticMoment: [ Abs: 0.00056  Tot: +0.00002 ]
LCAOMinimize: Iter:   9  G: -3789.4515523898517131  |grad|_K:  8.130e-06  alpha:  1.188e-01  linmin:  7.390e-02  cgtest: -1.672e-01  t[s]:   1003.92
	FillingsUpdate:  mu: -0.097800000  nElectrons: 494.000000  magneticMoment: [ Abs: 0.00056  Tot: +0.00002 ]
LCAOMinimize: Iter:  10  G: -3789.4515745219778182  |grad|_K:  1.205e-05  alpha:  1.368e-01  linmin:  2.843e-03  cgtest:  3.255e-01  t[s]:   1096.86
	FillingsUpdate:  mu: -0.097800000  nElectrons: 494.000000  magneticMoment: [ Abs: 0.00056  Tot: +0.00002 ]
LCAOMinimize: Iter:  11  G: -3789.4515962850450705  |grad|_K:  5.030e-06  alpha:  3.850e-02  linmin: -1.125e-03  cgtest: -2.233e-01  t[s]:   1189.68
	FillingsUpdate:  mu: -0.097800000  nElectrons: 494.000000  magneticMoment: [ Abs: 0.00056  Tot: +0.00002 ]
LCAOMinimize: Iter:  12  G: -3789.4516014157925383  |grad|_K:  2.357e-06  alpha:  4.591e-02  linmin: -9.313e-02  cgtest:  6.998e-01  t[s]:   1282.81
LCAOMinimize: Encountered beta<0, resetting CG.
	FillingsUpdate:  mu: -0.097800000  nElectrons: 494.000000  magneticMoment: [ Abs: 0.00056  Tot: +0.00002 ]
LCAOMinimize: Iter:  13  G: -3789.4516024555587137  |grad|_K:  1.787e-06  alpha:  4.552e-02  linmin: -1.716e-01  cgtest:  9.552e-01  t[s]:   1375.65
LCAOMinimize: Encountered beta<0, resetting CG.
	FillingsUpdate:  mu: -0.097800000  nElectrons: 494.000000  magneticMoment: [ Abs: 0.00056  Tot: +0.00002 ]
LCAOMinimize: Iter:  14  G: -3789.4516028812754485  |grad|_K:  1.477e-06  alpha:  3.813e-02  linmin: -1.843e-01  cgtest:  9.666e-01  t[s]:   1468.53
LCAOMinimize: Encountered beta<0, resetting CG.
	FillingsUpdate:  mu: -0.097800000  nElectrons: 494.000000  magneticMoment: [ Abs: 0.00056  Tot: +0.00002 ]
LCAOMinimize: Iter:  15  G: -3789.4516030747408877  |grad|_K:  1.286e-06  alpha:  2.914e-02  linmin: -1.902e-01  cgtest:  9.809e-01  t[s]:   1561.42
LCAOMinimize: Encountered beta<0, resetting CG.
LCAOMinimize: Converged (|Delta G|<1.000000e-06 for 2 iters).
----- createFluidSolver() ----- (Fluid-side solver setup)
   Initializing fluid molecule 'H2O'
     Initializing site 'O'
       Electron density: proportional to exp(-r/0.36935)*erfc((r-0.51523)/0.36823) with norm 6.826
       Charge density: gaussian nuclear width 0.478731 with net site charge 0.826
       Polarizability: cuspless exponential with width 0.32 and norm 3.73
       Hard sphere radius: 2.57003 bohrs
       Positions in reference frame:
         [ +0.000000 +0.000000 +0.000000 ]
     Initializing site 'H'
       Electron density: proportional to exp(-r/0.34641)*erfc((r-0)/0.390882) with norm 0.587
       Charge density: gaussian nuclear width 0.377945 with net site charge -0.413
       Polarizability: cuspless exponential with width 0.39 and norm 3.3
       Positions in reference frame:
         [ +0.000000 -1.441945 +1.122523 ]
         [ +0.000000 +1.441945 +1.122523 ]
     Net charge: 0   dipole magnitude: 0.927204
     Initializing spherical shell mfKernel with radius 2.61727 Bohr
     deltaS corrections:
       site 'O': -7.54299
       site 'H': -6.83917
   Initializing fluid molecule 'Na+'
     Initializing site 'Na'
       Electron density: proportional to exp(-r/0.19682)*erfc((r-0.71491)/0.41314) with norm 8.1383
       Charge density: gaussian nuclear width 0.365347 with net site charge -1
       Hard sphere radius: 1.86327 bohrs
       Positions in reference frame:
         [ +0.000000 +0.000000 +0.000000 ]
     Net charge: -1   dipole magnitude: 0
     Initializing gaussian mfKernel with width: 1.55004 Bohr
     deltaS corrections:
       site 'Na': -22.3555
   Initializing fluid molecule 'F-'
     Initializing site 'F'
       Electron density: proportional to exp(-r/0.38886)*erfc((r-0)/0.438782) with norm 8
       Charge density: gaussian nuclear width 0.374796 with net site charge 1
       Hard sphere radius: 2.39995 bohrs
       Positions in reference frame:
         [ +0.000000 +0.000000 +0.000000 ]
     Net charge: 1   dipole magnitude: 0
     Initializing gaussian mfKernel with width: 1.59012 Bohr
     deltaS corrections:
       site 'F': -9.04335

Correction to mu due to finite nuclear width = -0.055801
   Cavity determined by nc: 0.00142 and sigma: 0.707107
   Nonlocal vdW cavity from gaussian model electron density with norm = 8 and sigma = 0.993594 bohr
   Charge asymmetry in cavity with sensitivity pCavity = 36.5 e-bohr/Eh
   Electrostatic cavity expanded by eta = 1.46 bohrs
   Weighted density cavitation model constrained by Nbulk: 0.0049383 bohr^-3, Pvap: 3.14029 kPa, Rvdw: 2.61727 bohr and sigmaBulk: 4.62e-05 Eh/bohr^2 at T: 298 K.
   Weighted density dispersion model using vdW pair potentials with single solvent site with sqrtC6eff: 0.77 SI.


---- Citations for features of the code used in this run ----

   Software package:
      R. Sundararaman, K. Letchworth-Weaver, K.A. Schwarz, D. Gunceler, Y. Ozhabes and T.A. Arias, 'JDFTx: software for joint density-functional theory', SoftwareX 6, 278 (2017)

   gga-PBE exchange-correlation functional:
      J.P. Perdew, K. Burke and M. Ernzerhof, Phys. Rev. Lett. 77, 3865 (1996)

   Pseudopotentials:
      KF Garrity, JW Bennett, KM Rabe and D Vanderbilt, Comput. Mater. Sci. 81, 446 (2014)

   DFT-D3 dispersion correction:
      S. Grimme, J. Antony, S. Ehrlich and H. Krieg, J. Chem. Phys. 132, 154104 (2010)

   DFT-D2 dispersion correction:
      S. Grimme, J. Comput. Chem. 27, 1787 (2006)

   Charge-asymmetric nonlocally-determined local-electric (CANDLE) solvation model:
      R. Sundararaman and W.A. Goddard III, J. Chem. Phys. 142, 064107 (2015)

   Total energy minimization with Auxiliary Hamiltonian:
      C. Freysoldt, S. Boeck, and J. Neugebauer, Phys. Rev. B 79, 241103(R) (2009)

   Grand-canonical (fixed-potential) DFT:
      R. Sundararaman, W. A. Goddard III and T. A. Arias, J. Chem. Phys. 146, 114104 (2017)

   Linear-tetrahedron sampling for density of states:
      G. Lehmann and M. Taut, Phys. status solidi (b) 54, 469 (1972)

This list may not be complete. Please suggest additional citations or
report any other bugs at https://github.com/shankar1729/jdftx/issues

Initialization completed successfully at t[s]:   1584.71


Computing DFT-D3 correction:
# coordination-number Ag 6.892 9.199 8.421 9.209 9.211 9.210 9.211 9.211 9.204 8.396 4.628 9.178 5.388 9.178 9.210 9.204 9.211 9.211 9.199 9.211 9.209 8.421 4.627 8.396 6.892 5.388
# diagonal-C6 Ag 268.61 268.61 268.61 268.61 268.61 268.61 268.61 268.61 268.61 268.61 268.61 268.61 268.61 268.61 268.61 268.61 268.61 268.61 268.61 268.61 268.61 268.61 268.61 268.61 268.61 268.61
EvdW_6 =   -0.170292
EvdW_8 =   -0.230198
Fluid solver invoked on fresh (random / LCAO) wavefunctions
Running a vacuum solve first:

-------- Initial electronic minimization -----------
	FillingsUpdate:  mu: +0.111564079  nElectrons: 494.000000  magneticMoment: [ Abs: 0.00056  Tot: +0.00002 ]
ElecMinimize: Iter:   0  G: -3789.451882023182407  |grad|_K:  1.768e-05  alpha:  1.000e+00
	FillingsUpdate:  mu: +0.119746726  nElectrons: 494.000000  magneticMoment: [ Abs: 0.00043  Tot: +0.00002 ]
	SubspaceRotationAdjust: set factor to 1
ElecMinimize: Iter:   1  G: -3789.559974705949571  |grad|_K:  1.209e-05  alpha:  4.302e-01  linmin:  1.716e-05  t[s]:   1827.47
	FillingsUpdate:  mu: +0.102953793  nElectrons: 494.000000  magneticMoment: [ Abs: 0.00033  Tot: +0.00002 ]
	SubspaceRotationAdjust: set factor to 0.899
ElecMinimize: Iter:   2  G: -3789.592064525827027  |grad|_K:  6.703e-06  alpha:  2.720e-01  linmin: -8.523e-06  t[s]:   1981.17
	FillingsUpdate:  mu: +0.122544516  nElectrons: 494.000000  magneticMoment: [ Abs: 0.00030  Tot: +0.00003 ]
	SubspaceRotationAdjust: set factor to 0.643
ElecMinimize: Iter:   3  G: -3789.595862719922025  |grad|_K:  7.860e-06  alpha:  1.066e-01  linmin:  4.807e-05  t[s]:   2135.71
	FillingsUpdate:  mu: +0.128574889  nElectrons: 494.000000  magneticMoment: [ Abs: 0.00026  Tot: +0.00003 ]
	SubspaceRotationAdjust: set factor to 0.402
ElecMinimize: Iter:   4  G: -3789.599133310955040  |grad|_K:  7.004e-06  alpha:  6.659e-02  linmin:  1.470e-06  t[s]:   2289.43
	FillingsUpdate:  mu: +0.116325553  nElectrons: 494.000000  magneticMoment: [ Abs: 0.00020  Tot: +0.00002 ]
	SubspaceRotationAdjust: set factor to 0.666
ElecMinimize: Iter:   5  G: -3789.603532007158719  |grad|_K:  2.610e-06  alpha:  1.116e-01  linmin:  3.598e-05  t[s]:   2444.18
	FillingsUpdate:  mu: +0.111715418  nElectrons: 494.000000  magneticMoment: [ Abs: 0.00017  Tot: +0.00002 ]
	SubspaceRotationAdjust: set factor to 0.38
ElecMinimize: Iter:   6  G: -3789.604794626086459  |grad|_K:  4.455e-06  alpha:  2.315e-01  linmin:  2.462e-05  t[s]:   2598.20
	FillingsUpdate:  mu: +0.111566642  nElectrons: 494.000000  magneticMoment: [ Abs: 0.00014  Tot: +0.00002 ]
	SubspaceRotationAdjust: set factor to 0.3
ElecMinimize: Iter:   7  G: -3789.605804296179485  |grad|_K:  1.781e-06  alpha:  6.334e-02  linmin:  4.231e-06  t[s]:   2752.84
ElecMinimize: 	Predicted alpha/alphaT>3.000000, increasing alphaT to 1.900076e-01.
	FillingsUpdate:  mu: +0.119945385  nElectrons: 494.000000  magneticMoment: [ Abs: 0.00011  Tot: +0.00002 ]
	SubspaceRotationAdjust: set factor to 0.224
ElecMinimize: Iter:   8  G: -3789.606394235921471  |grad|_K:  1.339e-06  alpha:  2.307e-01  linmin: -1.355e-05  t[s]:   2944.47
	FillingsUpdate:  mu: +0.118299972  nElectrons: 494.000000  magneticMoment: [ Abs: 0.00009  Tot: +0.00002 ]
	SubspaceRotationAdjust: set factor to 0.206
ElecMinimize: Iter:   9  G: -3789.606806271756795  |grad|_K:  1.095e-06  alpha:  2.849e-01  linmin:  1.684e-05  t[s]:   3099.67
	FillingsUpdate:  mu: +0.116251892  nElectrons: 494.000000  magneticMoment: [ Abs: 0.00008  Tot: +0.00002 ]
	SubspaceRotationAdjust: set factor to 0.138
ElecMinimize: Iter:  10  G: -3789.606958599677455  |grad|_K:  7.068e-07  alpha:  1.576e-01  linmin: -5.980e-06  t[s]:   3254.95
	FillingsUpdate:  mu: +0.115427169  nElectrons: 494.000000  magneticMoment: [ Abs: 0.00006  Tot: +0.00002 ]
	SubspaceRotationAdjust: set factor to 0.174
ElecMinimize: Iter:  11  G: -3789.607085494785224  |grad|_K:  5.430e-07  alpha:  3.155e-01  linmin:  2.232e-05  t[s]:   3409.24
	FillingsUpdate:  mu: +0.116745680  nElectrons: 494.000000  magneticMoment: [ Abs: 0.00006  Tot: +0.00002 ]
	SubspaceRotationAdjust: set factor to 0.169
ElecMinimize: Iter:  12  G: -3789.607158417986739  |grad|_K:  4.139e-07  alpha:  3.079e-01  linmin:  2.447e-06  t[s]:   3564.17
	FillingsUpdate:  mu: +0.117489095  nElectrons: 494.000000  magneticMoment: [ Abs: 0.00005  Tot: +0.00001 ]
	SubspaceRotationAdjust: set factor to 0.136
ElecMinimize: Iter:  13  G: -3789.607190673264085  |grad|_K:  3.231e-07  alpha:  2.337e-01  linmin:  5.942e-08  t[s]:   3718.15
	FillingsUpdate:  mu: +0.117347118  nElectrons: 494.000000  magneticMoment: [ Abs: 0.00005  Tot: +0.00001 ]
	SubspaceRotationAdjust: set factor to 0.179
ElecMinimize: Iter:  14  G: -3789.607219732800331  |grad|_K:  2.235e-07  alpha:  3.460e-01  linmin:  1.052e-05  t[s]:   3872.31
	FillingsUpdate:  mu: +0.117055864  nElectrons: 494.000000  magneticMoment: [ Abs: 0.00004  Tot: +0.00001 ]
	SubspaceRotationAdjust: set factor to 0.178
ElecMinimize: Iter:  15  G: -3789.607234634009274  |grad|_K:  2.205e-07  alpha:  3.714e-01  linmin:  4.579e-06  t[s]:   4026.46
	FillingsUpdate:  mu: +0.117169838  nElectrons: 494.000000  magneticMoment: [ Abs: 0.00004  Tot: +0.00001 ]
	SubspaceRotationAdjust: set factor to 0.157
ElecMinimize: Iter:  16  G: -3789.607244534089205  |grad|_K:  1.734e-07  alpha:  2.529e-01  linmin:  1.184e-07  t[s]:   4180.70
	FillingsUpdate:  mu: +0.117618918  nElectrons: 494.000000  magneticMoment: [ Abs: 0.00004  Tot: +0.00001 ]
	SubspaceRotationAdjust: set factor to 0.174
ElecMinimize: Iter:  17  G: -3789.607253449090422  |grad|_K:  1.486e-07  alpha:  3.682e-01  linmin:  2.022e-06  t[s]:   4335.19
	FillingsUpdate:  mu: +0.117641463  nElectrons: 494.000000  magneticMoment: [ Abs: 0.00003  Tot: +0.00001 ]
	SubspaceRotationAdjust: set factor to 0.196
ElecMinimize: Iter:  18  G: -3789.607260338128071  |grad|_K:  1.306e-07  alpha:  3.881e-01  linmin:  3.329e-06  t[s]:   4489.85
	FillingsUpdate:  mu: +0.117467216  nElectrons: 494.000000  magneticMoment: [ Abs: 0.00003  Tot: +0.00001 ]
	SubspaceRotationAdjust: set factor to 0.164
ElecMinimize: Iter:  19  G: -3789.607264336476419  |grad|_K:  1.181e-07  alpha:  2.915e-01  linmin:  5.562e-07  t[s]:   4643.92
	FillingsUpdate:  mu: +0.117451055  nElectrons: 494.000000  magneticMoment: [ Abs: 0.00002  Tot: +0.00000 ]
	SubspaceRotationAdjust: set factor to 0.146
ElecMinimize: Iter:  20  G: -3789.607267200646675  |grad|_K:  8.463e-08  alpha:  2.550e-01  linmin:  7.321e-07  t[s]:   4798.63
	FillingsUpdate:  mu: +0.117668245  nElectrons: 494.000000  magneticMoment: [ Abs: 0.00002  Tot: +0.00000 ]
	SubspaceRotationAdjust: set factor to 0.159
ElecMinimize: Iter:  21  G: -3789.607269385074233  |grad|_K:  6.474e-08  alpha:  3.790e-01  linmin:  5.628e-07  t[s]:   4952.85
	FillingsUpdate:  mu: +0.117693068  nElectrons: 494.000000  magneticMoment: [ Abs: 0.00001  Tot: +0.00000 ]
	SubspaceRotationAdjust: set factor to 0.154
ElecMinimize: Iter:  22  G: -3789.607270475371024  |grad|_K:  5.318e-08  alpha:  3.230e-01  linmin: -3.909e-08  t[s]:   5106.75
	FillingsUpdate:  mu: +0.117612774  nElectrons: 494.000000  magneticMoment: [ Abs: 0.00001  Tot: +0.00000 ]
	SubspaceRotationAdjust: set factor to 0.13
	SubspaceRotationAdjust: resetting CG because factor has changed by 0.12959
ElecMinimize: 	State modified externally: resetting search direction.
ElecMinimize: Iter:  23  G: -3789.607271136350846  |grad|_K:  3.943e-08  alpha:  2.898e-01
	FillingsUpdate:  mu: +0.117628817  nElectrons: 494.000000  magneticMoment: [ Abs: 0.00001  Tot: +0.00000 ]
	SubspaceRotationAdjust: set factor to 0.198
ElecMinimize: Iter:  24  G: -3789.607271482232591  |grad|_K:  2.525e-08  alpha:  2.762e-01  linmin:  2.460e-06  t[s]:   5494.62
	FillingsUpdate:  mu: +0.117631098  nElectrons: 494.000000  magneticMoment: [ Abs: 0.00001  Tot: +0.00000 ]
	SubspaceRotationAdjust: set factor to 0.165
ElecMinimize: Iter:  25  G: -3789.607271715142360  |grad|_K:  2.592e-08  alpha:  4.520e-01  linmin: -3.579e-06  t[s]:   5648.79
	FillingsUpdate:  mu: +0.117614460  nElectrons: 494.000000  magneticMoment: [ Abs: 0.00001  Tot: +0.00000 ]
	SubspaceRotationAdjust: set factor to 0.111
ElecMinimize: Iter:  26  G: -3789.607271886066428  |grad|_K:  2.088e-08  alpha:  3.159e-01  linmin:  3.786e-07  t[s]:   5803.55
	FillingsUpdate:  mu: +0.117605698  nElectrons: 494.000000  magneticMoment: [ Abs: 0.00001  Tot: +0.00000 ]
	SubspaceRotationAdjust: set factor to 0.0829
ElecMinimize: Iter:  27  G: -3789.607272006676340  |grad|_K:  1.420e-08  alpha:  3.416e-01  linmin:  2.041e-06  t[s]:   5958.62
	FillingsUpdate:  mu: +0.117613145  nElectrons: 494.000000  magneticMoment: [ Abs: 0.00000  Tot: +0.00000 ]
	SubspaceRotationAdjust: set factor to 0.0853
ElecMinimize: Iter:  28  G: -3789.607272081258543  |grad|_K:  9.165e-09  alpha:  4.655e-01  linmin:  1.878e-06  t[s]:   6113.01
	FillingsUpdate:  mu: +0.117610649  nElectrons: 494.000000  magneticMoment: [ Abs: 0.00000  Tot: +0.00000 ]
	SubspaceRotationAdjust: set factor to 0.0959
ElecMinimize: Iter:  29  G: -3789.607272114470106  |grad|_K:  6.701e-09  alpha:  4.803e-01  linmin: -2.695e-06  t[s]:   6267.29
ElecMinimize: Converged (|Delta G|<1.000000e-07 for 2 iters).
Setting wave functions to eigenvectors of Hamiltonian
Converging empty states (this may take a while): |deigs|: 1.412e-02
Vacuum energy after initial minimize, F = -3789.607272114470106

Shifting auxilliary hamiltonian by -0.215411 to set nElectrons=494.000000

-------- Electronic minimization -----------
	Linear fluid (dielectric constant: 78.4, screening length: 8.12261 Bohr) occupying 0.560917 of unit cell:	Completed after 23 iterations at t[s]:   6866.76
	FillingsUpdate:  mu: -0.097800000  nElectrons: 494.000000  magneticMoment: [ Abs: 0.00000  Tot: +0.00000 ]
ElecMinimize: Iter:   0  G: -3789.608441166910325  |grad|_K:  5.034e-06  alpha:  1.000e+00
	Linear fluid (dielectric constant: 78.4, screening length: 8.12261 Bohr) occupying 0.579317 of unit cell:	Completed after 21 iterations at t[s]:   6996.98
	Linear fluid (dielectric constant: 78.4, screening length: 8.12261 Bohr) occupying 0.562659 of unit cell:	Completed after 19 iterations at t[s]:   7039.75
	FillingsUpdate:  mu: -0.097800000  nElectrons: 494.210090  magneticMoment: [ Abs: 0.00000  Tot: +0.00000 ]
	SubspaceRotationAdjust: set factor to 0.0643
ElecMinimize: Iter:   1  G: -3789.610694431022239  |grad|_K:  4.707e-06  alpha:  2.883e-01  linmin:  1.183e-02  t[s]:   7102.81
	Linear fluid (dielectric constant: 78.4, screening length: 8.12261 Bohr) occupying 0.564103 of unit cell:	Completed after 16 iterations at t[s]:   7160.28
	Linear fluid (dielectric constant: 78.4, screening length: 8.12261 Bohr) occupying 0.565582 of unit cell:	Completed after 15 iterations at t[s]:   7202.42
	FillingsUpdate:  mu: -0.097800000  nElectrons: 494.333635  magneticMoment: [ Abs: 0.00000  Tot: +0.00000 ]
	SubspaceRotationAdjust: set factor to 0.0812
ElecMinimize: Iter:   2  G: -3789.616236514236789  |grad|_K:  2.304e-06  alpha:  5.063e-01  linmin:  1.447e-04  t[s]:   7265.16
	Linear fluid (dielectric constant: 78.4, screening length: 8.12261 Bohr) occupying 0.567287 of unit cell:	Completed after 17 iterations at t[s]:   7322.67
	Linear fluid (dielectric constant: 78.4, screening length: 8.12261 Bohr) occupying 0.567475 of unit cell:	Completed after 12 iterations at t[s]:   7364.61
	FillingsUpdate:  mu: -0.097800000  nElectrons: 494.395358  magneticMoment: [ Abs: 0.00000  Tot: +0.00000 ]
	SubspaceRotationAdjust: set factor to 0.097
ElecMinimize: Iter:   3  G: -3789.618613135732176  |grad|_K:  2.077e-06  alpha:  5.571e-01  linmin: -1.388e-05  t[s]:   7427.19
	Linear fluid (dielectric constant: 78.4, screening length: 8.12261 Bohr) occupying 0.569147 of unit cell:	Completed after 16 iterations at t[s]:   7485.71
	Linear fluid (dielectric constant: 78.4, screening length: 8.12261 Bohr) occupying 0.569373 of unit cell:	Completed after 12 iterations at t[s]:   7527.38
	FillingsUpdate:  mu: -0.097800000  nElectrons: 494.461167  magneticMoment: [ Abs: 0.00000  Tot: +0.00000 ]
	SubspaceRotationAdjust: set factor to 0.108
ElecMinimize: Iter:   4  G: -3789.620788949236612  |grad|_K:  2.484e-06  alpha:  6.253e-01  linmin: -1.004e-05  t[s]:   7590.16
	Linear fluid (dielectric constant: 78.4, screening length: 8.12261 Bohr) occupying 0.577451 of unit cell:	Completed after 18 iterations at t[s]:   7647.81
	Linear fluid (dielectric constant: 78.4, screening length: 8.12261 Bohr) occupying 0.583021 of unit cell:	Completed after 18 iterations at t[s]:   7690.37
	FillingsUpdate:  mu: -0.097800000  nElectrons: 494.823769  magneticMoment: [ Abs: 0.00000  Tot: +0.00000 ]
	SubspaceRotationAdjust: set factor to 0.116
ElecMinimize: Iter:   5  G: -3789.625742387478113  |grad|_K:  3.697e-06  alpha:  1.084e+00  linmin:  1.256e-03  t[s]:   7753.30
	Linear fluid (dielectric constant: 78.4, screening length: 8.12261 Bohr) occupying 0.598307 of unit cell:	Completed after 30 iterations at t[s]:   7813.22
	Linear fluid (dielectric constant: 78.4, screening length: 8.12261 Bohr) occupying 0.591337 of unit cell:	Completed after 30 iterations at t[s]:   7858.06
	FillingsUpdate:  mu: -0.097800000  nElectrons: 495.115398  magneticMoment: [ Abs: 0.00000  Tot: +0.00000 ]
	SubspaceRotationAdjust: set factor to 0.128
ElecMinimize: Iter:   6  G: -3789.629386406832509  |grad|_K:  2.545e-06  alpha:  3.706e-01  linmin: -1.759e-03  t[s]:   7920.90
	Linear fluid (dielectric constant: 78.4, screening length: 8.12261 Bohr) occupying 0.593659 of unit cell:	Completed after 24 iterations at t[s]:   7979.43
	Linear fluid (dielectric constant: 78.4, screening length: 8.12261 Bohr) occupying 0.593530 of unit cell:	Completed after 15 iterations at t[s]:   8022.18
	FillingsUpdate:  mu: -0.097800000  nElectrons: 495.227085  magneticMoment: [ Abs: 0.00000  Tot: +0.00000 ]
	SubspaceRotationAdjust: set factor to 0.14
ElecMinimize: Iter:   7  G: -3789.631481816562882  |grad|_K:  2.010e-06  alpha:  3.439e-01  linmin:  2.621e-05  t[s]:   8085.37
	Linear fluid (dielectric constant: 78.4, screening length: 8.12261 Bohr) occupying 0.594834 of unit cell:	Completed after 22 iterations at t[s]:   8143.88
	Linear fluid (dielectric constant: 78.4, screening length: 8.12261 Bohr) occupying 0.594866 of unit cell:	Completed after 4 iterations at t[s]:   8184.30
	FillingsUpdate:  mu: -0.097800000  nElectrons: 495.303978  magneticMoment: [ Abs: 0.00000  Tot: +0.00000 ]
	SubspaceRotationAdjust: set factor to 0.177
ElecMinimize: Iter:   8  G: -3789.632630575370513  |grad|_K:  1.779e-06  alpha:  3.533e-01  linmin: -2.429e-04  t[s]:   8246.82
	Linear fluid (dielectric constant: 78.4, screening length: 8.12261 Bohr) occupying 0.595968 of unit cell:	Completed after 22 iterations at t[s]:   8305.01
	Linear fluid (dielectric constant: 78.4, screening length: 8.12261 Bohr) occupying 0.596269 of unit cell:	Completed after 18 iterations at t[s]:   8347.64
	FillingsUpdate:  mu: -0.097800000  nElectrons: 495.392333  magneticMoment: [ Abs: 0.00000  Tot: +0.00000 ]
	SubspaceRotationAdjust: set factor to 0.164
ElecMinimize: Iter:   9  G: -3789.633748158254548  |grad|_K:  2.055e-06  alpha:  4.431e-01  linmin:  1.468e-03  t[s]:   8410.75
	Linear fluid (dielectric constant: 78.4, screening length: 8.12261 Bohr) occupying 0.595918 of unit cell:	Completed after 20 iterations at t[s]:   8468.68
	Linear fluid (dielectric constant: 78.4, screening length: 8.12261 Bohr) occupying 0.596051 of unit cell:	Completed after 18 iterations at t[s]:   8511.21
	FillingsUpdate:  mu: -0.097800000  nElectrons: 495.405432  magneticMoment: [ Abs: 0.00000  Tot: +0.00000 ]
	SubspaceRotationAdjust: set factor to 0.225
ElecMinimize: Iter:  10  G: -3789.634423746169432  |grad|_K:  1.530e-06  alpha:  2.241e-01  linmin:  9.203e-05  t[s]:   8574.05
	Linear fluid (dielectric constant: 78.4, screening length: 8.12261 Bohr) occupying 0.595570 of unit cell:	Completed after 18 iterations at t[s]:   8631.82
	Linear fluid (dielectric constant: 78.4, screening length: 8.12261 Bohr) occupying 0.595274 of unit cell:	Completed after 18 iterations at t[s]:   8674.65
	FillingsUpdate:  mu: -0.097800000  nElectrons: 495.393425  magneticMoment: [ Abs: 0.00000  Tot: +0.00000 ]
	SubspaceRotationAdjust: set factor to 0.247
ElecMinimize: Iter:  11  G: -3789.635097087028953  |grad|_K:  1.657e-06  alpha:  3.593e-01  linmin: -2.965e-06  t[s]:   8737.62
	Linear fluid (dielectric constant: 78.4, screening length: 8.12261 Bohr) occupying 0.595531 of unit cell:	Completed after 19 iterations at t[s]:   8795.48
	Linear fluid (dielectric constant: 78.4, screening length: 8.12261 Bohr) occupying 0.595344 of unit cell:	Completed after 19 iterations at t[s]:   8838.50
	FillingsUpdate:  mu: -0.097800000  nElectrons: 495.407408  magneticMoment: [ Abs: 0.00000  Tot: +0.00000 ]
	SubspaceRotationAdjust: set factor to 0.209
ElecMinimize: Iter:  12  G: -3789.635408090391138  |grad|_K:  1.141e-06  alpha:  1.358e-01  linmin: -3.000e-04  t[s]:   8901.24
	Linear fluid (dielectric constant: 78.4, screening length: 8.12261 Bohr) occupying 0.594966 of unit cell:	Completed after 18 iterations at t[s]:   8959.47
	Linear fluid (dielectric constant: 78.4, screening length: 8.12261 Bohr) occupying 0.594586 of unit cell:	Completed after 18 iterations at t[s]:   9002.08
	FillingsUpdate:  mu: -0.097800000  nElectrons: 495.384823  magneticMoment: [ Abs: 0.00000  Tot: +0.00000 ]
	SubspaceRotationAdjust: set factor to 0.281
ElecMinimize: Iter:  13  G: -3789.635699202359774  |grad|_K:  8.931e-07  alpha:  2.683e-01  linmin: -1.370e-04  t[s]:   9064.74
	Linear fluid (dielectric constant: 78.4, screening length: 8.12261 Bohr) occupying 0.593830 of unit cell:	Completed after 19 iterations at t[s]:   9122.22
	Linear fluid (dielectric constant: 78.4, screening length: 8.12261 Bohr) occupying 0.593836 of unit cell:	Completed after 2 iterations at t[s]:   9162.53
	FillingsUpdate:  mu: -0.097800000  nElectrons: 495.359687  magneticMoment: [ Abs: 0.00000  Tot: +0.00000 ]
	SubspaceRotationAdjust: set factor to 0.205
ElecMinimize: Iter:  14  G: -3789.635872878348437  |grad|_K:  1.008e-06  alpha:  2.663e-01  linmin:  2.120e-05  t[s]:   9225.66
	Linear fluid (dielectric constant: 78.4, screening length: 8.12261 Bohr) occupying 0.593922 of unit cell:	Completed after 16 iterations at t[s]:   9284.14
	Linear fluid (dielectric constant: 78.4, screening length: 8.12261 Bohr) occupying 0.593882 of unit cell:	Completed after 16 iterations at t[s]:   9326.35
	FillingsUpdate:  mu: -0.097800000  nElectrons: 495.365881  magneticMoment: [ Abs: 0.00000  Tot: +0.00000 ]
	SubspaceRotationAdjust: set factor to 0.196
ElecMinimize: Iter:  15  G: -3789.635991414605996  |grad|_K:  6.932e-07  alpha:  1.450e-01  linmin: -9.278e-06  t[s]:   9389.12
	Linear fluid (dielectric constant: 78.4, screening length: 8.12261 Bohr) occupying 0.593807 of unit cell:	Completed after 12 iterations at t[s]:   9445.77
	Linear fluid (dielectric constant: 78.4, screening length: 8.12261 Bohr) occupying 0.593692 of unit cell:	Completed after 13 iterations at t[s]:   9487.80
	FillingsUpdate:  mu: -0.097800000  nElectrons: 495.362526  magneticMoment: [ Abs: 0.00000  Tot: +0.00000 ]
	SubspaceRotationAdjust: set factor to 0.234
ElecMinimize: Iter:  16  G: -3789.636132163230286  |grad|_K:  6.210e-07  alpha:  3.630e-01  linmin: -4.707e-06  t[s]:   9551.48
	Linear fluid (dielectric constant: 78.4, screening length: 8.12261 Bohr) occupying 0.593109 of unit cell:	Completed after 19 iterations at t[s]:   9609.43
	Linear fluid (dielectric constant: 78.4, screening length: 8.12261 Bohr) occupying 0.593365 of unit cell:	Completed after 17 iterations at t[s]:   9651.95
	FillingsUpdate:  mu: -0.097800000  nElectrons: 495.350571  magneticMoment: [ Abs: 0.00000  Tot: +0.00000 ]
	SubspaceRotationAdjust: set factor to 0.201
ElecMinimize: Iter:  17  G: -3789.636195822189165  |grad|_K:  5.747e-07  alpha:  2.043e-01  linmin: -3.401e-06  t[s]:   9714.86
	Linear fluid (dielectric constant: 78.4, screening length: 8.12261 Bohr) occupying 0.593412 of unit cell:	Completed after 15 iterations at t[s]:   9771.83
	Linear fluid (dielectric constant: 78.4, screening length: 8.12261 Bohr) occupying 0.593412 of unit cell:	Completed after 0 iterations at t[s]:   9811.56
	FillingsUpdate:  mu: -0.097800000  nElectrons: 495.352863  magneticMoment: [ Abs: 0.00000  Tot: +0.00000 ]
	SubspaceRotationAdjust: set factor to 0.204
ElecMinimize: Iter:  18  G: -3789.636250608826685  |grad|_K:  4.012e-07  alpha:  2.058e-01  linmin: -1.448e-05  t[s]:   9874.61
	Linear fluid (dielectric constant: 78.4, screening length: 8.12261 Bohr) occupying 0.593358 of unit cell:	Completed after 13 iterations at t[s]:   9931.21
	Linear fluid (dielectric constant: 78.4, screening length: 8.12261 Bohr) occupying 0.593327 of unit cell:	Completed after 8 iterations at t[s]:   9972.53
	FillingsUpdate:  mu: -0.097800000  nElectrons: 495.348375  magneticMoment: [ Abs: 0.00000  Tot: +0.00000 ]
	SubspaceRotationAdjust: set factor to 0.252
ElecMinimize: Iter:  19  G: -3789.636293179561108  |grad|_K:  3.385e-07  alpha:  3.276e-01  linmin:  3.842e-07  t[s]:  10035.43
	Linear fluid (dielectric constant: 78.4, screening length: 8.12261 Bohr) occupying 0.593042 of unit cell:	Completed after 18 iterations at t[s]:  10093.01
	Linear fluid (dielectric constant: 78.4, screening length: 8.12261 Bohr) occupying 0.593115 of unit cell:	Completed after 15 iterations at t[s]:  10135.21
	FillingsUpdate:  mu: -0.097800000  nElectrons: 495.338377  magneticMoment: [ Abs: 0.00000  Tot: +0.00000 ]
	SubspaceRotationAdjust: set factor to 0.233
ElecMinimize: Iter:  20  G: -3789.636315629433284  |grad|_K:  3.575e-07  alpha:  2.434e-01  linmin: -1.885e-06  t[s]:  10198.12
	Linear fluid (dielectric constant: 78.4, screening length: 8.12261 Bohr) occupying 0.593133 of unit cell:	Completed after 15 iterations at t[s]:  10255.15
	Linear fluid (dielectric constant: 78.4, screening length: 8.12261 Bohr) occupying 0.593129 of unit cell:	Completed after 11 iterations at t[s]:  10296.83
	FillingsUpdate:  mu: -0.097800000  nElectrons: 495.336744  magneticMoment: [ Abs: 0.00000  Tot: +0.00000 ]
	SubspaceRotationAdjust: set factor to 0.218
ElecMinimize: Iter:  21  G: -3789.636335901458096  |grad|_K:  2.678e-07  alpha:  1.966e-01  linmin:  1.298e-05  t[s]:  10359.60
	Linear fluid (dielectric constant: 78.4, screening length: 8.12261 Bohr) occupying 0.593045 of unit cell:	Completed after 12 iterations at t[s]:  10416.14
	Linear fluid (dielectric constant: 78.4, screening length: 8.12261 Bohr) occupying 0.592982 of unit cell:	Completed after 9 iterations at t[s]:  10458.10
	FillingsUpdate:  mu: -0.097800000  nElectrons: 495.327482  magneticMoment: [ Abs: 0.00000  Tot: +0.00000 ]
	SubspaceRotationAdjust: set factor to 0.263
ElecMinimize: Iter:  22  G: -3789.636355946224285  |grad|_K:  2.358e-07  alpha:  3.480e-01  linmin:  2.375e-05  t[s]:  10520.84
	Linear fluid (dielectric constant: 78.4, screening length: 8.12261 Bohr) occupying 0.592839 of unit cell:	Completed after 15 iterations at t[s]:  10578.04
	Linear fluid (dielectric constant: 78.4, screening length: 8.12261 Bohr) occupying 0.592836 of unit cell:	Completed after 0 iterations at t[s]:  10617.42
	FillingsUpdate:  mu: -0.097800000  nElectrons: 495.318182  magneticMoment: [ Abs: 0.00000  Tot: +0.00000 ]
	SubspaceRotationAdjust: set factor to 0.283
ElecMinimize: Iter:  23  G: -3789.636371783556115  |grad|_K:  2.251e-07  alpha:  3.543e-01  linmin: -6.705e-05  t[s]:  10680.12
	Linear fluid (dielectric constant: 78.4, screening length: 8.12261 Bohr) occupying 0.592916 of unit cell:	Completed after 16 iterations at t[s]:  10737.22
	Linear fluid (dielectric constant: 78.4, screening length: 8.12261 Bohr) occupying 0.592878 of unit cell:	Completed after 14 iterations at t[s]:  10779.43
	FillingsUpdate:  mu: -0.097800000  nElectrons: 495.317665  magneticMoment: [ Abs: 0.00000  Tot: +0.00000 ]
	SubspaceRotationAdjust: set factor to 0.235
ElecMinimize: Iter:  24  G: -3789.636379415599095  |grad|_K:  2.200e-07  alpha:  1.852e-01  linmin: -5.966e-06  t[s]:  10842.66
	Linear fluid (dielectric constant: 78.4, screening length: 8.12261 Bohr) occupying 0.592785 of unit cell:	Completed after 15 iterations at t[s]:  10899.64
	Linear fluid (dielectric constant: 78.4, screening length: 8.12261 Bohr) occupying 0.592781 of unit cell:	Completed after 1 iterations at t[s]:  10939.56
	FillingsUpdate:  mu: -0.097800000  nElectrons: 495.311460  magneticMoment: [ Abs: 0.00000  Tot: +0.00000 ]
	SubspaceRotationAdjust: set factor to 0.228
ElecMinimize: Iter:  25  G: -3789.636386953968213  |grad|_K:  1.579e-07  alpha:  1.932e-01  linmin: -1.060e-04  t[s]:  11002.13
	Linear fluid (dielectric constant: 78.4, screening length: 8.12261 Bohr) occupying 0.592771 of unit cell:	Completed after 2 iterations at t[s]:  11057.64
	Linear fluid (dielectric constant: 78.4, screening length: 8.12261 Bohr) occupying 0.592764 of unit cell:	Completed after 2 iterations at t[s]:  11097.46
	FillingsUpdate:  mu: -0.097800000  nElectrons: 495.308154  magneticMoment: [ Abs: 0.00000  Tot: +0.00000 ]
	SubspaceRotationAdjust: set factor to 0.272
ElecMinimize: Iter:  26  G: -3789.636394095190099  |grad|_K:  1.358e-07  alpha:  3.509e-01  linmin: -4.539e-05  t[s]:  11160.10
	Linear fluid (dielectric constant: 78.4, screening length: 8.12261 Bohr) occupying 0.592839 of unit cell:	Completed after 15 iterations at t[s]:  11216.83
	Linear fluid (dielectric constant: 78.4, screening length: 8.12261 Bohr) occupying 0.592817 of unit cell:	Completed after 11 iterations at t[s]:  11258.39
	FillingsUpdate:  mu: -0.097800000  nElectrons: 495.308688  magneticMoment: [ Abs: 0.00000  Tot: -0.00000 ]
	SubspaceRotationAdjust: set factor to 0.252
ElecMinimize: Iter:  27  G: -3789.636397804045828  |grad|_K:  1.402e-07  alpha:  2.491e-01  linmin:  2.707e-06  t[s]:  11321.19
	Linear fluid (dielectric constant: 78.4, screening length: 8.12261 Bohr) occupying 0.592764 of unit cell:	Completed after 14 iterations at t[s]:  11378.04
	Linear fluid (dielectric constant: 78.4, screening length: 8.12261 Bohr) occupying 0.592783 of unit cell:	Completed after 11 iterations at t[s]:  11419.46
	FillingsUpdate:  mu: -0.097800000  nElectrons: 495.306309  magneticMoment: [ Abs: 0.00000  Tot: -0.00000 ]
	SubspaceRotationAdjust: set factor to 0.208
ElecMinimize: Iter:  28  G: -3789.636400341066292  |grad|_K:  1.072e-07  alpha:  1.601e-01  linmin:  2.566e-05  t[s]:  11482.21
	Linear fluid (dielectric constant: 78.4, screening length: 8.12261 Bohr) occupying 0.592804 of unit cell:	Completed after 4 iterations at t[s]:  11537.43
	Linear fluid (dielectric constant: 78.4, screening length: 8.12261 Bohr) occupying 0.592822 of unit cell:	Completed after 8 iterations at t[s]:  11578.42
	FillingsUpdate:  mu: -0.097800000  nElectrons: 495.306596  magneticMoment: [ Abs: 0.00000  Tot: -0.00000 ]
	SubspaceRotationAdjust: set factor to 0.259
ElecMinimize: Iter:  29  G: -3789.636403104203055  |grad|_K:  8.073e-08  alpha:  3.015e-01  linmin:  7.930e-05  t[s]:  11641.30
	Linear fluid (dielectric constant: 78.4, screening length: 8.12261 Bohr) occupying 0.592860 of unit cell:	Completed after 11 iterations at t[s]:  11698.64
	Linear fluid (dielectric constant: 78.4, screening length: 8.12261 Bohr) occupying 0.592861 of unit cell:	Completed after 0 iterations at t[s]:  11738.20
	FillingsUpdate:  mu: -0.097800000  nElectrons: 495.307427  magneticMoment: [ Abs: 0.00000  Tot: -0.00000 ]
	SubspaceRotationAdjust: set factor to 0.278
ElecMinimize: Iter:  30  G: -3789.636404737269459  |grad|_K:  7.696e-08  alpha:  3.131e-01  linmin: -1.509e-04  t[s]:  11801.16
	Linear fluid (dielectric constant: 78.4, screening length: 8.12261 Bohr) occupying 0.592833 of unit cell:	Completed after 13 iterations at t[s]:  11857.83
	Linear fluid (dielectric constant: 78.4, screening length: 8.12261 Bohr) occupying 0.592845 of unit cell:	Completed after 11 iterations at t[s]:  11899.56
	FillingsUpdate:  mu: -0.097800000  nElectrons: 495.306494  magneticMoment: [ Abs: 0.00000  Tot: -0.00000 ]
	SubspaceRotationAdjust: set factor to 0.236
ElecMinimize: Iter:  31  G: -3789.636405597627345  |grad|_K:  7.103e-08  alpha:  1.773e-01  linmin:  2.837e-05  t[s]:  11963.00
	Linear fluid (dielectric constant: 78.4, screening length: 8.12261 Bohr) occupying 0.592871 of unit cell:	Completed after 9 iterations at t[s]:  12019.03
	Linear fluid (dielectric constant: 78.4, screening length: 8.12261 Bohr) occupying 0.592877 of unit cell:	Completed after 2 iterations at t[s]:  12058.90
	FillingsUpdate:  mu: -0.097800000  nElectrons: 495.307436  magneticMoment: [ Abs: 0.00000  Tot: -0.00000 ]
	SubspaceRotationAdjust: set factor to 0.273
ElecMinimize: Iter:  32  G: -3789.636406503103444  |grad|_K:  5.145e-08  alpha:  2.231e-01  linmin: -1.106e-04  t[s]:  12121.77
	Linear fluid (dielectric constant: 78.4, screening length: 8.12261 Bohr) occupying 0.592887 of unit cell:	Completed after 4 iterations at t[s]:  12177.00
	Linear fluid (dielectric constant: 78.4, screening length: 8.12261 Bohr) occupying 0.592893 of unit cell:	Completed after 4 iterations at t[s]:  12217.44
	FillingsUpdate:  mu: -0.097800000  nElectrons: 495.307891  magneticMoment: [ Abs: 0.00000  Tot: -0.00000 ]
	SubspaceRotationAdjust: set factor to 0.321
ElecMinimize: Iter:  33  G: -3789.636407237112053  |grad|_K:  5.216e-08  alpha:  3.383e-01  linmin: -8.715e-05  t[s]:  12280.52
	Linear fluid (dielectric constant: 78.4, screening length: 8.12261 Bohr) occupying 0.592854 of unit cell:	Completed after 13 iterations at t[s]:  12337.08
	Linear fluid (dielectric constant: 78.4, screening length: 8.12261 Bohr) occupying 0.592875 of unit cell:	Completed after 11 iterations at t[s]:  12378.86
	FillingsUpdate:  mu: -0.097800000  nElectrons: 495.307201  magneticMoment: [ Abs: 0.00000  Tot: -0.00000 ]
	SubspaceRotationAdjust: set factor to 0.262
ElecMinimize: Iter:  34  G: -3789.636407589227929  |grad|_K:  4.947e-08  alpha:  1.538e-01  linmin:  5.288e-06  t[s]:  12441.73
	Linear fluid (dielectric constant: 78.4, screening length: 8.12261 Bohr) occupying 0.592886 of unit cell:	Completed after 4 iterations at t[s]:  12497.19
	Linear fluid (dielectric constant: 78.4, screening length: 8.12261 Bohr) occupying 0.592892 of unit cell:	Completed after 3 iterations at t[s]:  12537.20
	FillingsUpdate:  mu: -0.097800000  nElectrons: 495.307869  magneticMoment: [ Abs: 0.00000  Tot: -0.00000 ]
	SubspaceRotationAdjust: set factor to 0.292
ElecMinimize: Iter:  35  G: -3789.636408025757191  |grad|_K:  3.522e-08  alpha:  2.235e-01  linmin:  7.752e-05  t[s]:  12600.24
	Linear fluid (dielectric constant: 78.4, screening length: 8.12261 Bohr) occupying 0.592899 of unit cell:	Completed after 3 iterations at t[s]:  12655.47
	Linear fluid (dielectric constant: 78.4, screening length: 8.12261 Bohr) occupying 0.592902 of unit cell:	Completed after 0 iterations at t[s]:  12694.98
	FillingsUpdate:  mu: -0.097800000  nElectrons: 495.308356  magneticMoment: [ Abs: 0.00000  Tot: -0.00000 ]
	SubspaceRotationAdjust: set factor to 0.331
ElecMinimize: Iter:  36  G: -3789.636408334387397  |grad|_K:  2.877e-08  alpha:  3.089e-01  linmin: -2.863e-04  t[s]:  12757.62
	Linear fluid (dielectric constant: 78.4, screening length: 8.12261 Bohr) occupying 0.592894 of unit cell:	Completed after 4 iterations at t[s]:  12813.15
	Linear fluid (dielectric constant: 78.4, screening length: 8.12261 Bohr) occupying 0.592895 of unit cell:	Completed after 0 iterations at t[s]:  12853.32
	FillingsUpdate:  mu: -0.097800000  nElectrons: 495.308225  magneticMoment: [ Abs: 0.00000  Tot: -0.00000 ]
	SubspaceRotationAdjust: set factor to 0.331
ElecMinimize: Iter:  37  G: -3789.636408547066367  |grad|_K:  2.548e-08  alpha:  3.055e-01  linmin:  1.418e-04  t[s]:  12916.52
	Linear fluid (dielectric constant: 78.4, screening length: 8.12261 Bohr) occupying 0.592904 of unit cell:	Completed after 2 iterations at t[s]:  12971.25
	Linear fluid (dielectric constant: 78.4, screening length: 8.12261 Bohr) occupying 0.592903 of unit cell:	Completed after 0 iterations at t[s]:  13011.04
	FillingsUpdate:  mu: -0.097800000  nElectrons: 495.308696  magneticMoment: [ Abs: 0.00000  Tot: -0.00000 ]
	SubspaceRotationAdjust: set factor to 0.36
ElecMinimize: Iter:  38  G: -3789.636408687543735  |grad|_K:  2.011e-08  alpha:  2.757e-01  linmin:  7.798e-05  t[s]:  13073.87
	Linear fluid (dielectric constant: 78.4, screening length: 8.12261 Bohr) occupying 0.592902 of unit cell:	Completed after 2 iterations at t[s]:  13128.83
	Linear fluid (dielectric constant: 78.4, screening length: 8.12261 Bohr) occupying 0.592902 of unit cell:	Completed after 0 iterations at t[s]:  13169.22
	FillingsUpdate:  mu: -0.097800000  nElectrons: 495.308853  magneticMoment: [ Abs: 0.00000  Tot: -0.00000 ]
	SubspaceRotationAdjust: set factor to 0.428
ElecMinimize: Iter:  39  G: -3789.636408789848701  |grad|_K:  1.618e-08  alpha:  3.151e-01  linmin: -2.358e-04  t[s]:  13231.95
	Linear fluid (dielectric constant: 78.4, screening length: 8.12261 Bohr) occupying 0.592900 of unit cell:	Completed after 2 iterations at t[s]:  13286.81
	Linear fluid (dielectric constant: 78.4, screening length: 8.12261 Bohr) occupying 0.592900 of unit cell:	Completed after 0 iterations at t[s]:  13326.32
	FillingsUpdate:  mu: -0.097800000  nElectrons: 495.308920  magneticMoment: [ Abs: 0.00000  Tot: -0.00000 ]
	SubspaceRotationAdjust: set factor to 0.507
ElecMinimize: Iter:  40  G: -3789.636408860736992  |grad|_K:  1.459e-08  alpha:  3.271e-01  linmin: -1.518e-04  t[s]:  13389.32
	Linear fluid (dielectric constant: 78.4, screening length: 8.12261 Bohr) occupying 0.592905 of unit cell:	Completed after 2 iterations at t[s]:  13444.42
	Linear fluid (dielectric constant: 78.4, screening length: 8.12261 Bohr) occupying 0.592905 of unit cell:	Completed after 0 iterations at t[s]:  13485.18
	FillingsUpdate:  mu: -0.097800000  nElectrons: 495.309251  magneticMoment: [ Abs: 0.00000  Tot: -0.00000 ]
	SubspaceRotationAdjust: set factor to 0.566
ElecMinimize: Iter:  41  G: -3789.636408914363983  |grad|_K:  1.295e-08  alpha:  3.043e-01  linmin:  3.878e-05  t[s]:  13547.95
ElecMinimize: Converged (|Delta G|<1.000000e-07 for 2 iters).
Setting wave functions to eigenvectors of Hamiltonian
Converging empty states (this may take a while): |deigs|: 2.892e-04
Single-point solvation energy estimate, DeltaG = -0.029136799893877

Computing DFT-D3 correction:
# coordination-number Ag 6.892 9.199 8.421 9.209 9.211 9.210 9.211 9.211 9.204 8.396 4.628 9.178 5.388 9.178 9.210 9.204 9.211 9.211 9.199 9.211 9.209 8.421 4.627 8.396 6.892 5.388
# diagonal-C6 Ag 268.61 268.61 268.61 268.61 268.61 268.61 268.61 268.61 268.61 268.61 268.61 268.61 268.61 268.61 268.61 268.61 268.61 268.61 268.61 268.61 268.61 268.61 268.61 268.61 268.61 268.61
EvdW_6 =   -0.170292
EvdW_8 =   -0.230198

# Ionic positions in cartesian coordinates:
ion Ag  -0.000003000000000  10.630373000000001  24.981363999999996 1
ion Ag   0.000000000000000   4.252144000000000  20.729219999999998 1
ion Ag   3.832835000000001   7.441265000000000  22.855291999999992 1
ion Ag   3.832838000000000   1.063036000000000  18.603148999999995 1
ion Ag  -0.000003000000000   8.504301000000000  14.351004999999999 1
ion Ag   0.000000000000000   2.126072000000000  10.098861999999999 1
ion Ag   3.832835000000001  11.693408000000000  16.477076999999998 1
ion Ag   3.832838000000001   5.315179000000000  12.224932999999998 1
ion Ag  -0.000003000000000  12.756444000000000   7.972789999999999 1
ion Ag   0.000000000000000   6.378215000000000   3.720645999999999 1
ion Ag  -3.832833000000000  13.819480000000000  27.107435999999996 1
ion Ag   3.832835000000001   9.567337000000000   5.846717999999999 1
ion Ag   3.832838000000001   3.189108000000000   1.594575000000000 1
ion Ag   3.832831000000000  12.756444000000000  21.792297999999995 1
ion Ag   3.832835000000000   6.378215000000000  17.540070999999998 1
ion Ag   0.000001000000000   9.567337000000000  19.666142999999998 1
ion Ag   0.000004000000000   3.189108000000000  15.413998999999997 1
ion Ag   3.832831000000001  10.630373000000001  11.161855999999998 1
ion Ag   3.832834000000000   4.252144000000000   6.909711999999998 1
ion Ag   0.000001000000000  13.819480000000000  13.287927999999999 1
ion Ag   0.000001000000000   7.441265000000000   9.035783999999998 1
ion Ag   0.000004000000000   1.063036000000000   4.783640999999999 1
ion Ag   3.832831000000000   8.504301000000000   0.531497000000000 1
ion Ag   3.832834000000001   2.126072000000000  23.918368999999995 1
ion Ag   0.000001000000001  11.693408000000000   2.657569000000000 1
ion Ag   0.000004000000000   5.315179000000000  26.044440999999996 1

# Forces in Cartesian coordinates:
force Ag   0.000039596642534  -0.002653517117482   0.004839200955656 1
force Ag  -0.000010931783694   0.000077263095060  -0.002466884540371 1
force Ag  -0.000096855681802   0.001330237518409   0.006558628089362 1
force Ag   0.000026573837028   0.000265328786969  -0.000281805097936 1
force Ag  -0.000104514207428  -0.000007564400442  -0.000601584057668 1
force Ag  -0.000178110798144  -0.000077601496957   0.000299231289513 1
force Ag   0.000113314091955   0.000217379152180  -0.000199000505855 1
force Ag   0.000163167385659   0.000032822601889   0.000931270912898 1
force Ag   0.000111074821715  -0.000160090722943   0.001883379782059 1
force Ag   0.000004405468137  -0.000738215981880  -0.005981861971715 1
force Ag  -0.000039068463277  -0.000227761442101  -0.005697392246991 1
force Ag   0.000062026360805   0.000554333087943   0.001986655521014 1
force Ag  -0.000043217359673  -0.000819227073807   0.000975329464878 1
force Ag  -0.000040652385312  -0.000559468118020  -0.001993819569633 1
force Ag   0.000133306518205   0.000064728343449  -0.000289601221195 1
force Ag  -0.000093406832640   0.000154391399751  -0.001878799304847 1
force Ag  -0.000156266513116  -0.000021719411715  -0.000919385872821 1
force Ag  -0.000142817101535  -0.000223698090473   0.000203709002354 1
force Ag   0.000045419912914  -0.000081160383326   0.002465279987144 1
force Ag   0.000153152852774   0.000034687202383   0.000616080666052 1
force Ag  -0.000044118590310  -0.000275846345126   0.000286941602846 1
force Ag   0.000087158340675  -0.001342452445258  -0.006560050715072 1
force Ag   0.000076429272720   0.000252838531396   0.005696304279671 1
force Ag  -0.000044942024491   0.000725491953951   0.005974563662786 1
force Ag  -0.000069154764411   0.002643120737621  -0.004850411181372 1
force Ag   0.000038899983729   0.000824470397189  -0.000973971937752 1

# Energy components:
   A_diel =       -0.4397473599322855
   Eewald =    41729.4527388980932301
       EH =    45289.1578789801642415
     Eloc =   -91458.8624626833334332
      Enl =      102.4666964714235604
     EvdW =       -0.4004898861968956
      Exc =     -377.0704025682780411
 Exc_core =        5.4124311541465868
       KE =      872.2792668505240954
  MuShift =       -0.0730575089215742
-------------------------------------
     Etot =    -3838.0771476523095771
       TS =        0.0005060290789595
-------------------------------------
        F =    -3838.0776536813887105
      muN =      -48.4412447670248127
-------------------------------------
        G =    -3789.6364089143639831


Dumping 'jdft.fillings' ... done
Dumping 'jdft.wfns' ... done
Dumping 'jdft.fluidState' ... done
Dumping 'jdft.ionpos' ... done
Dumping 'jdft.lattice' ... done
Dumping 'jdft.eigenvals' ... done
Dumping 'jdft.eigStats' ... 
	eMin: -3.483852 at state 0 ( [ +0.000000 +0.000000 +0.000000 ] spin 1 )
	HOMO: -0.097950 at state 35 ( [ -0.111111 -0.250000 +0.000000 ] spin 1 )
	mu  : -0.097800
	LUMO: -0.096787 at state 18 ( [ +0.444444 +0.500000 +0.000000 ] spin 1 )
	eMax: +0.187901 at state 41 ( [ +0.111111 +0.250000 +0.000000 ] spin -1 )
	HOMO-LUMO gap: +0.001163
	Optical gap  : +0.003656 at state 15 ( [ +0.333333 -0.250000 +0.000000 ] spin 1 )
Dumping 'jdft.Ecomponents' ... done
IonicMinimize: Iter:   0  G: -3789.636408914363983  |grad|_K:  2.034e-03  t[s]:  14097.05

#--- Lowdin population analysis ---
# oxidation-state Ag -0.160 -0.009 -0.069 +0.003 -0.003 +0.005 +0.004 +0.001 -0.001 -0.126 -0.103 -0.032 -0.105 -0.032 +0.005 -0.001 +0.001 +0.004 -0.009 -0.003 +0.003 -0.069 -0.103 -0.126 -0.160 -0.105
# magnetic-moments Ag +0.000 -0.000 -0.000 -0.000 -0.000 +0.000 -0.000 +0.000 -0.000 +0.000 -0.000 +0.000 -0.000 +0.000 +0.000 -0.000 -0.000 +0.000 +0.000 +0.000 +0.000 -0.000 -0.000 +0.000 +0.000 -0.000


Computing DFT-D3 correction:
# coordination-number Ag 6.890 9.191 8.415 9.207 9.213 9.208 9.213 9.214 9.198 8.390 4.641 9.172 5.398 9.172 9.208 9.198 9.214 9.213 9.191 9.213 9.207 8.415 4.641 8.390 6.890 5.398
# diagonal-C6 Ag 268.61 268.61 268.61 268.61 268.61 268.61 268.61 268.61 268.61 268.61 268.61 268.61 268.61 268.61 268.61 268.61 268.61 268.61 268.61 268.61 268.61 268.61 268.61 268.61 268.61 268.61
EvdW_6 =   -0.170283
EvdW_8 =   -0.230171
Shifting auxilliary hamiltonian by -0.000019 to set nElectrons=495.309251

-------- Electronic minimization -----------
	Linear fluid (dielectric constant: 78.4, screening length: 8.12261 Bohr) occupying 0.592965 of unit cell:	Completed after 12 iterations at t[s]:  14158.75
	FillingsUpdate:  mu: -0.097800000  nElectrons: 495.309251  magneticMoment: [ Abs: 0.00000  Tot: -0.00000 ]
ElecMinimize: Iter:   0  G: -3789.636665892453493  |grad|_K:  2.265e-07  alpha:  1.000e+00
	Linear fluid (dielectric constant: 78.4, screening length: 8.12261 Bohr) occupying 0.593332 of unit cell:	Completed after 18 iterations at t[s]:  14287.69
	Linear fluid (dielectric constant: 78.4, screening length: 8.12261 Bohr) occupying 0.593122 of unit cell:	Completed after 17 iterations at t[s]:  14330.00
	FillingsUpdate:  mu: -0.097800000  nElectrons: 495.315453  magneticMoment: [ Abs: 0.00000  Tot: -0.00000 ]
	SubspaceRotationAdjust: set factor to 0.296
ElecMinimize: Iter:   1  G: -3789.636683654859098  |grad|_K:  5.804e-07  alpha:  4.275e-01  linmin: -8.016e-06  t[s]:  14393.22
	Linear fluid (dielectric constant: 78.4, screening length: 8.12261 Bohr) occupying 0.592313 of unit cell:	Completed after 21 iterations at t[s]:  14451.12
	Linear fluid (dielectric constant: 78.4, screening length: 8.12261 Bohr) occupying 0.592974 of unit cell:	Completed after 19 iterations at t[s]:  14494.00
	FillingsUpdate:  mu: -0.097800000  nElectrons: 495.309891  magneticMoment: [ Abs: 0.00000  Tot: +0.00000 ]
	SubspaceRotationAdjust: set factor to 0.238
ElecMinimize: Iter:   2  G: -3789.636705290434293  |grad|_K:  2.048e-07  alpha:  7.940e-02  linmin: -2.300e-05  t[s]:  14557.03
	Linear fluid (dielectric constant: 78.4, screening length: 8.12261 Bohr) occupying 0.592968 of unit cell:	Completed after 2 iterations at t[s]:  14612.26
ElecMinimize: 	Predicted alpha/alphaT>3.000000, increasing alphaT to 2.382033e-01.
	Linear fluid (dielectric constant: 78.4, screening length: 8.12261 Bohr) occupying 0.592957 of unit cell:	Completed after 7 iterations at t[s]:  14654.10
	Linear fluid (dielectric constant: 78.4, screening length: 8.12261 Bohr) occupying 0.592949 of unit cell:	Completed after 8 iterations at t[s]:  14695.42
	FillingsUpdate:  mu: -0.097800000  nElectrons: 495.309037  magneticMoment: [ Abs: 0.00000  Tot: +0.00000 ]
	SubspaceRotationAdjust: set factor to 0.284
ElecMinimize: Iter:   3  G: -3789.636717191324351  |grad|_K:  1.482e-07  alpha:  3.518e-01  linmin:  2.892e-05  t[s]:  14758.16
	Linear fluid (dielectric constant: 78.4, screening length: 8.12261 Bohr) occupying 0.593079 of unit cell:	Completed after 16 iterations at t[s]:  14815.12
	Linear fluid (dielectric constant: 78.4, screening length: 8.12261 Bohr) occupying 0.593012 of unit cell:	Completed after 15 iterations at t[s]:  14857.68
	FillingsUpdate:  mu: -0.097800000  nElectrons: 495.311508  magneticMoment: [ Abs: 0.00000  Tot: +0.00000 ]
	SubspaceRotationAdjust: set factor to 0.194
ElecMinimize: Iter:   4  G: -3789.636720221748874  |grad|_K:  1.248e-07  alpha:  1.712e-01  linmin:  5.000e-06  t[s]:  14920.24
	Linear fluid (dielectric constant: 78.4, screening length: 8.12261 Bohr) occupying 0.592966 of unit cell:	Completed after 14 iterations at t[s]:  14978.17
	Linear fluid (dielectric constant: 78.4, screening length: 8.12261 Bohr) occupying 0.592974 of unit cell:	Completed after 4 iterations at t[s]:  15019.26
	FillingsUpdate:  mu: -0.097800000  nElectrons: 495.310038  magneticMoment: [ Abs: 0.00000  Tot: +0.00000 ]
	SubspaceRotationAdjust: set factor to 0.106
ElecMinimize: Iter:   5  G: -3789.636722034609193  |grad|_K:  4.728e-08  alpha:  1.442e-01  linmin:  3.020e-04  t[s]:  15081.94
	Linear fluid (dielectric constant: 78.4, screening length: 8.12261 Bohr) occupying 0.592979 of unit cell:	Completed after 4 iterations at t[s]:  15137.34
	Linear fluid (dielectric constant: 78.4, screening length: 8.12261 Bohr) occupying 0.592987 of unit cell:	Completed after 8 iterations at t[s]:  15178.64
	FillingsUpdate:  mu: -0.097800000  nElectrons: 495.310539  magneticMoment: [ Abs: 0.00000  Tot: +0.00000 ]
	SubspaceRotationAdjust: set factor to 0.0844
ElecMinimize: Iter:   6  G: -3789.636722669618848  |grad|_K:  2.490e-08  alpha:  3.539e-01  linmin: -8.706e-04  t[s]:  15241.34
	Linear fluid (dielectric constant: 78.4, screening length: 8.12261 Bohr) occupying 0.592977 of unit cell:	Completed after 7 iterations at t[s]:  15298.19
	Linear fluid (dielectric constant: 78.4, screening length: 8.12261 Bohr) occupying 0.592978 of unit cell:	Completed after 0 iterations at t[s]:  15338.27
	FillingsUpdate:  mu: -0.097800000  nElectrons: 495.310213  magneticMoment: [ Abs: 0.00000  Tot: +0.00000 ]
	SubspaceRotationAdjust: set factor to 0.0668
	SubspaceRotationAdjust: resetting CG because factor has changed by 0.118013
	Linear fluid (dielectric constant: 78.4, screening length: 8.12261 Bohr) occupying 0.592978 of unit cell:	Completed after 0 iterations at t[s]:  15418.32
ElecMinimize: 	State modified externally: resetting search direction.
ElecMinimize: Iter:   7  G: -3789.636722828155143  |grad|_K:  1.618e-08  alpha:  3.093e-01
	Linear fluid (dielectric constant: 78.4, screening length: 8.12261 Bohr) occupying 0.592984 of unit cell:	Completed after 4 iterations at t[s]:  15536.22
	Linear fluid (dielectric constant: 78.4, screening length: 8.12261 Bohr) occupying 0.592982 of unit cell:	Completed after 0 iterations at t[s]:  15577.76
	FillingsUpdate:  mu: -0.097800000  nElectrons: 495.310374  magneticMoment: [ Abs: 0.00000  Tot: +0.00000 ]
	SubspaceRotationAdjust: set factor to 0.0994
ElecMinimize: Iter:   8  G: -3789.636722875820396  |grad|_K:  9.777e-09  alpha:  2.305e-01  linmin:  4.825e-03  t[s]:  15640.32
	Linear fluid (dielectric constant: 78.4, screening length: 8.12261 Bohr) occupying 0.592982 of unit cell:	Completed after 2 iterations at t[s]:  15695.57
	Linear fluid (dielectric constant: 78.4, screening length: 8.12261 Bohr) occupying 0.592982 of unit cell:	Completed after 0 iterations at t[s]:  15735.35
	FillingsUpdate:  mu: -0.097800000  nElectrons: 495.310355  magneticMoment: [ Abs: 0.00000  Tot: +0.00000 ]
	SubspaceRotationAdjust: set factor to 0.0781
ElecMinimize: Iter:   9  G: -3789.636722894558261  |grad|_K:  7.224e-09  alpha:  2.508e-01  linmin: -1.948e-02  t[s]:  15798.23
ElecMinimize: Converged (|Delta G|<1.000000e-07 for 2 iters).
Setting wave functions to eigenvectors of Hamiltonian
Converging empty states (this may take a while): |deigs|: 2.881e-08

Computing DFT-D3 correction:
# coordination-number Ag 6.890 9.191 8.415 9.207 9.213 9.208 9.213 9.214 9.198 8.390 4.641 9.172 5.398 9.172 9.208 9.198 9.214 9.213 9.191 9.213 9.207 8.415 4.641 8.390 6.890 5.398
# diagonal-C6 Ag 268.61 268.61 268.61 268.61 268.61 268.61 268.61 268.61 268.61 268.61 268.61 268.61 268.61 268.61 268.61 268.61 268.61 268.61 268.61 268.61 268.61 268.61 268.61 268.61 268.61 268.61
EvdW_6 =   -0.170283
EvdW_8 =   -0.230171
IonicMinimize: 	Wolfe criterion not satisfied: alpha: 1  (E-E0)/|gdotd0|: -0.973206  gdotd/gdotd0: 0.954393 (taking cubic step)

Computing DFT-D3 correction:
# coordination-number Ag 6.886 9.174 8.402 9.204 9.218 9.204 9.218 9.220 9.187 8.378 4.667 9.159 5.417 9.159 9.204 9.187 9.220 9.218 9.174 9.218 9.204 8.402 4.667 8.378 6.886 5.417
# diagonal-C6 Ag 268.61 268.61 268.61 268.61 268.61 268.61 268.61 268.61 268.61 268.61 268.61 268.61 268.61 268.61 268.61 268.61 268.61 268.61 268.61 268.61 268.61 268.61 268.61 268.61 268.61 268.61
EvdW_6 =   -0.170265
EvdW_8 =   -0.230121
Shifting auxilliary hamiltonian by -0.000012 to set nElectrons=495.310355

-------- Electronic minimization -----------
	Linear fluid (dielectric constant: 78.4, screening length: 8.12261 Bohr) occupying 0.593115 of unit cell:	Completed after 18 iterations at t[s]:  16020.04
	FillingsUpdate:  mu: -0.097800000  nElectrons: 495.310355  magneticMoment: [ Abs: 0.00000  Tot: +0.00000 ]
ElecMinimize: Iter:   0  G: -3789.637066591414623  |grad|_K:  2.673e-07  alpha:  1.000e+00
	Linear fluid (dielectric constant: 78.4, screening length: 8.12261 Bohr) occupying 0.593214 of unit cell:	Completed after 15 iterations at t[s]:  16148.67
	Linear fluid (dielectric constant: 78.4, screening length: 8.12261 Bohr) occupying 0.593171 of unit cell:	Completed after 14 iterations at t[s]:  16191.69
	FillingsUpdate:  mu: -0.097800000  nElectrons: 495.312576  magneticMoment: [ Abs: 0.00000  Tot: +0.00000 ]
	SubspaceRotationAdjust: set factor to 0.105
ElecMinimize: Iter:   1  G: -3789.637098980726932  |grad|_K:  2.352e-07  alpha:  5.627e-01  linmin:  2.797e-06  t[s]:  16254.48
	Linear fluid (dielectric constant: 78.4, screening length: 8.12261 Bohr) occupying 0.593138 of unit cell:	Completed after 14 iterations at t[s]:  16311.48
	Linear fluid (dielectric constant: 78.4, screening length: 8.12261 Bohr) occupying 0.593136 of unit cell:	Completed after 2 iterations at t[s]:  16351.75
	FillingsUpdate:  mu: -0.097800000  nElectrons: 495.311316  magneticMoment: [ Abs: 0.00000  Tot: +0.00000 ]
	SubspaceRotationAdjust: set factor to 0.125
ElecMinimize: Iter:   2  G: -3789.637125709030443  |grad|_K:  2.843e-07  alpha:  5.998e-01  linmin: -2.133e-05  t[s]:  16414.36
	Linear fluid (dielectric constant: 78.4, screening length: 8.12261 Bohr) occupying 0.593179 of unit cell:	Completed after 12 iterations at t[s]:  16471.57
	Linear fluid (dielectric constant: 78.4, screening length: 8.12261 Bohr) occupying 0.593191 of unit cell:	Completed after 8 iterations at t[s]:  16512.89
	FillingsUpdate:  mu: -0.097800000  nElectrons: 495.313689  magneticMoment: [ Abs: 0.00000  Tot: +0.00000 ]
	SubspaceRotationAdjust: set factor to 0.144
ElecMinimize: Iter:   3  G: -3789.637175571881016  |grad|_K:  3.119e-07  alpha:  7.647e-01  linmin:  6.562e-06  t[s]:  16575.75
	Linear fluid (dielectric constant: 78.4, screening length: 8.12261 Bohr) occupying 0.593202 of unit cell:	Completed after 6 iterations at t[s]:  16631.19
	Linear fluid (dielectric constant: 78.4, screening length: 8.12261 Bohr) occupying 0.593201 of unit cell:	Completed after 2 iterations at t[s]:  16671.31
	FillingsUpdate:  mu: -0.097800000  nElectrons: 495.314357  magneticMoment: [ Abs: 0.00000  Tot: +0.00000 ]
	SubspaceRotationAdjust: set factor to 0.159
ElecMinimize: Iter:   4  G: -3789.637229327343903  |grad|_K:  2.888e-07  alpha:  6.864e-01  linmin: -5.595e-07  t[s]:  16734.02
	Linear fluid (dielectric constant: 78.4, screening length: 8.12261 Bohr) occupying 0.593130 of unit cell:	Completed after 15 iterations at t[s]:  16791.75
	Linear fluid (dielectric constant: 78.4, screening length: 8.12261 Bohr) occupying 0.593150 of unit cell:	Completed after 11 iterations at t[s]:  16833.36
	FillingsUpdate:  mu: -0.097800000  nElectrons: 495.312537  magneticMoment: [ Abs: 0.00000  Tot: +0.00000 ]
	SubspaceRotationAdjust: set factor to 0.16
ElecMinimize: Iter:   5  G: -3789.637262867368008  |grad|_K:  2.287e-07  alpha:  4.987e-01  linmin:  3.990e-06  t[s]:  16896.31
	Linear fluid (dielectric constant: 78.4, screening length: 8.12261 Bohr) occupying 0.593247 of unit cell:	Completed after 15 iterations at t[s]:  16953.30
	Linear fluid (dielectric constant: 78.4, screening length: 8.12261 Bohr) occupying 0.593228 of unit cell:	Completed after 11 iterations at t[s]:  16994.91
	FillingsUpdate:  mu: -0.097800000  nElectrons: 495.315666  magneticMoment: [ Abs: 0.00000  Tot: +0.00000 ]
	SubspaceRotationAdjust: set factor to 0.13
ElecMinimize: Iter:   6  G: -3789.637279701566058  |grad|_K:  1.971e-07  alpha:  3.993e-01  linmin:  1.721e-05  t[s]:  17059.06
	Linear fluid (dielectric constant: 78.4, screening length: 8.12261 Bohr) occupying 0.593068 of unit cell:	Completed after 16 iterations at t[s]:  17116.20
	Linear fluid (dielectric constant: 78.4, screening length: 8.12261 Bohr) occupying 0.593136 of unit cell:	Completed after 14 iterations at t[s]:  17158.34
	FillingsUpdate:  mu: -0.097800000  nElectrons: 495.312191  magneticMoment: [ Abs: 0.00000  Tot: +0.00000 ]
	SubspaceRotationAdjust: set factor to 0.0844
ElecMinimize: Iter:   7  G: -3789.637286829864934  |grad|_K:  1.284e-07  alpha:  2.279e-01  linmin:  6.000e-06  t[s]:  17221.23
[...]
ion Ag   0.004061738061950   1.016036241556034   4.548466639362514 1
ion Ag   3.836437682778865   8.545371929893527   0.604858874553538 1
ion Ag   3.828879358470834   2.123123470953809  24.048438185354492 1
ion Ag   0.002658852464240  11.761604883316826   2.418532162046044 1
ion Ag  -0.003130536152965   5.280481261689728  26.088305425963075 1

# Forces in Cartesian coordinates:
force Ag  -0.000016396883805   0.000035781616481  -0.000035972972420 1
force Ag  -0.000008364520887  -0.000080057357911  -0.000318171588577 1
force Ag   0.000000967631062   0.000010988541975  -0.000161504166572 1
force Ag  -0.000011787045476   0.000030576558863   0.000024621726360 1
force Ag   0.000015046823986   0.000173968441846  -0.000150195196167 1
force Ag   0.000025546752652   0.000052379239158   0.000054781722428 1
force Ag  -0.000001186635769   0.000010895544720  -0.000205123661312 1
force Ag  -0.000021748459050   0.000076185325232   0.000071413153346 1
force Ag   0.000003527554392   0.000153731951899   0.000074418685783 1
force Ag   0.000006168938461  -0.000009451854944  -0.000446109790300 1
force Ag  -0.000016429045966  -0.000205213987947  -0.000323278609193 1
force Ag   0.000014823461182   0.000154911401146  -0.000062899530709 1
force Ag   0.000021639218614  -0.000088170095849   0.000076802979002 1
force Ag  -0.000016742465045  -0.000153232070822   0.000066733969800 1
force Ag  -0.000022605870062  -0.000044831147639  -0.000059839407463 1
force Ag  -0.000005031958495  -0.000145028960088  -0.000069796399062 1
force Ag   0.000020603755217  -0.000073311666120  -0.000072233281818 1
force Ag   0.000005233349495  -0.000010613419307   0.000201318501173 1
force Ag   0.000004850995047   0.000077188573593   0.000318442189336 1
force Ag  -0.000019175111363  -0.000172478173050   0.000148361305431 1
force Ag   0.000016084612812  -0.000028013121990  -0.000019667110088 1
force Ag  -0.000000622038235  -0.000000482535760   0.000164886545337 1
force Ag   0.000016869078111   0.000214389733832   0.000327193337779 1
force Ag   0.000001863227553   0.000011102851699   0.000455191296246 1
force Ag   0.000020219603818  -0.000036191179905   0.000028861043680 1
force Ag  -0.000021237116507   0.000095475507870  -0.000085699671001 1

# Energy components:
   A_diel =       -0.4567199157975177
   Eewald =    41374.9751870153704658
       EH =    44936.5541570102577680
     Eloc =   -90751.7240797927370295
      Enl =      102.4714249557461869
     EvdW =       -0.3974040054452987
      Exc =     -377.0426843383301048
 Exc_core =        5.4124361247113866
       KE =      872.1983129393843228
  MuShift =       -0.0750469283316443
-------------------------------------
     Etot =    -3838.0844169351712480
       TS =        0.0005891731461246
-------------------------------------
        F =    -3838.0850061083174296
      muN =      -48.4447315372232126
-------------------------------------
        G =    -3789.6402745710943236


Dumping 'jdft.fillings' ... done
Dumping 'jdft.wfns' ... done
Dumping 'jdft.fluidState' ... done
Dumping 'jdft.ionpos' ... done
Dumping 'jdft.lattice' ... done
Dumping 'jdft.eigenvals' ... done
Dumping 'jdft.eigStats' ... 
	eMin: -3.482553 at state 0 ( [ +0.000000 +0.000000 +0.000000 ] spin 1 )
	HOMO: -0.098872 at state 37 ( [ +0.000000 +0.250000 +0.000000 ] spin -1 )
	mu  : -0.097800
	LUMO: -0.097667 at state 18 ( [ +0.444444 +0.500000 +0.000000 ] spin 1 )
	eMax: +0.188083 at state 5 ( [ +0.111111 +0.250000 +0.000000 ] spin 1 )
	HOMO-LUMO gap: +0.001206
	Optical gap  : +0.002621 at state 22 ( [ -0.444444 +0.500000 +0.000000 ] spin 1 )
Dumping 'jdft.Ecomponents' ... done
IonicMinimize: Iter:   8  G: -3789.640274571094324  |grad|_K:  1.315e-04  alpha:  7.448e-02  linmin:  2.199e-01  t[s]:  59737.43

#--- Lowdin population analysis ---
# oxidation-state Ag -0.161 -0.005 -0.074 +0.002 -0.003 +0.005 +0.001 +0.002 +0.002 -0.127 -0.116 -0.025 -0.113 -0.025 +0.005 +0.002 +0.002 +0.001 -0.005 -0.003 +0.002 -0.074 -0.116 -0.127 -0.161 -0.113
# magnetic-moments Ag +0.000 -0.000 -0.000 +0.000 +0.000 -0.000 +0.000 -0.000 +0.000 +0.000 +0.000 +0.000 -0.000 +0.000 -0.000 +0.000 +0.000 -0.000 +0.000 +0.000 +0.000 -0.000 +0.000 +0.000 +0.000 +0.000


Computing DFT-D3 correction:
# coordination-number Ag 6.737 8.974 8.224 9.066 9.112 9.033 9.133 9.103 8.976 8.257 4.923 8.973 5.573 8.974 9.033 8.976 9.103 9.133 8.974 9.112 9.067 8.224 4.923 8.258 6.737 5.573
# diagonal-C6 Ag 268.61 268.61 268.61 268.61 268.61 268.61 268.61 268.61 268.61 268.61 268.61 268.61 268.61 268.61 268.61 268.61 268.61 268.61 268.61 268.61 268.61 268.61 268.61 268.61 268.61 268.61
EvdW_6 =   -0.169014
EvdW_8 =   -0.228433
Shifting auxilliary hamiltonian by 0.000010 to set nElectrons=495.344903

-------- Electronic minimization -----------
	Linear fluid (dielectric constant: 78.4, screening length: 8.12261 Bohr) occupying 0.593456 of unit cell:	Completed after 18 iterations at t[s]:  59800.02
	FillingsUpdate:  mu: -0.097800000  nElectrons: 495.344903  magneticMoment: [ Abs: 0.00000  Tot: -0.00000 ]
ElecMinimize: Iter:   0  G: -3789.640207567484595  |grad|_K:  1.652e-07  alpha:  1.000e+00
	Linear fluid (dielectric constant: 78.4, screening length: 8.12261 Bohr) occupying 0.593373 of unit cell:	Completed after 15 iterations at t[s]:  59928.81
	Linear fluid (dielectric constant: 78.4, screening length: 8.12261 Bohr) occupying 0.593399 of unit cell:	Completed after 11 iterations at t[s]:  59970.83
	FillingsUpdate:  mu: -0.097800000  nElectrons: 495.342566  magneticMoment: [ Abs: 0.00000  Tot: -0.00000 ]
	SubspaceRotationAdjust: set factor to 0.139
ElecMinimize: Iter:   1  G: -3789.640222640633056  |grad|_K:  1.765e-07  alpha:  6.845e-01  linmin:  3.274e-05  t[s]:  60033.99
	Linear fluid (dielectric constant: 78.4, screening length: 8.12261 Bohr) occupying 0.593529 of unit cell:	Completed after 16 iterations at t[s]:  60091.08
	Linear fluid (dielectric constant: 78.4, screening length: 8.12261 Bohr) occupying 0.593486 of unit cell:	Completed after 14 iterations at t[s]:  60133.28
	FillingsUpdate:  mu: -0.097800000  nElectrons: 495.346205  magneticMoment: [ Abs: 0.00000  Tot: -0.00000 ]
	SubspaceRotationAdjust: set factor to 0.109
ElecMinimize: Iter:   2  G: -3789.640234153215260  |grad|_K:  2.379e-07  alpha:  4.586e-01  linmin:  1.394e-05  t[s]:  60196.73
	Linear fluid (dielectric constant: 78.4, screening length: 8.12261 Bohr) occupying 0.593320 of unit cell:	Completed after 17 iterations at t[s]:  60254.31
	Linear fluid (dielectric constant: 78.4, screening length: 8.12261 Bohr) occupying 0.593356 of unit cell:	Completed after 12 iterations at t[s]:  60296.64
	FillingsUpdate:  mu: -0.097800000  nElectrons: 495.340897  magneticMoment: [ Abs: 0.00000  Tot: -0.00000 ]
	SubspaceRotationAdjust: set factor to 0.0853
ElecMinimize: Iter:   3  G: -3789.640250617955644  |grad|_K:  2.211e-07  alpha:  3.613e-01  linmin:  6.611e-06  t[s]:  60359.65
	Linear fluid (dielectric constant: 78.4, screening length: 8.12261 Bohr) occupying 0.593377 of unit cell:	Completed after 13 iterations at t[s]:  60416.45
	Linear fluid (dielectric constant: 78.4, screening length: 8.12261 Bohr) occupying 0.593381 of unit cell:	Completed after 2 iterations at t[s]:  60456.78
	FillingsUpdate:  mu: -0.097800000  nElectrons: 495.342060  magneticMoment: [ Abs: 0.00000  Tot: -0.00000 ]
	SubspaceRotationAdjust: set factor to 0.0961
ElecMinimize: Iter:   4  G: -3789.640267084236712  |grad|_K:  1.725e-07  alpha:  4.180e-01  linmin: -3.107e-05  t[s]:  60519.73
	Linear fluid (dielectric constant: 78.4, screening length: 8.12261 Bohr) occupying 0.593423 of unit cell:	Completed after 14 iterations at t[s]:  60577.13
	Linear fluid (dielectric constant: 78.4, screening length: 8.12261 Bohr) occupying 0.593422 of unit cell:	Completed after 0 iterations at t[s]:  60617.07
	FillingsUpdate:  mu: -0.097800000  nElectrons: 495.343844  magneticMoment: [ Abs: 0.00000  Tot: -0.00000 ]
	SubspaceRotationAdjust: set factor to 0.0931
ElecMinimize: Iter:   5  G: -3789.640277042588878  |grad|_K:  1.356e-07  alpha:  4.137e-01  linmin: -5.007e-05  t[s]:  60679.93
	Linear fluid (dielectric constant: 78.4, screening length: 8.12261 Bohr) occupying 0.593339 of unit cell:	Completed after 15 iterations at t[s]:  60736.66
	Linear fluid (dielectric constant: 78.4, screening length: 8.12261 Bohr) occupying 0.593365 of unit cell:	Completed after 12 iterations at t[s]:  60778.60
	FillingsUpdate:  mu: -0.097800000  nElectrons: 495.341548  magneticMoment: [ Abs: 0.00000  Tot: -0.00000 ]
	SubspaceRotationAdjust: set factor to 0.064
ElecMinimize: Iter:   6  G: -3789.640281290167877  |grad|_K:  9.924e-08  alpha:  2.869e-01  linmin: -1.692e-05  t[s]:  60841.49
	Linear fluid (dielectric constant: 78.4, screening length: 8.12261 Bohr) occupying 0.593390 of unit cell:	Completed after 11 iterations at t[s]:  60898.65
	Linear fluid (dielectric constant: 78.4, screening length: 8.12261 Bohr) occupying 0.593396 of unit cell:	Completed after 3 iterations at t[s]:  60938.98
	FillingsUpdate:  mu: -0.097800000  nElectrons: 495.342919  magneticMoment: [ Abs: 0.00000  Tot: -0.00000 ]
	SubspaceRotationAdjust: set factor to 0.0688
ElecMinimize: Iter:   7  G: -3789.640284118865566  |grad|_K:  6.649e-08  alpha:  3.556e-01  linmin: -1.315e-04  t[s]:  61001.94
	Linear fluid (dielectric constant: 78.4, screening length: 8.12261 Bohr) occupying 0.593415 of unit cell:	Completed after 11 iterations at t[s]:  61058.35
	Linear fluid (dielectric constant: 78.4, screening length: 8.12261 Bohr) occupying 0.593413 of unit cell:	Completed after 0 iterations at t[s]:  61098.09
	FillingsUpdate:  mu: -0.097800000  nElectrons: 495.343681  magneticMoment: [ Abs: 0.00000  Tot: -0.00000 ]
	SubspaceRotationAdjust: set factor to 0.067
ElecMinimize: Iter:   8  G: -3789.640285290163774  |grad|_K:  4.836e-08  alpha:  3.266e-01  linmin:  1.691e-04  t[s]:  61162.30
	Linear fluid (dielectric constant: 78.4, screening length: 8.12261 Bohr) occupying 0.593396 of unit cell:	Completed after 11 iterations at t[s]:  61218.73
	Linear fluid (dielectric constant: 78.4, screening length: 8.12261 Bohr) occupying 0.593397 of unit cell:	Completed after 0 iterations at t[s]:  61258.29
	FillingsUpdate:  mu: -0.097800000  nElectrons: 495.343072  magneticMoment: [ Abs: 0.00000  Tot: +0.00000 ]
	SubspaceRotationAdjust: set factor to 0.0491
ElecMinimize: Iter:   9  G: -3789.640285852875877  |grad|_K:  3.257e-08  alpha:  3.013e-01  linmin: -9.910e-05  t[s]:  61321.48
	Linear fluid (dielectric constant: 78.4, screening length: 8.12261 Bohr) occupying 0.593402 of unit cell:	Completed after 3 iterations at t[s]:  61376.74
	Linear fluid (dielectric constant: 78.4, screening length: 8.12261 Bohr) occupying 0.593402 of unit cell:	Completed after 0 iterations at t[s]:  61416.50
	FillingsUpdate:  mu: -0.097800000  nElectrons: 495.343290  magneticMoment: [ Abs: 0.00000  Tot: -0.00000 ]
	SubspaceRotationAdjust: set factor to 0.0601
ElecMinimize: Iter:  10  G: -3789.640286114733954  |grad|_K:  2.098e-08  alpha:  3.051e-01  linmin: -1.311e-03  t[s]:  61479.87
	Linear fluid (dielectric constant: 78.4, screening length: 8.12261 Bohr) occupying 0.593408 of unit cell:	Completed after 6 iterations at t[s]:  61535.65
	Linear fluid (dielectric constant: 78.4, screening length: 8.12261 Bohr) occupying 0.593407 of unit cell:	Completed after 0 iterations at t[s]:  61575.50
	FillingsUpdate:  mu: -0.097800000  nElectrons: 495.343544  magneticMoment: [ Abs: 0.00000  Tot: -0.00000 ]
	SubspaceRotationAdjust: set factor to 0.0539
ElecMinimize: Iter:  11  G: -3789.640286220544567  |grad|_K:  1.397e-08  alpha:  2.910e-01  linmin: -3.847e-03  t[s]:  61638.69
	Linear fluid (dielectric constant: 78.4, screening length: 8.12261 Bohr) occupying 0.593405 of unit cell:	Completed after 2 iterations at t[s]:  61693.65
	Linear fluid (dielectric constant: 78.4, screening length: 8.12261 Bohr) occupying 0.593405 of unit cell:	Completed after 0 iterations at t[s]:  61733.66
	FillingsUpdate:  mu: -0.097800000  nElectrons: 495.343450  magneticMoment: [ Abs: 0.00000  Tot: -0.00000 ]
	SubspaceRotationAdjust: set factor to 0.0716
ElecMinimize: Iter:  12  G: -3789.640286282045054  |grad|_K:  1.019e-08  alpha:  3.492e-01  linmin: -4.517e-03  t[s]:  61796.97
	Linear fluid (dielectric constant: 78.4, screening length: 8.12261 Bohr) occupying 0.593401 of unit cell:	Completed after 4 iterations at t[s]:  61852.24
	Linear fluid (dielectric constant: 78.4, screening length: 8.12261 Bohr) occupying 0.593402 of unit cell:	Completed after 0 iterations at t[s]:  61891.93
	FillingsUpdate:  mu: -0.097800000  nElectrons: 495.343357  magneticMoment: [ Abs: 0.00000  Tot: -0.00000 ]
	SubspaceRotationAdjust: set factor to 0.0666
ElecMinimize: Iter:  13  G: -3789.640286304088477  |grad|_K:  9.862e-09  alpha:  2.470e-01  linmin:  2.655e-03  t[s]:  61954.69
ElecMinimize: Converged (|Delta G|<1.000000e-07 for 2 iters).
Setting wave functions to eigenvectors of Hamiltonian
Converging empty states (this may take a while): |deigs|: 9.017e-09

Computing DFT-D3 correction:
# coordination-number Ag 6.737 8.974 8.224 9.066 9.112 9.033 9.133 9.103 8.976 8.257 4.923 8.973 5.573 8.974 9.033 8.976 9.103 9.133 8.974 9.112 9.067 8.224 4.923 8.258 6.737 5.573
# diagonal-C6 Ag 268.61 268.61 268.61 268.61 268.61 268.61 268.61 268.61 268.61 268.61 268.61 268.61 268.61 268.61 268.61 268.61 268.61 268.61 268.61 268.61 268.61 268.61 268.61 268.61 268.61 268.61
EvdW_6 =   -0.169014
EvdW_8 =   -0.228433

# Ionic positions in cartesian coordinates:
ion Ag  -0.003378408481950  10.562599402400451  25.219946139643429 1
ion Ag  -0.002845909130290   4.270965979008062  20.746411459198278 1
ion Ag   3.828910478470009   7.487553616790889  23.088084958005890 1
ion Ag   3.831078413672469   1.088607216978456  18.633093454673165 1
ion Ag  -0.001578753696847   8.505620366642811  14.359809636612896 1
ion Ag  -0.000181316792288   2.096538197345506  10.030749981270080 1
ion Ag   3.834838865594149  11.706052730294170  16.481405334397994 1
ion Ag   3.834478190098584   5.307112683674983  12.240372151831808 1
ion Ag   0.003769475293354  12.750256490312418   7.912201344068745 1
ion Ag   0.003425296331372   6.378870458171543   3.582331349982588 1
ion Ag  -3.836467001124735  13.774232967278985  27.025920096707708 1
ion Ag   3.836537723777423   9.583750891610803   5.854358755313894 1
ion Ag   3.836091765207259   3.221554306401502   1.551943136558831 1
ion Ag   3.829195478074648  12.739255400547966  21.784640137843670 1
ion Ag   3.832707030534665   6.407964020570931  17.608274945131143 1
ion Ag  -0.003508905753947   9.573104571612570  19.726958106932596 1
ion Ag  -0.001432462841225   3.198203459831077  15.398622230676439 1
ion Ag   3.830698902189472  10.618165031197753  11.157354583438028 1
ion Ag   3.835988932684405   4.232711195117634   6.892537458733455 1
ion Ag   0.002210748900131  13.819420820617752  13.279170179844410 1
ion Ag   0.001531023338184   7.415487651441707   9.005765006386065 1
ion Ag   0.003907404352609   1.015963339894259   4.551089905504718 1
ion Ag   3.836673025668991   8.549991861661026   0.612973998397153 1
ion Ag   3.829016139064117   2.124778385548292  24.056259972465060 1
ion Ag   0.003017933897239  11.761143621428529   2.418983608710235 1
ion Ag  -0.003495069327787   5.282819333619917  26.087117067671667 1

# Forces in Cartesian coordinates:
force Ag  -0.000008742653238  -0.000079983224406   0.000056630982627 1
force Ag   0.000005847806942  -0.000120646775842   0.000080659132115 1
force Ag  -0.000023253890129  -0.000099010857623   0.000077431120074 1
force Ag  -0.000019725640751  -0.000004430484629   0.000158876750001 1
force Ag   0.000001814899176   0.000024454809350  -0.000028788775265 1
force Ag   0.000011442796787   0.000070796370346  -0.000067129258848 1
force Ag   0.000000796925757   0.000020878205722   0.000098638994345 1
force Ag  -0.000004205747037   0.000050182907793  -0.000102176894677 1
force Ag   0.000008108611788   0.000065543364506  -0.000094637653678 1
force Ag   0.000025923322116  -0.000017341036352  -0.000313357687289 1
force Ag  -0.000008486649752  -0.000036311414500   0.000246445969061 1
force Ag   0.000006939163344  -0.000002243267160  -0.000210929173532 1
force Ag   0.000006312421492   0.000012469707574  -0.000072945840573 1
force Ag  -0.000004121636393   0.000008957717178   0.000208546284068 1
force Ag  -0.000012002646100  -0.000069450893156   0.000070707421615 1
force Ag  -0.000008917193930  -0.000065449970311   0.000092101967670 1
force Ag   0.000004975065118  -0.000048513084136   0.000105841353947 1
force Ag   0.000000392394915  -0.000015367638690  -0.000096821785901 1
force Ag  -0.000003128647244   0.000126076586607  -0.000084727240680 1
force Ag  -0.000000660551403  -0.000020894649830   0.000031685966687 1
force Ag   0.000018450144310   0.000009054042472  -0.000160026830244 1
force Ag   0.000025054872213   0.000099021712157  -0.000082947293742 1
force Ag   0.000012047043680   0.000038996588587  -0.000246159722516 1
force Ag  -0.000027312303302   0.000022914039018   0.000319548837622 1
force Ag   0.000009184742519   0.000088776699735  -0.000056257231995 1
force Ag  -0.000003611863713  -0.000009007701022   0.000072850755881 1

# Energy components:
   A_diel =       -0.4560409065567116
   Eewald =    41380.7371146841032896
       EH =    44942.2417152827038080
     Eloc =   -90763.1748736601148266
      Enl =      102.4706967345865394
     EvdW =       -0.3974474368922130
      Exc =     -377.0434169625963818
 Exc_core =        5.4124360164783196
       KE =      872.2004973892821909
  MuShift =       -0.0749606484057994
-------------------------------------
     Etot =    -3838.0842795074072455
       TS =        0.0005871147739054
-------------------------------------
        F =    -3838.0848666221809253
      muN =      -48.4445803180923278
-------------------------------------
        G =    -3789.6402863040884768


Dumping 'jdft.fillings' ... done
Dumping 'jdft.wfns' ... done
Dumping 'jdft.fluidState' ... done
Dumping 'jdft.ionpos' ... done
Dumping 'jdft.lattice' ... done
Dumping 'jdft.eigenvals' ... done
Dumping 'jdft.eigStats' ... 
	eMin: -3.482617 at state 36 ( [ +0.000000 +0.000000 +0.000000 ] spin -1 )
	HOMO: -0.098915 at state 1 ( [ +0.000000 +0.250000 +0.000000 ] spin 1 )
	mu  : -0.097800
	LUMO: -0.097727 at state 22 ( [ -0.444444 +0.500000 +0.000000 ] spin 1 )
	eMax: +0.188035 at state 5 ( [ +0.111111 +0.250000 +0.000000 ] spin 1 )
	HOMO-LUMO gap: +0.001188
	Optical gap  : +0.002634 at state 22 ( [ -0.444444 +0.500000 +0.000000 ] spin 1 )
Dumping 'jdft.Ecomponents' ... done
IonicMinimize: Iter:   9  G: -3789.640286304088477  |grad|_K:  9.276e-05  alpha:  1.000e+00  linmin: -1.299e-02  t[s]:  62116.33
IonicMinimize: Converged (|grad|_K<1.000000e-04).

#--- Lowdin population analysis ---
# oxidation-state Ag -0.161 -0.004 -0.074 +0.003 -0.004 +0.005 +0.001 +0.001 +0.002 -0.127 -0.116 -0.025 -0.112 -0.025 +0.005 +0.002 +0.001 +0.001 -0.004 -0.004 +0.003 -0.074 -0.116 -0.127 -0.161 -0.112
# magnetic-moments Ag -0.000 +0.000 +0.000 -0.000 +0.000 -0.000 -0.000 -0.000 +0.000 +0.000 -0.000 +0.000 +0.000 +0.000 +0.000 -0.000 +0.000 +0.000 -0.000 +0.000 +0.000 +0.000 -0.000 -0.000 +0.000 +0.000


Dumping 'jdft.n_up' ... done
Dumping 'jdft.n_dn' ... done
Dumping 'jdft.tau_up' ... done
Dumping 'jdft.tau_dn' ... done
Dumping 'jdft.eigenvals' ... done
Dumping 'jdft.eigStats' ... 
	eMin: -3.482617 at state 36 ( [ +0.000000 +0.000000 +0.000000 ] spin -1 )
	HOMO: -0.098915 at state 1 ( [ +0.000000 +0.250000 +0.000000 ] spin 1 )
	mu  : -0.097800
	LUMO: -0.097727 at state 22 ( [ -0.444444 +0.500000 +0.000000 ] spin 1 )
	eMax: +0.188035 at state 5 ( [ +0.111111 +0.250000 +0.000000 ] spin 1 )
	HOMO-LUMO gap: +0.001188
	Optical gap  : +0.002634 at state 22 ( [ -0.444444 +0.500000 +0.000000 ] spin 1 )
Dumping 'jdft.kPts' ... done
Dumping 'jdft.dosUp' ... done.
Dumping 'jdft.dosDn' ... done.
End date and time: Tue Dec  7 10:34:37 2021  (Duration: 0-17:16:49.44)
Done!
