
*************** JDFTx 1.6.0  ***************

Start date and time: Mon Dec  6 16:02:07 2021
Executable /projects/musgravc/apps/jdftx-1.6.1/build/jdftx with command-line: -i in
Running on hosts (process indices):  shas0553.rc.int.colorado.edu (0-23)
Divided in process groups (process indices):  0 (0)  1 (1)  2 (2)  3 (3)  4 (4)  5 (5)  6 (6)  7 (7)  8 (8)  9 (9)  10 (10)  11 (11)  12 (12)  13 (13)  14 (14)  15 (15)  16 (16)  17 (17)  18 (18)  19 (19)  20 (20)  21 (21)  22 (22)  23 (23)
Resource initialization completed at t[s]:      0.00
Run totals: 24 processes, 24 threads, 0 GPUs


Input parsed successfully to the following command list (including defaults):

basis kpoint-dependent
converge-empty-states yes
coords-type Cartesian
core-overlap-check none
coulomb-interaction Periodic
davidson-band-ratio 1.1
density-of-states Etol 1.000000e-06 Esigma 1.000000e-03 \
		Complete \
	Total \
	OrthoOrbital Cu 1   s \
	OrthoOrbital Cu 1   p \
	OrthoOrbital Cu 1   px \
	OrthoOrbital Cu 1   py \
	OrthoOrbital Cu 1   pz \
	OrthoOrbital Cu 1   d \
	OrthoOrbital Cu 1   dxy \
	OrthoOrbital Cu 1   dyz \
	OrthoOrbital Cu 1   dz2 \
	OrthoOrbital Cu 1   dxz \
	OrthoOrbital Cu 1   dx2-y2 \
	OrthoOrbital Cu 2   s \
	OrthoOrbital Cu 2   p \
	OrthoOrbital Cu 2   px \
	OrthoOrbital Cu 2   py \
	OrthoOrbital Cu 2   pz \
	OrthoOrbital Cu 2   d \
	OrthoOrbital Cu 2   dxy \
	OrthoOrbital Cu 2   dyz \
	OrthoOrbital Cu 2   dz2 \
	OrthoOrbital Cu 2   dxz \
	OrthoOrbital Cu 2   dx2-y2 \
	OrthoOrbital Cu 3   s \
	OrthoOrbital Cu 3   p \
	OrthoOrbital Cu 3   px \
	OrthoOrbital Cu 3   py \
	OrthoOrbital Cu 3   pz \
	OrthoOrbital Cu 3   d \
	OrthoOrbital Cu 3   dxy \
	OrthoOrbital Cu 3   dyz \
	OrthoOrbital Cu 3   dz2 \
	OrthoOrbital Cu 3   dxz \
	OrthoOrbital Cu 3   dx2-y2 \
	OrthoOrbital Cu 4   s \
	OrthoOrbital Cu 4   p \
	OrthoOrbital Cu 4   px \
	OrthoOrbital Cu 4   py \
	OrthoOrbital Cu 4   pz \
	OrthoOrbital Cu 4   d \
	OrthoOrbital Cu 4   dxy \
	OrthoOrbital Cu 4   dyz \
	OrthoOrbital Cu 4   dz2 \
	OrthoOrbital Cu 4   dxz \
	OrthoOrbital Cu 4   dx2-y2 \
	OrthoOrbital Cu 5   s \
	OrthoOrbital Cu 5   p \
	OrthoOrbital Cu 5   px \
	OrthoOrbital Cu 5   py \
	OrthoOrbital Cu 5   pz \
	OrthoOrbital Cu 5   d \
	OrthoOrbital Cu 5   dxy \
	OrthoOrbital Cu 5   dyz \
	OrthoOrbital Cu 5   dz2 \
	OrthoOrbital Cu 5   dxz \
	OrthoOrbital Cu 5   dx2-y2 \
	OrthoOrbital Cu 6   s \
	OrthoOrbital Cu 6   p \
	OrthoOrbital Cu 6   px \
	OrthoOrbital Cu 6   py \
	OrthoOrbital Cu 6   pz \
	OrthoOrbital Cu 6   d \
	OrthoOrbital Cu 6   dxy \
	OrthoOrbital Cu 6   dyz \
	OrthoOrbital Cu 6   dz2 \
	OrthoOrbital Cu 6   dxz \
	OrthoOrbital Cu 6   dx2-y2 \
	OrthoOrbital Cu 7   s \
	OrthoOrbital Cu 7   p \
	OrthoOrbital Cu 7   px \
	OrthoOrbital Cu 7   py \
	OrthoOrbital Cu 7   pz \
	OrthoOrbital Cu 7   d \
	OrthoOrbital Cu 7   dxy \
	OrthoOrbital Cu 7   dyz \
	OrthoOrbital Cu 7   dz2 \
	OrthoOrbital Cu 7   dxz \
	OrthoOrbital Cu 7   dx2-y2 \
	OrthoOrbital Cu 8   s \
	OrthoOrbital Cu 8   p \
	OrthoOrbital Cu 8   px \
	OrthoOrbital Cu 8   py \
	OrthoOrbital Cu 8   pz \
	OrthoOrbital Cu 8   d \
	OrthoOrbital Cu 8   dxy \
	OrthoOrbital Cu 8   dyz \
	OrthoOrbital Cu 8   dz2 \
	OrthoOrbital Cu 8   dxz \
	OrthoOrbital Cu 8   dx2-y2 \
	OrthoOrbital Cu 9   s \
	OrthoOrbital Cu 9   p \
	OrthoOrbital Cu 9   px \
	OrthoOrbital Cu 9   py \
	OrthoOrbital Cu 9   pz \
	OrthoOrbital Cu 9   d \
	OrthoOrbital Cu 9   dxy \
	OrthoOrbital Cu 9   dyz \
	OrthoOrbital Cu 9   dz2 \
	OrthoOrbital Cu 9   dxz \
	OrthoOrbital Cu 9   dx2-y2 \
	OrthoOrbital Cu 10   s \
	OrthoOrbital Cu 10   p \
	OrthoOrbital Cu 10   px \
	OrthoOrbital Cu 10   py \
	OrthoOrbital Cu 10   pz \
	OrthoOrbital Cu 10   d \
	OrthoOrbital Cu 10   dxy \
	OrthoOrbital Cu 10   dyz \
	OrthoOrbital Cu 10   dz2 \
	OrthoOrbital Cu 10   dxz \
	OrthoOrbital Cu 10   dx2-y2 \
	OrthoOrbital Cu 11   s \
	OrthoOrbital Cu 11   p \
	OrthoOrbital Cu 11   px \
	OrthoOrbital Cu 11   py \
	OrthoOrbital Cu 11   pz \
	OrthoOrbital Cu 11   d \
	OrthoOrbital Cu 11   dxy \
	OrthoOrbital Cu 11   dyz \
	OrthoOrbital Cu 11   dz2 \
	OrthoOrbital Cu 11   dxz \
	OrthoOrbital Cu 11   dx2-y2 \
	OrthoOrbital Cu 12   s \
	OrthoOrbital Cu 12   p \
	OrthoOrbital Cu 12   px \
	OrthoOrbital Cu 12   py \
	OrthoOrbital Cu 12   pz \
	OrthoOrbital Cu 12   d \
	OrthoOrbital Cu 12   dxy \
	OrthoOrbital Cu 12   dyz \
	OrthoOrbital Cu 12   dz2 \
	OrthoOrbital Cu 12   dxz \
	OrthoOrbital Cu 12   dx2-y2 \
	OrthoOrbital Cu 13   s \
	OrthoOrbital Cu 13   p \
	OrthoOrbital Cu 13   px \
	OrthoOrbital Cu 13   py \
	OrthoOrbital Cu 13   pz \
	OrthoOrbital Cu 13   d \
	OrthoOrbital Cu 13   dxy \
	OrthoOrbital Cu 13   dyz \
	OrthoOrbital Cu 13   dz2 \
	OrthoOrbital Cu 13   dxz \
	OrthoOrbital Cu 13   dx2-y2 \
	OrthoOrbital Cu 14   s \
	OrthoOrbital Cu 14   p \
	OrthoOrbital Cu 14   px \
	OrthoOrbital Cu 14   py \
	OrthoOrbital Cu 14   pz \
	OrthoOrbital Cu 14   d \
	OrthoOrbital Cu 14   dxy \
	OrthoOrbital Cu 14   dyz \
	OrthoOrbital Cu 14   dz2 \
	OrthoOrbital Cu 14   dxz \
	OrthoOrbital Cu 14   dx2-y2 \
	OrthoOrbital Cu 15   s \
	OrthoOrbital Cu 15   p \
	OrthoOrbital Cu 15   px \
	OrthoOrbital Cu 15   py \
	OrthoOrbital Cu 15   pz \
	OrthoOrbital Cu 15   d \
	OrthoOrbital Cu 15   dxy \
	OrthoOrbital Cu 15   dyz \
	OrthoOrbital Cu 15   dz2 \
	OrthoOrbital Cu 15   dxz \
	OrthoOrbital Cu 15   dx2-y2 \
	OrthoOrbital Cu 16   s \
	OrthoOrbital Cu 16   p \
	OrthoOrbital Cu 16   px \
	OrthoOrbital Cu 16   py \
	OrthoOrbital Cu 16   pz \
	OrthoOrbital Cu 16   d \
	OrthoOrbital Cu 16   dxy \
	OrthoOrbital Cu 16   dyz \
	OrthoOrbital Cu 16   dz2 \
	OrthoOrbital Cu 16   dxz \
	OrthoOrbital Cu 16   dx2-y2 \
	OrthoOrbital Cu 17   s \
	OrthoOrbital Cu 17   p \
	OrthoOrbital Cu 17   px \
	OrthoOrbital Cu 17   py \
	OrthoOrbital Cu 17   pz \
	OrthoOrbital Cu 17   d \
	OrthoOrbital Cu 17   dxy \
	OrthoOrbital Cu 17   dyz \
	OrthoOrbital Cu 17   dz2 \
	OrthoOrbital Cu 17   dxz \
	OrthoOrbital Cu 17   dx2-y2 \
	OrthoOrbital Cu 18   s \
	OrthoOrbital Cu 18   p \
	OrthoOrbital Cu 18   px \
	OrthoOrbital Cu 18   py \
	OrthoOrbital Cu 18   pz \
	OrthoOrbital Cu 18   d \
	OrthoOrbital Cu 18   dxy \
	OrthoOrbital Cu 18   dyz \
	OrthoOrbital Cu 18   dz2 \
	OrthoOrbital Cu 18   dxz \
	OrthoOrbital Cu 18   dx2-y2 \
	OrthoOrbital Cu 19   s \
	OrthoOrbital Cu 19   p \
	OrthoOrbital Cu 19   px \
	OrthoOrbital Cu 19   py \
	OrthoOrbital Cu 19   pz \
	OrthoOrbital Cu 19   d \
	OrthoOrbital Cu 19   dxy \
	OrthoOrbital Cu 19   dyz \
	OrthoOrbital Cu 19   dz2 \
	OrthoOrbital Cu 19   dxz \
	OrthoOrbital Cu 19   dx2-y2 \
	OrthoOrbital Cu 20   s \
	OrthoOrbital Cu 20   p \
	OrthoOrbital Cu 20   px \
	OrthoOrbital Cu 20   py \
	OrthoOrbital Cu 20   pz \
	OrthoOrbital Cu 20   d \
	OrthoOrbital Cu 20   dxy \
	OrthoOrbital Cu 20   dyz \
	OrthoOrbital Cu 20   dz2 \
	OrthoOrbital Cu 20   dxz \
	OrthoOrbital Cu 20   dx2-y2 \
	OrthoOrbital Cu 21   s \
	OrthoOrbital Cu 21   p \
	OrthoOrbital Cu 21   px \
	OrthoOrbital Cu 21   py \
	OrthoOrbital Cu 21   pz \
	OrthoOrbital Cu 21   d \
	OrthoOrbital Cu 21   dxy \
	OrthoOrbital Cu 21   dyz \
	OrthoOrbital Cu 21   dz2 \
	OrthoOrbital Cu 21   dxz \
	OrthoOrbital Cu 21   dx2-y2 \
	OrthoOrbital Cu 22   s \
	OrthoOrbital Cu 22   p \
	OrthoOrbital Cu 22   px \
	OrthoOrbital Cu 22   py \
	OrthoOrbital Cu 22   pz \
	OrthoOrbital Cu 22   d \
	OrthoOrbital Cu 22   dxy \
	OrthoOrbital Cu 22   dyz \
	OrthoOrbital Cu 22   dz2 \
	OrthoOrbital Cu 22   dxz \
	OrthoOrbital Cu 22   dx2-y2 \
	OrthoOrbital Cu 23   s \
	OrthoOrbital Cu 23   p \
	OrthoOrbital Cu 23   px \
	OrthoOrbital Cu 23   py \
	OrthoOrbital Cu 23   pz \
	OrthoOrbital Cu 23   d \
	OrthoOrbital Cu 23   dxy \
	OrthoOrbital Cu 23   dyz \
	OrthoOrbital Cu 23   dz2 \
	OrthoOrbital Cu 23   dxz \
	OrthoOrbital Cu 23   dx2-y2 \
	OrthoOrbital Cu 24   s \
	OrthoOrbital Cu 24   p \
	OrthoOrbital Cu 24   px \
	OrthoOrbital Cu 24   py \
	OrthoOrbital Cu 24   pz \
	OrthoOrbital Cu 24   d \
	OrthoOrbital Cu 24   dxy \
	OrthoOrbital Cu 24   dyz \
	OrthoOrbital Cu 24   dz2 \
	OrthoOrbital Cu 24   dxz \
	OrthoOrbital Cu 24   dx2-y2 \
	OrthoOrbital Cu 25   s \
	OrthoOrbital Cu 25   p \
	OrthoOrbital Cu 25   px \
	OrthoOrbital Cu 25   py \
	OrthoOrbital Cu 25   pz \
	OrthoOrbital Cu 25   d \
	OrthoOrbital Cu 25   dxy \
	OrthoOrbital Cu 25   dyz \
	OrthoOrbital Cu 25   dz2 \
	OrthoOrbital Cu 25   dxz \
	OrthoOrbital Cu 25   dx2-y2 \
	OrthoOrbital Cu 26   s \
	OrthoOrbital Cu 26   p \
	OrthoOrbital Cu 26   px \
	OrthoOrbital Cu 26   py \
	OrthoOrbital Cu 26   pz \
	OrthoOrbital Cu 26   d \
	OrthoOrbital Cu 26   dxy \
	OrthoOrbital Cu 26   dyz \
	OrthoOrbital Cu 26   dz2 \
	OrthoOrbital Cu 26   dxz \
	OrthoOrbital Cu 26   dx2-y2 \
	OrthoOrbital Cu 27   s \
	OrthoOrbital Cu 27   p \
	OrthoOrbital Cu 27   px \
	OrthoOrbital Cu 27   py \
	OrthoOrbital Cu 27   pz \
	OrthoOrbital Cu 27   d \
	OrthoOrbital Cu 27   dxy \
	OrthoOrbital Cu 27   dyz \
	OrthoOrbital Cu 27   dz2 \
	OrthoOrbital Cu 27   dxz \
	OrthoOrbital Cu 27   dx2-y2 \
	OrthoOrbital Cu 28   s \
	OrthoOrbital Cu 28   p \
	OrthoOrbital Cu 28   px \
	OrthoOrbital Cu 28   py \
	OrthoOrbital Cu 28   pz \
	OrthoOrbital Cu 28   d \
	OrthoOrbital Cu 28   dxy \
	OrthoOrbital Cu 28   dyz \
	OrthoOrbital Cu 28   dz2 \
	OrthoOrbital Cu 28   dxz \
	OrthoOrbital Cu 28   dx2-y2
dump End ElecDensity KEdensity BandEigs EigStats RhoAtom DOS Kpoints
dump Ionic State IonicPositions Lattice EigStats Ecomponents
dump 
dump 
dump 
dump 
dump 
dump 
dump 
dump 
dump-name jdft.$VAR
elec-cutoff 20
elec-eigen-algo Davidson
elec-ex-corr gga-PBE
elec-initial-magnetization 0.000000 no
elec-n-bands 320
elec-smearing Fermi 0.001
electronic-minimize  \
	dirUpdateScheme      FletcherReeves \
	linminMethod         DirUpdateRecommended \
	nIterations          100 \
	history              15 \
	knormThreshold       0 \
	energyDiffThreshold  1e-07 \
	nEnergyDiff          2 \
	alphaTstart          1 \
	alphaTmin            1e-10 \
	updateTestStepSize   yes \
	alphaTreduceFactor   0.1 \
	alphaTincreaseFactor 3 \
	nAlphaAdjustMax      3 \
	wolfeEnergy          0.0001 \
	wolfeGradient        0.9 \
	fdTest               no
exchange-regularization WignerSeitzTruncated
fluid LinearPCM 298.000000 1.013250
fluid-anion F- 0.5 MeanFieldLJ \
	epsBulk 1 \
	pMol 0 \
	epsInf 1 \
	Pvap 0 \
	sigmaBulk 0 \
	Rvdw 2.24877 \
	Res 0 \
	tauNuc 343133
fluid-cation Na+ 0.5 MeanFieldLJ \
	epsBulk 1 \
	pMol 0 \
	epsInf 1 \
	Pvap 0 \
	sigmaBulk 0 \
	Rvdw 2.19208 \
	Res 0 \
	tauNuc 343133
fluid-ex-corr lda-TF lda-PZ
fluid-gummel-loop 10 1.000000e-05
fluid-minimize  \
	dirUpdateScheme      PolakRibiere \
	linminMethod         DirUpdateRecommended \
	nIterations          400 \
	history              15 \
	knormThreshold       1e-11 \
	energyDiffThreshold  0 \
	nEnergyDiff          2 \
	alphaTstart          1 \
	alphaTmin            1e-10 \
	updateTestStepSize   yes \
	alphaTreduceFactor   0.1 \
	alphaTincreaseFactor 3 \
	nAlphaAdjustMax      6 \
	wolfeEnergy          0.0001 \
	wolfeGradient        0.9 \
	fdTest               no
fluid-solvent H2O 55.338 ScalarEOS \
	epsBulk 78.4 \
	pMol 0.92466 \
	epsInf 1.77 \
	Pvap 1.06736e-10 \
	sigmaBulk 4.62e-05 \
	Rvdw 2.61727 \
	Res 1.42 \
	tauNuc 343133 \
	poleEl 15 7 1
forces-output-coords Positions
ion Cu   0.000000000000000   0.000000000000000  24.772200000000005 1
ion Cu   5.504022000000000   5.884051999999999   1.351200000000000 1
ion Cu   5.504025000000000   1.471010000000000   3.152850000000000 1
ion Cu   2.752014000000000   7.355062999999999   4.954425000000000 1
ion Cu   2.752008000000000   2.942021000000000   6.756075000000000 1
ion Cu  -0.000002999999999   8.826072999999997   8.557650000000001 1
ion Cu   0.000000000000000   4.413030999999999  10.359299999999999 1
ion Cu   5.504022000000000   5.884051999999999  13.962525000000001 1
ion Cu   0.000000000000000   0.000000000000000  12.160875000000001 1
ion Cu   5.504025000000000   1.471010000000000  15.764099999999999 1
ion Cu   2.752014000000000   7.355062999999999  17.565750000000001 1
ion Cu   2.752008000000000   2.942021000000000  19.367325000000001 1
ion Cu  -0.000002999999999   8.826072999999997  21.168975000000000 1
ion Cu   0.000000000000000   4.413030999999999  22.970550000000003 1
ion Cu   1.376003000000000   3.677531000000000   2.252025000000000 1
ion Cu  -1.376006000000000   9.561572999999997   4.053600000000000 1
ion Cu  -1.376006000000000   5.148541999999999   5.855250000000000 1
ion Cu   6.880027999999999   0.735510000000000   7.656825000000000 1
ion Cu   4.128019000000000   6.619551999999999   9.458475000000000 1
ion Cu   4.128020000000000   2.206521000000000  11.260126000000000 1
ion Cu   1.376002000000000   8.090563000000000  13.061700000000000 1
ion Cu  -1.376006000000000   9.561572999999997  16.664925000000000 1
ion Cu   1.376003000000000   3.677531000000000  14.863351000000002 1
ion Cu  -1.376006000000000   5.148541999999999  18.466576000000000 1
ion Cu   6.880027999999999   0.735510000000000  20.268149999999999 1
ion Cu   4.128019000000000   6.619551999999999  22.069800999999998 1
ion Cu   4.128020000000000   2.206521000000000  23.871375000000004 1
ion Cu   1.376002000000000   8.090563000000000   0.450375000000000 1
ion-species /projects/musgravc/apps/jdftx-1.6.0/build/pseudopotentials/GBRV_v1.5/$ID_pbe_v1.uspp
ion-species /projects/musgravc/apps/jdftx-1.6.0/build/pseudopotentials/GBRV_v1.5/$ID_pbe_v1.2.uspp
ion-species /projects/musgravc/apps/jdftx-1.6.0/build/pseudopotentials/GBRV_v1.5/$ID_pbe_v1.4.uspp
ion-species /projects/musgravc/apps/jdftx-1.6.0/build/pseudopotentials/GBRV_v1.5/$ID_pbe_v1.5.uspp
ion-width Ecut
ionic-minimize  \
	dirUpdateScheme      L-BFGS \
	linminMethod         DirUpdateRecommended \
	nIterations          100 \
	history              15 \
	knormThreshold       0.0001 \
	energyDiffThreshold  1e-06 \
	nEnergyDiff          2 \
	alphaTstart          1 \
	alphaTmin            1e-10 \
	updateTestStepSize   yes \
	alphaTreduceFactor   0.1 \
	alphaTincreaseFactor 3 \
	nAlphaAdjustMax      3 \
	wolfeEnergy          0.0001 \
	wolfeGradient        0.9 \
	fdTest               no
kpoint   0.000000000000   0.000000000000   0.000000000000  1.00000000000000
kpoint-folding 7 5 1 
latt-move-scale 0 0 0
latt-scale 1 1 1 
lattice  \
	   8.256034000000000   -2.752012000000000    0.000000000000000  \
	   0.000000000000000   10.297084000000000    0.000000000000000  \
	  -0.000000000000000    0.000000000000000   75.667800999999997 
lattice-minimize  \
	dirUpdateScheme      L-BFGS \
	linminMethod         DirUpdateRecommended \
	nIterations          0 \
	history              15 \
	knormThreshold       0 \
	energyDiffThreshold  1e-06 \
	nEnergyDiff          2 \
	alphaTstart          1 \
	alphaTmin            1e-10 \
	updateTestStepSize   yes \
	alphaTreduceFactor   0.1 \
	alphaTincreaseFactor 3 \
	nAlphaAdjustMax      3 \
	wolfeEnergy          0.0001 \
	wolfeGradient        0.9 \
	fdTest               no
lcao-params 30 1e-06 0.001
pcm-variant CANDLE
spintype z-spin
subspace-rotation-factor 1 yes
symmetries none
symmetry-threshold 0.0001
target-mu -0.1713 no

van-der-waals D3


Applied RMS atom displacement 0 bohrs to make symmetries exact.

---------- Initializing the Grid ----------
R = 
[      8.25603     -2.75201            0  ]
[            0      10.2971            0  ]
[            0            0      75.6678  ]
unit cell volume = 6432.75
G =
[   0.761042   0.203397         -0  ]
[         -0   0.610191          0  ]
[          0          0  0.0830364  ]
Minimum fftbox size, Smin = [  36  44  308  ]
Chosen fftbox size, S = [  36  48  320  ]

---------- Exchange Correlation functional ----------
Initalized PBE GGA exchange.
Initalized PBE GGA correlation.

---------- Setting up pseudopotentials ----------
Width of ionic core gaussian charges (only for fluid interactions / plotting) set to 0.397384

Reading pseudopotential file '/projects/musgravc/apps/jdftx-1.6.0/build/pseudopotentials/GBRV_v1.5/cu_pbe_v1.2.uspp':
  Title: Cu.  Created by USPP 7.3.6 on 3-2-2014
  Reference state energy: -201.059491.  19 valence electrons in orbitals:
    |300>  occupation: 2  eigenvalue: -5.020764
    |310>  occupation: 6  eigenvalue: -3.445588
    |320>  occupation: 8  eigenvalue: -0.925168
    |400>  occupation: 2  eigenvalue: -0.567638
    |410>  occupation: 0  eigenvalue: -0.326154
  lMax: 2  lLocal: 3  QijEcut: 6
  6 projectors sampled on a log grid with 613 points:
    l: 0  eig: -5.020767  rCut: 1.4
    l: 0  eig: -0.567640  rCut: 1.4
    l: 1  eig: -3.445589  rCut: 1.55
    l: 1  eig: -0.326157  rCut: 1.55
    l: 2  eig: -0.925170  rCut: 1.5
    l: 2  eig: 1.500000  rCut: 1.5
  Partial core density with radius 0.8
  Transforming core density to a uniform radial grid of dG=0.02 with 1328 points.
  Transforming local potential to a uniform radial grid of dG=0.02 with 1328 points.
  Transforming nonlocal projectors to a uniform radial grid of dG=0.02 with 432 points.
  Transforming density augmentations to a uniform radial grid of dG=0.02 with 1328 points.
  Transforming atomic orbitals to a uniform radial grid of dG=0.02 with 432 points.
  Core radius for overlap checks: 1.55 bohrs.

Initialized 1 species with 28 total atoms.

Folded 1 k-points by 7x5x1 to 35 k-points.

---------- Setting up k-points, bands, fillings ----------
No reducable k-points. 
Computing the number of bands and number of electrons
Calculating initial fillings.
nElectrons: 532.000000   nBands: 320   nStates: 70

----- Setting up reduced wavefunction bases (one per k-point) -----
average nbasis = 27481.743 , ideal nbasis = 27481.209

----- Initializing Supercell corresponding to k-point mesh -----
Lattice vector linear combinations in supercell:
[   7   0   0  ]
[   0   5   0  ]
[   0   0   1  ]
Supercell lattice vectors:
[  57.7922  -13.7601  0  ]
[  0  51.4854  0  ]
[  0  0  75.6678  ]

Initializing DFT-D3 calculator:
	Parameters set for gga-PBE functional
	s6:  1.000  s_r6:  1.217
	s8:  0.722  s_r8:  1.000
	Per-atom parameters loaded for:
	Cu:  sqrtQ[a0]:  5.226  Rcov[a0]:  1.909  CN: [ 0.00 0.96 ]

Initializing DFT-D2 calculator for fluid / solvation:
	Cu:  C6:  187.33 Eh-a0^6  R0: 2.952 a0

---------- Setting up ewald sum ----------
Optimum gaussian width for ewald sums = 4.257775 bohr.
Real space sum over 825 unit cells with max indices [  7  5  2  ]
Reciprocal space sum over 5643 terms with max indices [  4  5  28  ]

Computing DFT-D3 correction:
# coordination-number Cu 4.585 6.082 7.607 9.125 9.152 9.158 9.160 9.160 9.160 9.159 9.156 9.147 8.374 6.852 6.852 8.374 9.147 9.156 9.159 9.160 9.160 9.158 9.160 9.152 9.125 7.607 6.082 4.585
# diagonal-C6 Cu 175.00 175.00 175.00 175.00 175.00 175.00 175.00 175.00 175.00 175.00 175.00 175.00 175.00 175.00 175.00 175.00 175.00 175.00 175.00 175.00 175.00 175.00 175.00 175.00 175.00 175.00 175.00 175.00
EvdW_6 =   -0.175894
EvdW_8 =   -0.258546

---------- Allocating electronic variables ----------
Initializing wave functions:  linear combination of atomic orbitals
Cu pseudo-atom occupations:   s ( 2 1 )  p ( 6 0 )  d ( 10 )
	FillingsUpdate:  mu: -0.171300000  nElectrons: 532.000000  magneticMoment: [ Abs: 0.20009  Tot: +0.00504 ]
LCAOMinimize: Iter:   0  G: -5429.7863271989544955  |grad|_K:  3.215e-02  alpha:  1.000e+00
LCAOMinimize: 	Step increased G by 1.913506e+03, reducing alpha to 3.992640e-02.
LCAOMinimize: 	Step increased G by 2.808267e+02, reducing alpha to 3.992640e-03.
	FillingsUpdate:  mu: -0.171300000  nElectrons: 532.000000  magneticMoment: [ Abs: 0.20032  Tot: +0.00340 ]
LCAOMinimize: Iter:   1  G: -5455.6521767952490336  |grad|_K:  1.176e-02  alpha:  3.993e-03  linmin: -1.904e-01  cgtest:  7.754e-01  t[s]:    338.12
LCAOMinimize: Encountered beta<0, resetting CG.
LCAOMinimize: 	Predicted alpha/alphaT>3.000000, increasing alphaT to 1.197792e-02.
	FillingsUpdate:  mu: -0.171300000  nElectrons: 532.000000  magneticMoment: [ Abs: 0.20559  Tot: -0.00464 ]
LCAOMinimize: Iter:   2  G: -5464.3307721689516256  |grad|_K:  1.209e-02  alpha:  1.334e-02  linmin: -6.836e-03  cgtest: -8.915e-03  t[s]:    442.60
LCAOMinimize: 	Predicted alpha/alphaT>3.000000, increasing alphaT to 4.003019e-02.
	FillingsUpdate:  mu: -0.171300000  nElectrons: 532.000000  magneticMoment: [ Abs: 0.02721  Tot: +0.00002 ]
LCAOMinimize: Iter:   3  G: -5492.7749196659005975  |grad|_K:  1.776e-02  alpha:  3.928e-02  linmin:  1.458e-02  cgtest:  1.709e-01  t[s]:    547.17
	FillingsUpdate:  mu: -0.171300000  nElectrons: 532.000000  magneticMoment: [ Abs: 0.00109  Tot: +0.00008 ]
LCAOMinimize: Iter:   4  G: -5550.0428534855209364  |grad|_K:  3.136e-03  alpha:  5.469e-02  linmin:  2.474e-02  cgtest:  3.045e-01  t[s]:    631.89
LCAOMinimize: Encountered beta<0, resetting CG.
	FillingsUpdate:  mu: -0.171300000  nElectrons: 532.000000  magneticMoment: [ Abs: 0.00113  Tot: +0.00004 ]
LCAOMinimize: Iter:   5  G: -5551.1664376634653308  |grad|_K:  1.877e-03  alpha:  2.270e-02  linmin: -1.445e-02  cgtest:  3.753e-02  t[s]:    715.18
LCAOMinimize: 	Predicted alpha/alphaT>3.000000, increasing alphaT to 6.809411e-02.
LCAOMinimize: 	Predicted alpha/alphaT>3.000000, increasing alphaT to 2.042823e-01.
	FillingsUpdate:  mu: -0.171300000  nElectrons: 532.000000  magneticMoment: [ Abs: 0.00121  Tot: +0.00003 ]
LCAOMinimize: Iter:   6  G: -5552.3235003986337688  |grad|_K:  1.723e-03  alpha:  3.422e-02  linmin: -1.114e-01  cgtest:  8.855e-01  t[s]:    840.56
	FillingsUpdate:  mu: -0.171300000  nElectrons: 532.000000  magneticMoment: [ Abs: 0.00131  Tot: +0.00007 ]
LCAOMinimize: Iter:   7  G: -5552.9748485497202637  |grad|_K:  2.563e-03  alpha:  4.711e-02  linmin:  7.175e-03  cgtest: -1.289e-01  t[s]:    924.43
	FillingsUpdate:  mu: -0.171300000  nElectrons: 532.000000  magneticMoment: [ Abs: 0.00150  Tot: +0.00015 ]
LCAOMinimize: Iter:   8  G: -5553.8428276158720109  |grad|_K:  3.323e-03  alpha:  1.965e-02  linmin: -1.487e-02  cgtest:  8.588e-01  t[s]:   1007.51
	FillingsUpdate:  mu: -0.171300000  nElectrons: 532.000000  magneticMoment: [ Abs: 0.00162  Tot: +0.00018 ]
LCAOMinimize: Iter:   9  G: -5554.8068567074333259  |grad|_K:  1.290e-03  alpha:  1.542e-02  linmin:  5.599e-03  cgtest: -3.662e-01  t[s]:   1090.47
LCAOMinimize: 	Predicted alpha/alphaT>3.000000, increasing alphaT to 4.625219e-02.
LCAOMinimize: 	Step increased G by 5.712055e-01, reducing alpha to 1.261684e-02.
	FillingsUpdate:  mu: -0.171300000  nElectrons: 532.000000  magneticMoment: [ Abs: 0.00167  Tot: +0.00017 ]
LCAOMinimize: Iter:  10  G: -5554.9868706933411886  |grad|_K:  1.419e-03  alpha:  1.262e-02  linmin: -6.079e-02  cgtest:  9.554e-01  t[s]:   1257.74
	FillingsUpdate:  mu: -0.171300000  nElectrons: 532.000000  magneticMoment: [ Abs: 0.00172  Tot: +0.00016 ]
LCAOMinimize: Iter:  11  G: -5555.2305997226540057  |grad|_K:  1.476e-03  alpha:  2.344e-02  linmin:  1.577e-03  cgtest: -1.969e-01  t[s]:   1340.95
LCAOMinimize: 	Predicted alpha/alphaT>3.000000, increasing alphaT to 7.030993e-02.
	FillingsUpdate:  mu: -0.171300000  nElectrons: 532.000000  magneticMoment: [ Abs: 0.00179  Tot: +0.00013 ]
LCAOMinimize: Iter:  12  G: -5555.5493322609590905  |grad|_K:  1.578e-03  alpha:  1.780e-02  linmin: -3.803e-02  cgtest:  9.240e-01  t[s]:   1445.91
	FillingsUpdate:  mu: -0.171300000  nElectrons: 532.000000  magneticMoment: [ Abs: 0.00181  Tot: +0.00011 ]
LCAOMinimize: Iter:  13  G: -5555.7341111780806386  |grad|_K:  8.946e-04  alpha:  1.432e-02  linmin:  2.396e-03  cgtest: -2.295e-01  t[s]:   1530.29
LCAOMinimize: 	Predicted alpha/alphaT>3.000000, increasing alphaT to 4.296746e-02.
LCAOMinimize: 	Predicted alpha/alphaT>3.000000, increasing alphaT to 1.289024e-01.
	FillingsUpdate:  mu: -0.171300000  nElectrons: 532.000000  magneticMoment: [ Abs: 0.00202  Tot: +0.00000 ]
LCAOMinimize: Iter:  14  G: -5556.1441349816868751  |grad|_K:  1.294e-03  alpha:  6.846e-02  linmin: -2.744e-02  cgtest:  7.401e-01  t[s]:   1656.14
	FillingsUpdate:  mu: -0.171300000  nElectrons: 532.000000  magneticMoment: [ Abs: 0.00203  Tot: -0.00001 ]
LCAOMinimize: Iter:  15  G: -5556.1995680343416097  |grad|_K:  9.270e-04  alpha:  3.202e-03  linmin: -1.016e-01  cgtest:  9.775e-01  t[s]:   1739.34
LCAOMinimize: Encountered beta<0, resetting CG.
LCAOMinimize: 	Predicted alpha/alphaT>3.000000, increasing alphaT to 9.605562e-03.
	FillingsUpdate:  mu: -0.171300000  nElectrons: 532.000000  magneticMoment: [ Abs: 0.00205  Tot: -0.00001 ]
LCAOMinimize: Iter:  16  G: -5556.2455310179520893  |grad|_K:  5.318e-04  alpha:  1.151e-02  linmin:  3.444e-03  cgtest: -3.020e-02  t[s]:   1844.46
LCAOMinimize: 	Predicted alpha/alphaT>3.000000, increasing alphaT to 3.452942e-02.
LCAOMinimize: 	Predicted alpha/alphaT>3.000000, increasing alphaT to 1.035883e-01.
	FillingsUpdate:  mu: -0.171300000  nElectrons: 532.000000  magneticMoment: [ Abs: 0.00228  Tot: -0.00009 ]
LCAOMinimize: Iter:  17  G: -5556.3843036116932126  |grad|_K:  4.651e-04  alpha:  1.071e-01  linmin:  9.797e-03  cgtest:  1.059e-01  t[s]:   1970.47
	FillingsUpdate:  mu: -0.171300000  nElectrons: 532.000000  magneticMoment: [ Abs: 0.00236  Tot: -0.00015 ]
LCAOMinimize: Iter:  18  G: -5556.4178406043265568  |grad|_K:  5.608e-04  alpha:  2.821e-02  linmin: -1.639e-02  cgtest:  2.331e-01  t[s]:   2054.59
	FillingsUpdate:  mu: -0.171300000  nElectrons: 532.000000  magneticMoment: [ Abs: 0.00243  Tot: -0.00018 ]
LCAOMinimize: Iter:  19  G: -5556.4463944118842846  |grad|_K:  2.685e-04  alpha:  1.542e-02  linmin: -7.795e-03  cgtest: -4.045e-01  t[s]:   2138.06
	FillingsUpdate:  mu: -0.171300000  nElectrons: 532.000000  magneticMoment: [ Abs: 0.00248  Tot: -0.00020 ]
LCAOMinimize: Iter:  20  G: -5556.4537376251073511  |grad|_K:  1.111e-04  alpha:  2.010e-02  linmin:  2.149e-03  cgtest:  9.161e-02  t[s]:   2221.37
	FillingsUpdate:  mu: -0.171300000  nElectrons: 532.000000  magneticMoment: [ Abs: 0.00251  Tot: -0.00019 ]
LCAOMinimize: Iter:  21  G: -5556.4565629870239718  |grad|_K:  1.082e-04  alpha:  4.895e-02  linmin: -1.825e-03  cgtest:  5.253e-02  t[s]:   2304.79
	FillingsUpdate:  mu: -0.171300000  nElectrons: 532.000000  magneticMoment: [ Abs: 0.00253  Tot: -0.00020 ]
LCAOMinimize: Iter:  22  G: -5556.4577674873862634  |grad|_K:  1.194e-04  alpha:  2.154e-02  linmin: -4.419e-04  cgtest: -9.955e-03  t[s]:   2389.19
	FillingsUpdate:  mu: -0.171300000  nElectrons: 532.000000  magneticMoment: [ Abs: 0.00257  Tot: -0.00021 ]
LCAOMinimize: Iter:  23  G: -5556.4592986730194752  |grad|_K:  1.103e-04  alpha:  2.288e-02  linmin:  1.500e-04  cgtest: -9.303e-03  t[s]:   2472.23
	FillingsUpdate:  mu: -0.171300000  nElectrons: 532.000000  magneticMoment: [ Abs: 0.00269  Tot: -0.00023 ]
LCAOMinimize: Iter:  24  G: -5556.4624282630393282  |grad|_K:  7.555e-05  alpha:  5.529e-02  linmin:  1.801e-04  cgtest:  7.580e-02  t[s]:   2555.17
	FillingsUpdate:  mu: -0.171300000  nElectrons: 532.000000  magneticMoment: [ Abs: 0.00273  Tot: -0.00024 ]
LCAOMinimize: Iter:  25  G: -5556.4633916045831938  |grad|_K:  9.858e-05  alpha:  3.637e-02  linmin:  2.355e-05  cgtest:  3.325e-03  t[s]:   2638.51
	FillingsUpdate:  mu: -0.171300000  nElectrons: 532.000000  magneticMoment: [ Abs: 0.00276  Tot: -0.00024 ]
LCAOMinimize: Iter:  26  G: -5556.4639172861698171  |grad|_K:  3.710e-05  alpha:  1.137e-02  linmin: -2.093e-03  cgtest:  5.098e-02  t[s]:   2721.68
LCAOMinimize: 	Predicted alpha/alphaT>3.000000, increasing alphaT to 3.411228e-02.
	FillingsUpdate:  mu: -0.171300000  nElectrons: 532.000000  magneticMoment: [ Abs: 0.00278  Tot: -0.00025 ]
LCAOMinimize: Iter:  27  G: -5556.4642119059917604  |grad|_K:  3.104e-05  alpha:  4.553e-02  linmin:  1.600e-03  cgtest: -3.965e-02  t[s]:   2826.59
	FillingsUpdate:  mu: -0.171300000  nElectrons: 532.000000  magneticMoment: [ Abs: 0.00279  Tot: -0.00025 ]
LCAOMinimize: Iter:  28  G: -5556.4643320738941838  |grad|_K:  2.584e-05  alpha:  2.719e-02  linmin:  6.582e-04  cgtest:  1.878e-02  t[s]:   2909.61
	FillingsUpdate:  mu: -0.171300000  nElectrons: 532.000000  magneticMoment: [ Abs: 0.00280  Tot: -0.00025 ]
LCAOMinimize: Iter:  29  G: -5556.4643825429347999  |grad|_K:  2.630e-05  alpha:  1.633e-02  linmin:  2.892e-04  cgtest: -5.117e-03  t[s]:   2993.48
LCAOMinimize: 	Predicted alpha/alphaT>3.000000, increasing alphaT to 4.898397e-02.
	FillingsUpdate:  mu: -0.171300000  nElectrons: 532.000000  magneticMoment: [ Abs: 0.00285  Tot: -0.00026 ]
LCAOMinimize: Iter:  30  G: -5556.4645629436054151  |grad|_K:  1.282e-05  alpha:  5.623e-02  linmin:  2.447e-04  cgtest: -2.958e-02  t[s]:   3098.22
LCAOMinimize: None of the convergence criteria satisfied after 30 iterations.
----- createFluidSolver() ----- (Fluid-side solver setup)
   Initializing fluid molecule 'H2O'
     Initializing site 'O'
       Electron density: proportional to exp(-r/0.36935)*erfc((r-0.51523)/0.36823) with norm 6.826
       Charge density: gaussian nuclear width 0.478731 with net site charge 0.826
       Polarizability: cuspless exponential with width 0.32 and norm 3.73
       Hard sphere radius: 2.57003 bohrs
       Positions in reference frame:
         [ +0.000000 +0.000000 +0.000000 ]
     Initializing site 'H'
       Electron density: proportional to exp(-r/0.34641)*erfc((r-0)/0.390882) with norm 0.587
       Charge density: gaussian nuclear width 0.377945 with net site charge -0.413
       Polarizability: cuspless exponential with width 0.39 and norm 3.3
       Positions in reference frame:
         [ +0.000000 -1.441945 +1.122523 ]
         [ +0.000000 +1.441945 +1.122523 ]
     Net charge: 0   dipole magnitude: 0.927204
     Initializing spherical shell mfKernel with radius 2.61727 Bohr
     deltaS corrections:
       site 'O': -7.54299
       site 'H': -6.83917
   Initializing fluid molecule 'Na+'
     Initializing site 'Na'
       Electron density: proportional to exp(-r/0.19682)*erfc((r-0.71491)/0.41314) with norm 8.1383
       Charge density: gaussian nuclear width 0.365347 with net site charge -1
       Hard sphere radius: 1.86327 bohrs
       Positions in reference frame:
         [ +0.000000 +0.000000 +0.000000 ]
     Net charge: -1   dipole magnitude: 0
     Initializing gaussian mfKernel with width: 1.55004 Bohr
     deltaS corrections:
       site 'Na': -22.3555
   Initializing fluid molecule 'F-'
     Initializing site 'F'
       Electron density: proportional to exp(-r/0.38886)*erfc((r-0)/0.438782) with norm 8
       Charge density: gaussian nuclear width 0.374796 with net site charge 1
       Hard sphere radius: 2.39995 bohrs
       Positions in reference frame:
         [ +0.000000 +0.000000 +0.000000 ]
     Net charge: 1   dipole magnitude: 0
     Initializing gaussian mfKernel with width: 1.59012 Bohr
     deltaS corrections:
       site 'F': -9.04335

Correction to mu due to finite nuclear width = -0.0820568
   Cavity determined by nc: 0.00142 and sigma: 0.707107
   Nonlocal vdW cavity from gaussian model electron density with norm = 8 and sigma = 0.993594 bohr
   Charge asymmetry in cavity with sensitivity pCavity = 36.5 e-bohr/Eh
   Electrostatic cavity expanded by eta = 1.46 bohrs
   Weighted density cavitation model constrained by Nbulk: 0.0049383 bohr^-3, Pvap: 3.14029 kPa, Rvdw: 2.61727 bohr and sigmaBulk: 4.62e-05 Eh/bohr^2 at T: 298 K.
   Weighted density dispersion model using vdW pair potentials with single solvent site with sqrtC6eff: 0.77 SI.


---- Citations for features of the code used in this run ----

   Software package:
      R. Sundararaman, K. Letchworth-Weaver, K.A. Schwarz, D. Gunceler, Y. Ozhabes and T.A. Arias, 'JDFTx: software for joint density-functional theory', SoftwareX 6, 278 (2017)

   gga-PBE exchange-correlation functional:
      J.P. Perdew, K. Burke and M. Ernzerhof, Phys. Rev. Lett. 77, 3865 (1996)

   Pseudopotentials:
      KF Garrity, JW Bennett, KM Rabe and D Vanderbilt, Comput. Mater. Sci. 81, 446 (2014)

   DFT-D3 dispersion correction:
      S. Grimme, J. Antony, S. Ehrlich and H. Krieg, J. Chem. Phys. 132, 154104 (2010)

   DFT-D2 dispersion correction:
      S. Grimme, J. Comput. Chem. 27, 1787 (2006)

   Charge-asymmetric nonlocally-determined local-electric (CANDLE) solvation model:
      R. Sundararaman and W.A. Goddard III, J. Chem. Phys. 142, 064107 (2015)

   Total energy minimization with Auxiliary Hamiltonian:
      C. Freysoldt, S. Boeck, and J. Neugebauer, Phys. Rev. B 79, 241103(R) (2009)

   Grand-canonical (fixed-potential) DFT:
      R. Sundararaman, W. A. Goddard III and T. A. Arias, J. Chem. Phys. 146, 114104 (2017)

   Linear-tetrahedron sampling for density of states:
      G. Lehmann and M. Taut, Phys. status solidi (b) 54, 469 (1972)

This list may not be complete. Please suggest additional citations or
report any other bugs at https://github.com/shankar1729/jdftx/issues

Initialization completed successfully at t[s]:   3119.67


Computing DFT-D3 correction:
# coordination-number Cu 4.585 6.082 7.607 9.125 9.152 9.158 9.160 9.160 9.160 9.159 9.156 9.147 8.374 6.852 6.852 8.374 9.147 9.156 9.159 9.160 9.160 9.158 9.160 9.152 9.125 7.607 6.082 4.585
# diagonal-C6 Cu 175.00 175.00 175.00 175.00 175.00 175.00 175.00 175.00 175.00 175.00 175.00 175.00 175.00 175.00 175.00 175.00 175.00 175.00 175.00 175.00 175.00 175.00 175.00 175.00 175.00 175.00 175.00 175.00
EvdW_6 =   -0.175894
EvdW_8 =   -0.258546
Fluid solver invoked on fresh (random / LCAO) wavefunctions
Running a vacuum solve first:

-------- Initial electronic minimization -----------
	FillingsUpdate:  mu: +0.149630655  nElectrons: 532.000000  magneticMoment: [ Abs: 0.00285  Tot: -0.00026 ]
ElecMinimize: Iter:   0  G: -5556.466319918521549  |grad|_K:  1.751e-04  alpha:  1.000e+00
	FillingsUpdate:  mu: +0.030895876  nElectrons: 532.000000  magneticMoment: [ Abs: 0.00276  Tot: -0.00027 ]
	SubspaceRotationAdjust: set factor to 0.984
ElecMinimize: Iter:   1  G: -5558.283742431234714  |grad|_K:  8.623e-05  alpha:  9.984e-02  linmin:  2.614e-04  t[s]:   3338.87
ElecMinimize: 	Predicted alpha/alphaT>3.000000, increasing alphaT to 2.995078e-01.
	FillingsUpdate:  mu: +0.374468370  nElectrons: 532.000000  magneticMoment: [ Abs: 0.00224  Tot: -0.00004 ]
	SubspaceRotationAdjust: set factor to 0.658
ElecMinimize: Iter:   2  G: -5559.983969281084683  |grad|_K:  1.197e-04  alpha:  3.778e-01  linmin: -7.434e-05  t[s]:   3515.51
	FillingsUpdate:  mu: +0.568439481  nElectrons: 532.000000  magneticMoment: [ Abs: 0.00212  Tot: -0.00000 ]
	SubspaceRotationAdjust: set factor to 0.368
ElecMinimize: Iter:   3  G: -5559.995717431563207  |grad|_K:  1.597e-04  alpha:  3.980e-02  linmin:  8.780e-04  t[s]:   3657.26
	FillingsUpdate:  mu: +0.613068829  nElectrons: 532.000000  magneticMoment: [ Abs: 0.00203  Tot: +0.00000 ]
	SubspaceRotationAdjust: set factor to 0.207
ElecMinimize: Iter:   4  G: -5560.019701437771801  |grad|_K:  1.331e-04  alpha:  1.241e-02  linmin:  1.301e-06  t[s]:   3798.46
ElecMinimize: 	Predicted alpha/alphaT>3.000000, increasing alphaT to 3.722511e-02.
	FillingsUpdate:  mu: +0.229601537  nElectrons: 532.000000  magneticMoment: [ Abs: 0.00192  Tot: -0.00000 ]
	SubspaceRotationAdjust: set factor to 0.475
ElecMinimize: Iter:   5  G: -5560.470157450298757  |grad|_K:  4.404e-05  alpha:  4.075e-02  linmin: -7.036e-05  t[s]:   3975.79
	FillingsUpdate:  mu: +0.221675458  nElectrons: 532.000000  magneticMoment: [ Abs: 0.00167  Tot: -0.00001 ]
	SubspaceRotationAdjust: set factor to 0.376
ElecMinimize: Iter:   6  G: -5560.580908089588775  |grad|_K:  3.555e-05  alpha:  8.641e-02  linmin: -5.100e-05  t[s]:   4117.30
	FillingsUpdate:  mu: +0.169045686  nElectrons: 532.000000  magneticMoment: [ Abs: 0.00150  Tot: -0.00000 ]
	SubspaceRotationAdjust: set factor to 0.266
ElecMinimize: Iter:   7  G: -5560.649349532205633  |grad|_K:  2.293e-05  alpha:  8.582e-02  linmin:  2.843e-06  t[s]:   4259.03
	FillingsUpdate:  mu: +0.138434942  nElectrons: 532.000000  magneticMoment: [ Abs: 0.00146  Tot: -0.00001 ]
	SubspaceRotationAdjust: set factor to 0.307
ElecMinimize: Iter:   8  G: -5560.692887476866417  |grad|_K:  1.274e-05  alpha:  1.343e-01  linmin:  2.009e-05  t[s]:   4400.59
	FillingsUpdate:  mu: +0.116051054  nElectrons: 532.000000  magneticMoment: [ Abs: 0.00131  Tot: -0.00001 ]
	SubspaceRotationAdjust: set factor to 0.333
ElecMinimize: Iter:   9  G: -5560.714881287287426  |grad|_K:  1.176e-05  alpha:  2.204e-01  linmin:  7.456e-06  t[s]:   4542.31
	FillingsUpdate:  mu: +0.105793529  nElectrons: 532.000000  magneticMoment: [ Abs: 0.00116  Tot: -0.00001 ]
	SubspaceRotationAdjust: set factor to 0.334
ElecMinimize: Iter:  10  G: -5560.728183941041607  |grad|_K:  9.262e-06  alpha:  1.553e-01  linmin:  2.092e-06  t[s]:   4684.38
	FillingsUpdate:  mu: +0.106829610  nElectrons: 532.000000  magneticMoment: [ Abs: 0.00106  Tot: -0.00000 ]
	SubspaceRotationAdjust: set factor to 0.249
ElecMinimize: Iter:  11  G: -5560.734594234694669  |grad|_K:  8.394e-06  alpha:  1.205e-01  linmin:  6.013e-06  t[s]:   4826.20
	FillingsUpdate:  mu: +0.109025012  nElectrons: 532.000000  magneticMoment: [ Abs: 0.00099  Tot: +0.00000 ]
	SubspaceRotationAdjust: set factor to 0.204
ElecMinimize: Iter:  12  G: -5560.740210087663399  |grad|_K:  5.847e-06  alpha:  1.290e-01  linmin:  7.254e-06  t[s]:   4967.55
	FillingsUpdate:  mu: +0.106736952  nElectrons: 532.000000  magneticMoment: [ Abs: 0.00093  Tot: +0.00000 ]
	SubspaceRotationAdjust: set factor to 0.245
ElecMinimize: Iter:  13  G: -5560.743550197435979  |grad|_K:  4.937e-06  alpha:  1.582e-01  linmin:  1.405e-06  t[s]:   5109.49
	FillingsUpdate:  mu: +0.102470010  nElectrons: 532.000000  magneticMoment: [ Abs: 0.00078  Tot: +0.00001 ]
	SubspaceRotationAdjust: set factor to 0.24
ElecMinimize: Iter:  14  G: -5560.746344642649092  |grad|_K:  4.160e-06  alpha:  1.854e-01  linmin:  6.977e-06  t[s]:   5251.22
	FillingsUpdate:  mu: +0.101104861  nElectrons: 532.000000  magneticMoment: [ Abs: 0.00068  Tot: +0.00001 ]
	SubspaceRotationAdjust: set factor to 0.188
ElecMinimize: Iter:  15  G: -5560.747924446276556  |grad|_K:  3.608e-06  alpha:  1.477e-01  linmin:  1.168e-06  t[s]:   5392.58
	FillingsUpdate:  mu: +0.102893981  nElectrons: 532.000000  magneticMoment: [ Abs: 0.00057  Tot: +0.00001 ]
	SubspaceRotationAdjust: set factor to 0.178
ElecMinimize: Iter:  16  G: -5560.749553248699158  |grad|_K:  3.148e-06  alpha:  2.022e-01  linmin:  3.514e-07  t[s]:   5533.95
	FillingsUpdate:  mu: +0.103615236  nElectrons: 532.000000  magneticMoment: [ Abs: 0.00050  Tot: +0.00002 ]
	SubspaceRotationAdjust: set factor to 0.198
ElecMinimize: Iter:  17  G: -5560.750377037030376  |grad|_K:  2.185e-06  alpha:  1.342e-01  linmin:  1.105e-08  t[s]:   5675.55
	FillingsUpdate:  mu: +0.102617705  nElectrons: 532.000000  magneticMoment: [ Abs: 0.00044  Tot: +0.00002 ]
	SubspaceRotationAdjust: set factor to 0.188
ElecMinimize: Iter:  18  G: -5560.750936269921112  |grad|_K:  1.926e-06  alpha:  1.892e-01  linmin:  4.081e-07  t[s]:   5817.43
	FillingsUpdate:  mu: +0.101700519  nElectrons: 532.000000  magneticMoment: [ Abs: 0.00038  Tot: +0.00002 ]
	SubspaceRotationAdjust: set factor to 0.183
ElecMinimize: Iter:  19  G: -5560.751310542607825  |grad|_K:  1.450e-06  alpha:  1.630e-01  linmin: -3.071e-07  t[s]:   5959.11
	FillingsUpdate:  mu: +0.101974205  nElectrons: 532.000000  magneticMoment: [ Abs: 0.00032  Tot: +0.00001 ]
	SubspaceRotationAdjust: set factor to 0.2
ElecMinimize: Iter:  20  G: -5560.751541267233733  |grad|_K:  1.178e-06  alpha:  1.771e-01  linmin:  4.376e-07  t[s]:   6100.76
	FillingsUpdate:  mu: +0.102579991  nElectrons: 532.000000  magneticMoment: [ Abs: 0.00027  Tot: +0.00001 ]
	SubspaceRotationAdjust: set factor to 0.213
ElecMinimize: Iter:  21  G: -5560.751675357212662  |grad|_K:  8.997e-07  alpha:  1.561e-01  linmin: -1.866e-07  t[s]:   6242.91
	FillingsUpdate:  mu: +0.103117684  nElectrons: 532.000000  magneticMoment: [ Abs: 0.00023  Tot: +0.00001 ]
	SubspaceRotationAdjust: set factor to 0.224
ElecMinimize: Iter:  22  G: -5560.751772205191628  |grad|_K:  8.697e-07  alpha:  1.932e-01  linmin: -4.878e-07  t[s]:   6385.05
	FillingsUpdate:  mu: +0.103233108  nElectrons: 532.000000  magneticMoment: [ Abs: 0.00019  Tot: +0.00001 ]
	SubspaceRotationAdjust: set factor to 0.253
ElecMinimize: Iter:  23  G: -5560.751848582185630  |grad|_K:  5.837e-07  alpha:  1.630e-01  linmin:  5.981e-08  t[s]:   6526.73
	FillingsUpdate:  mu: +0.103007379  nElectrons: 532.000000  magneticMoment: [ Abs: 0.00016  Tot: +0.00001 ]
	SubspaceRotationAdjust: set factor to 0.278
ElecMinimize: Iter:  24  G: -5560.751887462700324  |grad|_K:  5.696e-07  alpha:  1.843e-01  linmin: -4.727e-07  t[s]:   6668.84
	FillingsUpdate:  mu: +0.103011650  nElectrons: 532.000000  magneticMoment: [ Abs: 0.00013  Tot: +0.00001 ]
	SubspaceRotationAdjust: set factor to 0.31
ElecMinimize: Iter:  25  G: -5560.751925314823893  |grad|_K:  4.736e-07  alpha:  1.884e-01  linmin: -3.539e-07  t[s]:   6810.95
	FillingsUpdate:  mu: +0.103314044  nElectrons: 532.000000  magneticMoment: [ Abs: 0.00011  Tot: +0.00001 ]
	SubspaceRotationAdjust: set factor to 0.334
ElecMinimize: Iter:  26  G: -5560.751948600713149  |grad|_K:  4.144e-07  alpha:  1.676e-01  linmin:  4.451e-08  t[s]:   6952.79
	FillingsUpdate:  mu: +0.103516507  nElectrons: 532.000000  magneticMoment: [ Abs: 0.00008  Tot: +0.00001 ]
	SubspaceRotationAdjust: set factor to 0.319
ElecMinimize: Iter:  27  G: -5560.751967369569684  |grad|_K:  3.729e-07  alpha:  1.765e-01  linmin: -1.774e-07  t[s]:   7095.07
	FillingsUpdate:  mu: +0.103494490  nElectrons: 532.000000  magneticMoment: [ Abs: 0.00007  Tot: +0.00001 ]
	SubspaceRotationAdjust: set factor to 0.238
ElecMinimize: Iter:  28  G: -5560.751977305981200  |grad|_K:  3.033e-07  alpha:  1.154e-01  linmin:  4.212e-08  t[s]:   7237.21
	FillingsUpdate:  mu: +0.103394824  nElectrons: 532.000000  magneticMoment: [ Abs: 0.00006  Tot: +0.00001 ]
	SubspaceRotationAdjust: set factor to 0.202
ElecMinimize: Iter:  29  G: -5560.751985466880797  |grad|_K:  2.569e-07  alpha:  1.433e-01  linmin:  2.471e-07  t[s]:   7378.93
	FillingsUpdate:  mu: +0.103355581  nElectrons: 532.000000  magneticMoment: [ Abs: 0.00005  Tot: +0.00000 ]
	SubspaceRotationAdjust: set factor to 0.229
ElecMinimize: Iter:  30  G: -5560.751991537546019  |grad|_K:  1.909e-07  alpha:  1.486e-01  linmin:  1.196e-07  t[s]:   7521.75
	FillingsUpdate:  mu: +0.103433951  nElectrons: 532.000000  magneticMoment: [ Abs: 0.00004  Tot: +0.00000 ]
	SubspaceRotationAdjust: set factor to 0.214
ElecMinimize: Iter:  31  G: -5560.751995097223698  |grad|_K:  1.594e-07  alpha:  1.578e-01  linmin:  1.355e-07  t[s]:   7663.61
	FillingsUpdate:  mu: +0.103486435  nElectrons: 532.000000  magneticMoment: [ Abs: 0.00003  Tot: +0.00000 ]
	SubspaceRotationAdjust: set factor to 0.196
ElecMinimize: Iter:  32  G: -5560.751997423616558  |grad|_K:  1.178e-07  alpha:  1.479e-01  linmin:  8.254e-08  t[s]:   7805.99
	FillingsUpdate:  mu: +0.103423806  nElectrons: 532.000000  magneticMoment: [ Abs: 0.00003  Tot: +0.00000 ]
	SubspaceRotationAdjust: set factor to 0.208
ElecMinimize: Iter:  33  G: -5560.751998689100219  |grad|_K:  9.121e-08  alpha:  1.474e-01  linmin:  1.077e-07  t[s]:   7948.40
	FillingsUpdate:  mu: +0.103347826  nElectrons: 532.000000  magneticMoment: [ Abs: 0.00003  Tot: +0.00000 ]
	SubspaceRotationAdjust: set factor to 0.205
ElecMinimize: Iter:  34  G: -5560.751999494576921  |grad|_K:  7.205e-08  alpha:  1.562e-01  linmin: -4.611e-07  t[s]:   8090.75
	FillingsUpdate:  mu: +0.103327574  nElectrons: 532.000000  magneticMoment: [ Abs: 0.00002  Tot: +0.00000 ]
	SubspaceRotationAdjust: set factor to 0.206
ElecMinimize: Iter:  35  G: -5560.751999969572353  |grad|_K:  5.496e-08  alpha:  1.476e-01  linmin: -2.552e-07  t[s]:   8232.57
	FillingsUpdate:  mu: +0.103341598  nElectrons: 532.000000  magneticMoment: [ Abs: 0.00002  Tot: +0.00000 ]
	SubspaceRotationAdjust: set factor to 0.215
ElecMinimize: Iter:  36  G: -5560.752000272976147  |grad|_K:  4.375e-08  alpha:  1.619e-01  linmin:  1.260e-07  t[s]:   8375.19
	FillingsUpdate:  mu: +0.103353889  nElectrons: 532.000000  magneticMoment: [ Abs: 0.00002  Tot: +0.00000 ]
	SubspaceRotationAdjust: set factor to 0.231
ElecMinimize: Iter:  37  G: -5560.752000442139433  |grad|_K:  3.327e-08  alpha:  1.427e-01  linmin: -2.898e-07  t[s]:   8517.69
	FillingsUpdate:  mu: +0.103347110  nElectrons: 532.000000  magneticMoment: [ Abs: 0.00002  Tot: +0.00000 ]
	SubspaceRotationAdjust: set factor to 0.249
ElecMinimize: Iter:  38  G: -5560.752000554892220  |grad|_K:  2.735e-08  alpha:  1.636e-01  linmin: -7.028e-07  t[s]:   8659.46
	FillingsUpdate:  mu: +0.103324956  nElectrons: 532.000000  magneticMoment: [ Abs: 0.00002  Tot: +0.00000 ]
	SubspaceRotationAdjust: set factor to 0.263
ElecMinimize: Iter:  39  G: -5560.752000622567721  |grad|_K:  2.148e-08  alpha:  1.451e-01  linmin: -1.575e-06  t[s]:   8801.17
	FillingsUpdate:  mu: +0.103306702  nElectrons: 532.000000  magneticMoment: [ Abs: 0.00001  Tot: +0.00000 ]
	SubspaceRotationAdjust: set factor to 0.279
ElecMinimize: Iter:  40  G: -5560.752000674970986  |grad|_K:  2.057e-08  alpha:  1.815e-01  linmin: -5.936e-07  t[s]:   8943.33
ElecMinimize: Converged (|Delta G|<1.000000e-07 for 2 iters).
Setting wave functions to eigenvectors of Hamiltonian
Converging empty states (this may take a while): |deigs|: 1.776e-02
Vacuum energy after initial minimize, F = -5560.752000674970986

Shifting auxilliary hamiltonian by -0.274607 to set nElectrons=532.000000

-------- Electronic minimization -----------
	Linear fluid (dielectric constant: 78.4, screening length: 8.12261 Bohr) occupying 0.547595 of unit cell:	Completed after 20 iterations at t[s]:   9578.98
	FillingsUpdate:  mu: -0.171300000  nElectrons: 532.000000  magneticMoment: [ Abs: 0.00000  Tot: +0.00000 ]
ElecMinimize: Iter:   0  G: -5560.752816034428179  |grad|_K:  4.482e-06  alpha:  1.000e+00
	Linear fluid (dielectric constant: 78.4, screening length: 8.12261 Bohr) occupying 0.549586 of unit cell:	Completed after 21 iterations at t[s]:   9694.50
	Linear fluid (dielectric constant: 78.4, screening length: 8.12261 Bohr) occupying 0.547792 of unit cell:	Completed after 22 iterations at t[s]:   9733.40
	FillingsUpdate:  mu: -0.171300000  nElectrons: 531.910452  magneticMoment: [ Abs: 0.00000  Tot: +0.00000 ]
	SubspaceRotationAdjust: set factor to 0.148
ElecMinimize: Iter:   1  G: -5560.752854106280211  |grad|_K:  5.561e-06  alpha:  7.058e-02  linmin:  2.444e-02  t[s]:   9789.28
	Linear fluid (dielectric constant: 78.4, screening length: 8.12261 Bohr) occupying 0.548212 of unit cell:	Completed after 15 iterations at t[s]:   9841.65
	Linear fluid (dielectric constant: 78.4, screening length: 8.12261 Bohr) occupying 0.548374 of unit cell:	Completed after 14 iterations at t[s]:   9880.36
	FillingsUpdate:  mu: -0.171300000  nElectrons: 531.851221  magneticMoment: [ Abs: 0.00000  Tot: +0.00000 ]
	SubspaceRotationAdjust: set factor to 0.0783
ElecMinimize: Iter:   2  G: -5560.753125606080175  |grad|_K:  4.916e-06  alpha:  9.842e-02  linmin: -2.944e-04  t[s]:   9936.66
	Linear fluid (dielectric constant: 78.4, screening length: 8.12261 Bohr) occupying 0.548898 of unit cell:	Completed after 15 iterations at t[s]:   9988.69
	Linear fluid (dielectric constant: 78.4, screening length: 8.12261 Bohr) occupying 0.548750 of unit cell:	Completed after 13 iterations at t[s]:  10026.89
	FillingsUpdate:  mu: -0.171300000  nElectrons: 531.880117  magneticMoment: [ Abs: 0.00000  Tot: +0.00000 ]
	SubspaceRotationAdjust: set factor to 0.0533
ElecMinimize: Iter:   3  G: -5560.754197293457764  |grad|_K:  1.318e-06  alpha:  7.038e-02  linmin:  7.915e-05  t[s]:  10083.00
	Linear fluid (dielectric constant: 78.4, screening length: 8.12261 Bohr) occupying 0.548820 of unit cell:	Completed after 10 iterations at t[s]:  10134.55
	Linear fluid (dielectric constant: 78.4, screening length: 8.12261 Bohr) occupying 0.548901 of unit cell:	Completed after 10 iterations at t[s]:  10172.28
	FillingsUpdate:  mu: -0.171300000  nElectrons: 531.881055  magneticMoment: [ Abs: 0.00000  Tot: +0.00000 ]
	SubspaceRotationAdjust: set factor to 0.0702
ElecMinimize: Iter:   4  G: -5560.754359084568932  |grad|_K:  1.160e-06  alpha:  1.508e-01  linmin: -1.672e-05  t[s]:  10228.67
	Linear fluid (dielectric constant: 78.4, screening length: 8.12261 Bohr) occupying 0.549089 of unit cell:	Completed after 12 iterations at t[s]:  10280.41
	Linear fluid (dielectric constant: 78.4, screening length: 8.12261 Bohr) occupying 0.549299 of unit cell:	Completed after 13 iterations at t[s]:  10318.65
	FillingsUpdate:  mu: -0.171300000  nElectrons: 531.873960  magneticMoment: [ Abs: 0.00000  Tot: +0.00000 ]
	SubspaceRotationAdjust: set factor to 0.0789
ElecMinimize: Iter:   5  G: -5560.754626065509001  |grad|_K:  1.098e-06  alpha:  3.206e-01  linmin:  1.141e-05  t[s]:  10375.50
	Linear fluid (dielectric constant: 78.4, screening length: 8.12261 Bohr) occupying 0.549822 of unit cell:	Completed after 14 iterations at t[s]:  10427.42
	Linear fluid (dielectric constant: 78.4, screening length: 8.12261 Bohr) occupying 0.549803 of unit cell:	Completed after 2 iterations at t[s]:  10464.05
	FillingsUpdate:  mu: -0.171300000  nElectrons: 531.863735  magneticMoment: [ Abs: 0.00000  Tot: +0.00000 ]
	SubspaceRotationAdjust: set factor to 0.0888
ElecMinimize: Iter:   6  G: -5560.754856447368184  |grad|_K:  1.152e-06  alpha:  3.091e-01  linmin: -8.275e-06  t[s]:  10520.58
	Linear fluid (dielectric constant: 78.4, screening length: 8.12261 Bohr) occupying 0.550508 of unit cell:	Completed after 13 iterations at t[s]:  10572.10
	Linear fluid (dielectric constant: 78.4, screening length: 8.12261 Bohr) occupying 0.550235 of unit cell:	Completed after 12 iterations at t[s]:  10610.34
	FillingsUpdate:  mu: -0.171300000  nElectrons: 531.855823  magneticMoment: [ Abs: 0.00000  Tot: +0.00000 ]
	SubspaceRotationAdjust: set factor to 0.103
ElecMinimize: Iter:   7  G: -5560.755011392305278  |grad|_K:  1.129e-06  alpha:  1.884e-01  linmin: -2.536e-08  t[s]:  10667.16
	Linear fluid (dielectric constant: 78.4, screening length: 8.12261 Bohr) occupying 0.550736 of unit cell:	Completed after 13 iterations at t[s]:  10718.83
	Linear fluid (dielectric constant: 78.4, screening length: 8.12261 Bohr) occupying 0.551458 of unit cell:	Completed after 12 iterations at t[s]:  10756.87
	FillingsUpdate:  mu: -0.171300000  nElectrons: 531.821898  magneticMoment: [ Abs: 0.00000  Tot: +0.00000 ]
	SubspaceRotationAdjust: set factor to 0.109
ElecMinimize: Iter:   8  G: -5560.755383641896515  |grad|_K:  1.627e-06  alpha:  4.688e-01  linmin: -4.271e-05  t[s]:  10813.66
	Linear fluid (dielectric constant: 78.4, screening length: 8.12261 Bohr) occupying 0.553907 of unit cell:	Completed after 16 iterations at t[s]:  10865.58
	Linear fluid (dielectric constant: 78.4, screening length: 8.12261 Bohr) occupying 0.552192 of unit cell:	Completed after 15 iterations at t[s]:  10904.05
	FillingsUpdate:  mu: -0.171300000  nElectrons: 531.798507  magneticMoment: [ Abs: 0.00000  Tot: +0.00000 ]
	SubspaceRotationAdjust: set factor to 0.124
ElecMinimize: Iter:   9  G: -5560.755601407122413  |grad|_K:  9.781e-07  alpha:  1.333e-01  linmin:  7.500e-05  t[s]:  10960.92
	Linear fluid (dielectric constant: 78.4, screening length: 8.12261 Bohr) occupying 0.552482 of unit cell:	Completed after 12 iterations at t[s]:  11012.39
	Linear fluid (dielectric constant: 78.4, screening length: 8.12261 Bohr) occupying 0.552751 of unit cell:	Completed after 12 iterations at t[s]:  11050.43
	FillingsUpdate:  mu: -0.171300000  nElectrons: 531.780527  magneticMoment: [ Abs: 0.00000  Tot: +0.00000 ]
	SubspaceRotationAdjust: set factor to 0.132
ElecMinimize: Iter:  10  G: -5560.755753796270255  |grad|_K:  1.280e-06  alpha:  2.595e-01  linmin: -1.792e-05  t[s]:  11107.51
	Linear fluid (dielectric constant: 78.4, screening length: 8.12261 Bohr) occupying 0.553695 of unit cell:	Completed after 13 iterations at t[s]:  11159.02
	Linear fluid (dielectric constant: 78.4, screening length: 8.12261 Bohr) occupying 0.553572 of unit cell:	Completed after 7 iterations at t[s]:  11196.32
	FillingsUpdate:  mu: -0.171300000  nElectrons: 531.759224  magneticMoment: [ Abs: 0.00000  Tot: +0.00000 ]
	SubspaceRotationAdjust: set factor to 0.146
ElecMinimize: Iter:  11  G: -5560.755982436447994  |grad|_K:  8.992e-07  alpha:  2.243e-01  linmin: -7.574e-06  t[s]:  11253.71
	Linear fluid (dielectric constant: 78.4, screening length: 8.12261 Bohr) occupying 0.553973 of unit cell:	Completed after 12 iterations at t[s]:  11305.33
	Linear fluid (dielectric constant: 78.4, screening length: 8.12261 Bohr) occupying 0.553938 of unit cell:	Completed after 2 iterations at t[s]:  11342.21
	FillingsUpdate:  mu: -0.171300000  nElectrons: 531.751742  magneticMoment: [ Abs: 0.00000  Tot: +0.00000 ]
	SubspaceRotationAdjust: set factor to 0.158
ElecMinimize: Iter:  12  G: -5560.756085001847168  |grad|_K:  9.707e-07  alpha:  2.046e-01  linmin: -1.191e-06  t[s]:  11399.35
	Linear fluid (dielectric constant: 78.4, screening length: 8.12261 Bohr) occupying 0.554358 of unit cell:	Completed after 11 iterations at t[s]:  11450.52
	Linear fluid (dielectric constant: 78.4, screening length: 8.12261 Bohr) occupying 0.554371 of unit cell:	Completed after 2 iterations at t[s]:  11487.25
	FillingsUpdate:  mu: -0.171300000  nElectrons: 531.743074  magneticMoment: [ Abs: 0.00000  Tot: +0.00000 ]
	SubspaceRotationAdjust: set factor to 0.173
ElecMinimize: Iter:  13  G: -5560.756208145956407  |grad|_K:  7.820e-07  alpha:  2.110e-01  linmin: -6.064e-06  t[s]:  11544.52
	Linear fluid (dielectric constant: 78.4, screening length: 8.12261 Bohr) occupying 0.554650 of unit cell:	Completed after 10 iterations at t[s]:  11595.91
	Linear fluid (dielectric constant: 78.4, screening length: 8.12261 Bohr) occupying 0.554642 of unit cell:	Completed after 2 iterations at t[s]:  11632.68
	FillingsUpdate:  mu: -0.171300000  nElectrons: 531.737080  magneticMoment: [ Abs: 0.00000  Tot: +0.00000 ]
	SubspaceRotationAdjust: set factor to 0.188
ElecMinimize: Iter:  14  G: -5560.756285800512160  |grad|_K:  7.547e-07  alpha:  2.048e-01  linmin: -3.557e-06  t[s]:  11690.74
	Linear fluid (dielectric constant: 78.4, screening length: 8.12261 Bohr) occupying 0.554897 of unit cell:	Completed after 12 iterations at t[s]:  11742.19
	Linear fluid (dielectric constant: 78.4, screening length: 8.12261 Bohr) occupying 0.554853 of unit cell:	Completed after 4 iterations at t[s]:  11779.36
	FillingsUpdate:  mu: -0.171300000  nElectrons: 531.733619  magneticMoment: [ Abs: 0.00000  Tot: +0.00000 ]
	SubspaceRotationAdjust: set factor to 0.213
ElecMinimize: Iter:  15  G: -5560.756345394459458  |grad|_K:  4.991e-07  alpha:  1.689e-01  linmin: -8.419e-07  t[s]:  11836.49
	Linear fluid (dielectric constant: 78.4, screening length: 8.12261 Bohr) occupying 0.554954 of unit cell:	Completed after 11 iterations at t[s]:  11887.95
	Linear fluid (dielectric constant: 78.4, screening length: 8.12261 Bohr) occupying 0.554976 of unit cell:	Completed after 4 iterations at t[s]:  11925.03
	FillingsUpdate:  mu: -0.171300000  nElectrons: 531.731063  magneticMoment: [ Abs: 0.00000  Tot: -0.00000 ]
	SubspaceRotationAdjust: set factor to 0.226
ElecMinimize: Iter:  16  G: -5560.756377389628142  |grad|_K:  5.213e-07  alpha:  2.074e-01  linmin: -6.113e-06  t[s]:  11982.20
	Linear fluid (dielectric constant: 78.4, screening length: 8.12261 Bohr) occupying 0.555122 of unit cell:	Completed after 10 iterations at t[s]:  12033.35
	Linear fluid (dielectric constant: 78.4, screening length: 8.12261 Bohr) occupying 0.555107 of unit cell:	Completed after 2 iterations at t[s]:  12070.14
	FillingsUpdate:  mu: -0.171300000  nElectrons: 531.731520  magneticMoment: [ Abs: 0.00000  Tot: -0.00000 ]
	SubspaceRotationAdjust: set factor to 0.249
ElecMinimize: Iter:  17  G: -5560.756408711684344  |grad|_K:  3.403e-07  alpha:  1.858e-01  linmin:  1.221e-05  t[s]:  12127.21
	Linear fluid (dielectric constant: 78.4, screening length: 8.12261 Bohr) occupying 0.555176 of unit cell:	Completed after 11 iterations at t[s]:  12178.64
	Linear fluid (dielectric constant: 78.4, screening length: 8.12261 Bohr) occupying 0.555171 of unit cell:	Completed after 2 iterations at t[s]:  12215.32
	FillingsUpdate:  mu: -0.171300000  nElectrons: 531.730098  magneticMoment: [ Abs: 0.00000  Tot: -0.00000 ]
	SubspaceRotationAdjust: set factor to 0.259
ElecMinimize: Iter:  18  G: -5560.756421087258786  |grad|_K:  3.236e-07  alpha:  1.730e-01  linmin: -7.800e-06  t[s]:  12272.55
	Linear fluid (dielectric constant: 78.4, screening length: 8.12261 Bohr) occupying 0.555242 of unit cell:	Completed after 11 iterations at t[s]:  12324.37
	Linear fluid (dielectric constant: 78.4, screening length: 8.12261 Bohr) occupying 0.555247 of unit cell:	Completed after 2 iterations at t[s]:  12360.96
	FillingsUpdate:  mu: -0.171300000  nElectrons: 531.731740  magneticMoment: [ Abs: 0.00000  Tot: -0.00000 ]
	SubspaceRotationAdjust: set factor to 0.234
ElecMinimize: Iter:  19  G: -5560.756433155259401  |grad|_K:  2.728e-07  alpha:  1.858e-01  linmin: -3.744e-05  t[s]:  12418.06
	Linear fluid (dielectric constant: 78.4, screening length: 8.12261 Bohr) occupying 0.555310 of unit cell:	Completed after 12 iterations at t[s]:  12469.60
	Linear fluid (dielectric constant: 78.4, screening length: 8.12261 Bohr) occupying 0.555282 of unit cell:	Completed after 11 iterations at t[s]:  12507.46
	FillingsUpdate:  mu: -0.171300000  nElectrons: 531.728396  magneticMoment: [ Abs: 0.00000  Tot: -0.00000 ]
	SubspaceRotationAdjust: set factor to 0.161
ElecMinimize: Iter:  20  G: -5560.756437986693527  |grad|_K:  2.194e-07  alpha:  1.031e-01  linmin:  2.348e-05  t[s]:  12564.46
	Linear fluid (dielectric constant: 78.4, screening length: 8.12261 Bohr) occupying 0.555310 of unit cell:	Completed after 10 iterations at t[s]:  12615.67
	Linear fluid (dielectric constant: 78.4, screening length: 8.12261 Bohr) occupying 0.555332 of unit cell:	Completed after 10 iterations at t[s]:  12653.63
	FillingsUpdate:  mu: -0.171300000  nElectrons: 531.729409  magneticMoment: [ Abs: 0.00000  Tot: -0.00000 ]
	SubspaceRotationAdjust: set factor to 0.139
ElecMinimize: Iter:  21  G: -5560.756443386476349  |grad|_K:  1.957e-07  alpha:  1.816e-01  linmin: -8.790e-06  t[s]:  12710.67
	Linear fluid (dielectric constant: 78.4, screening length: 8.12261 Bohr) occupying 0.555376 of unit cell:	Completed after 7 iterations at t[s]:  12761.71
	Linear fluid (dielectric constant: 78.4, screening length: 8.12261 Bohr) occupying 0.555365 of unit cell:	Completed after 2 iterations at t[s]:  12798.47
	FillingsUpdate:  mu: -0.171300000  nElectrons: 531.728946  magneticMoment: [ Abs: 0.00000  Tot: -0.00000 ]
	SubspaceRotationAdjust: set factor to 0.177
ElecMinimize: Iter:  22  G: -5560.756446574876463  |grad|_K:  1.314e-07  alpha:  1.343e-01  linmin:  5.664e-06  t[s]:  12855.43
	Linear fluid (dielectric constant: 78.4, screening length: 8.12261 Bohr) occupying 0.555382 of unit cell:	Completed after 10 iterations at t[s]:  12906.83
	Linear fluid (dielectric constant: 78.4, screening length: 8.12261 Bohr) occupying 0.555389 of unit cell:	Completed after 7 iterations at t[s]:  12944.33
	FillingsUpdate:  mu: -0.171300000  nElectrons: 531.727296  magneticMoment: [ Abs: 0.00000  Tot: -0.00000 ]
	SubspaceRotationAdjust: set factor to 0.163
ElecMinimize: Iter:  23  G: -5560.756448561859543  |grad|_K:  1.239e-07  alpha:  1.857e-01  linmin: -3.260e-05  t[s]:  13001.36
	Linear fluid (dielectric constant: 78.4, screening length: 8.12261 Bohr) occupying 0.555416 of unit cell:	Completed after 10 iterations at t[s]:  13052.73
	Linear fluid (dielectric constant: 78.4, screening length: 8.12261 Bohr) occupying 0.555412 of unit cell:	Completed after 2 iterations at t[s]:  13089.65
	FillingsUpdate:  mu: -0.171300000  nElectrons: 531.727776  magneticMoment: [ Abs: 0.00000  Tot: -0.00000 ]
	SubspaceRotationAdjust: set factor to 0.131
ElecMinimize: Iter:  24  G: -5560.756450067861806  |grad|_K:  8.110e-08  alpha:  1.575e-01  linmin:  1.263e-04  t[s]:  13146.91
	Linear fluid (dielectric constant: 78.4, screening length: 8.12261 Bohr) occupying 0.555424 of unit cell:	Completed after 7 iterations at t[s]:  13198.08
	Linear fluid (dielectric constant: 78.4, screening length: 8.12261 Bohr) occupying 0.555426 of unit cell:	Completed after 0 iterations at t[s]:  13234.56
	FillingsUpdate:  mu: -0.171300000  nElectrons: 531.727228  magneticMoment: [ Abs: 0.00000  Tot: -0.00000 ]
	SubspaceRotationAdjust: set factor to 0.141
ElecMinimize: Iter:  25  G: -5560.756450778355429  |grad|_K:  7.403e-08  alpha:  1.764e-01  linmin: -1.797e-04  t[s]:  13291.92
	Linear fluid (dielectric constant: 78.4, screening length: 8.12261 Bohr) occupying 0.555439 of unit cell:	Completed after 2 iterations at t[s]:  13342.05
	Linear fluid (dielectric constant: 78.4, screening length: 8.12261 Bohr) occupying 0.555440 of unit cell:	Completed after 0 iterations at t[s]:  13378.49
	FillingsUpdate:  mu: -0.171300000  nElectrons: 531.726944  magneticMoment: [ Abs: 0.00000  Tot: -0.00000 ]
	SubspaceRotationAdjust: set factor to 0.157
ElecMinimize: Iter:  26  G: -5560.756451436306634  |grad|_K:  6.124e-08  alpha:  1.887e-01  linmin: -2.600e-05  t[s]:  13435.46
	Linear fluid (dielectric constant: 78.4, screening length: 8.12261 Bohr) occupying 0.555453 of unit cell:	Completed after 6 iterations at t[s]:  13486.29
	Linear fluid (dielectric constant: 78.4, screening length: 8.12261 Bohr) occupying 0.555450 of unit cell:	Completed after 1 iterations at t[s]:  13523.20
	FillingsUpdate:  mu: -0.171300000  nElectrons: 531.727064  magneticMoment: [ Abs: 0.00000  Tot: -0.00000 ]
	SubspaceRotationAdjust: set factor to 0.166
ElecMinimize: Iter:  27  G: -5560.756451797084083  |grad|_K:  5.336e-08  alpha:  1.552e-01  linmin:  6.216e-05  t[s]:  13580.49
	Linear fluid (dielectric constant: 78.4, screening length: 8.12261 Bohr) occupying 0.555460 of unit cell:	Completed after 2 iterations at t[s]:  13630.83
	Linear fluid (dielectric constant: 78.4, screening length: 8.12261 Bohr) occupying 0.555463 of unit cell:	Completed after 2 iterations at t[s]:  13667.44
	FillingsUpdate:  mu: -0.171300000  nElectrons: 531.726995  magneticMoment: [ Abs: 0.00000  Tot: -0.00000 ]
	SubspaceRotationAdjust: set factor to 0.189
ElecMinimize: Iter:  28  G: -5560.756452156097112  |grad|_K:  4.448e-08  alpha:  2.053e-01  linmin: -9.198e-05  t[s]:  13724.76
	Linear fluid (dielectric constant: 78.4, screening length: 8.12261 Bohr) occupying 0.555474 of unit cell:	Completed after 2 iterations at t[s]:  13774.98
	Linear fluid (dielectric constant: 78.4, screening length: 8.12261 Bohr) occupying 0.555472 of unit cell:	Completed after 0 iterations at t[s]:  13811.46
	FillingsUpdate:  mu: -0.171300000  nElectrons: 531.726886  magneticMoment: [ Abs: 0.00000  Tot: -0.00000 ]
	SubspaceRotationAdjust: set factor to 0.209
ElecMinimize: Iter:  29  G: -5560.756452368107603  |grad|_K:  3.993e-08  alpha:  1.692e-01  linmin:  7.657e-05  t[s]:  13868.53
	Linear fluid (dielectric constant: 78.4, screening length: 8.12261 Bohr) occupying 0.555481 of unit cell:	Completed after 3 iterations at t[s]:  13918.82
	Linear fluid (dielectric constant: 78.4, screening length: 8.12261 Bohr) occupying 0.555482 of unit cell:	Completed after 0 iterations at t[s]:  13955.36
	FillingsUpdate:  mu: -0.171300000  nElectrons: 531.726698  magneticMoment: [ Abs: 0.00000  Tot: -0.00000 ]
	SubspaceRotationAdjust: set factor to 0.228
ElecMinimize: Iter:  30  G: -5560.756452561102378  |grad|_K:  3.450e-08  alpha:  1.970e-01  linmin: -9.521e-05  t[s]:  14012.58
	Linear fluid (dielectric constant: 78.4, screening length: 8.12261 Bohr) occupying 0.555492 of unit cell:	Completed after 2 iterations at t[s]:  14063.06
	Linear fluid (dielectric constant: 78.4, screening length: 8.12261 Bohr) occupying 0.555490 of unit cell:	Completed after 0 iterations at t[s]:  14099.71
	FillingsUpdate:  mu: -0.171300000  nElectrons: 531.726594  magneticMoment: [ Abs: 0.00000  Tot: -0.00000 ]
	SubspaceRotationAdjust: set factor to 0.257
ElecMinimize: Iter:  31  G: -5560.756452685339355  |grad|_K:  2.977e-08  alpha:  1.646e-01  linmin: -1.383e-05  t[s]:  14156.70
	Linear fluid (dielectric constant: 78.4, screening length: 8.12261 Bohr) occupying 0.555497 of unit cell:	Completed after 2 iterations at t[s]:  14207.17
	Linear fluid (dielectric constant: 78.4, screening length: 8.12261 Bohr) occupying 0.555499 of unit cell:	Completed after 0 iterations at t[s]:  14243.97
	FillingsUpdate:  mu: -0.171300000  nElectrons: 531.726556  magneticMoment: [ Abs: 0.00000  Tot: -0.00000 ]
	SubspaceRotationAdjust: set factor to 0.28
ElecMinimize: Iter:  32  G: -5560.756452796157646  |grad|_K:  2.648e-08  alpha:  2.004e-01  linmin: -9.415e-05  t[s]:  14301.04
	Linear fluid (dielectric constant: 78.4, screening length: 8.12261 Bohr) occupying 0.555507 of unit cell:	Completed after 2 iterations at t[s]:  14351.36
	Linear fluid (dielectric constant: 78.4, screening length: 8.12261 Bohr) occupying 0.555504 of unit cell:	Completed after 0 iterations at t[s]:  14387.87
	FillingsUpdate:  mu: -0.171300000  nElectrons: 531.726437  magneticMoment: [ Abs: 0.00000  Tot: -0.00000 ]
	SubspaceRotationAdjust: set factor to 0.301
ElecMinimize: Iter:  33  G: -5560.756452860171521  |grad|_K:  1.987e-08  alpha:  1.441e-01  linmin:  2.344e-05  t[s]:  14445.20
	Linear fluid (dielectric constant: 78.4, screening length: 8.12261 Bohr) occupying 0.555508 of unit cell:	Completed after 2 iterations at t[s]:  14495.60
	Linear fluid (dielectric constant: 78.4, screening length: 8.12261 Bohr) occupying 0.555510 of unit cell:	Completed after 0 iterations at t[s]:  14532.11
	FillingsUpdate:  mu: -0.171300000  nElectrons: 531.726212  magneticMoment: [ Abs: 0.00000  Tot: -0.00000 ]
	SubspaceRotationAdjust: set factor to 0.332
ElecMinimize: Iter:  34  G: -5560.756452908955907  |grad|_K:  1.795e-08  alpha:  1.925e-01  linmin: -3.001e-04  t[s]:  14588.97
ElecMinimize: Converged (|Delta G|<1.000000e-07 for 2 iters).
Setting wave functions to eigenvectors of Hamiltonian
Converging empty states (this may take a while): |deigs|: 2.903e-04
Single-point solvation energy estimate, DeltaG = -0.004452233984921

Computing DFT-D3 correction:
# coordination-number Cu 4.585 6.082 7.607 9.125 9.152 9.158 9.160 9.160 9.160 9.159 9.156 9.147 8.374 6.852 6.852 8.374 9.147 9.156 9.159 9.160 9.160 9.158 9.160 9.152 9.125 7.607 6.082 4.585
# diagonal-C6 Cu 175.00 175.00 175.00 175.00 175.00 175.00 175.00 175.00 175.00 175.00 175.00 175.00 175.00 175.00 175.00 175.00 175.00 175.00 175.00 175.00 175.00 175.00 175.00 175.00 175.00 175.00 175.00 175.00
EvdW_6 =   -0.175894
EvdW_8 =   -0.258546

# Ionic positions in cartesian coordinates:
ion Cu   0.000000000000000   0.000000000000000  24.772200000000005 1
ion Cu   5.504022000000000   5.884051999999999   1.351200000000000 1
ion Cu   5.504025000000000   1.471010000000000   3.152850000000000 1
ion Cu   2.752014000000000   7.355062999999999   4.954425000000000 1
ion Cu   2.752008000000000   2.942021000000000   6.756075000000000 1
ion Cu  -0.000002999999999   8.826072999999997   8.557650000000001 1
ion Cu   0.000000000000000   4.413030999999999  10.359299999999999 1
ion Cu   5.504022000000000   5.884051999999999  13.962525000000001 1
ion Cu   0.000000000000000   0.000000000000000  12.160875000000001 1
ion Cu   5.504025000000000   1.471010000000000  15.764099999999999 1
ion Cu   2.752014000000000   7.355062999999999  17.565750000000001 1
ion Cu   2.752008000000000   2.942021000000000  19.367325000000001 1
ion Cu  -0.000002999999999   8.826072999999997  21.168975000000000 1
ion Cu   0.000000000000000   4.413030999999999  22.970550000000003 1
ion Cu   1.376003000000000   3.677531000000000   2.252025000000000 1
ion Cu  -1.376006000000000   9.561572999999997   4.053600000000000 1
ion Cu  -1.376006000000000   5.148541999999999   5.855250000000000 1
ion Cu   6.880027999999999   0.735510000000000   7.656825000000000 1
ion Cu   4.128019000000000   6.619551999999999   9.458475000000000 1
ion Cu   4.128020000000000   2.206521000000000  11.260126000000000 1
ion Cu   1.376002000000000   8.090563000000000  13.061700000000000 1
ion Cu  -1.376006000000000   9.561572999999997  16.664925000000000 1
ion Cu   1.376003000000000   3.677531000000000  14.863351000000002 1
ion Cu  -1.376006000000000   5.148541999999999  18.466576000000000 1
ion Cu   6.880027999999999   0.735510000000000  20.268149999999999 1
ion Cu   4.128019000000000   6.619551999999999  22.069800999999998 1
ion Cu   4.128020000000000   2.206521000000000  23.871375000000004 1
ion Cu   1.376002000000000   8.090563000000000   0.450375000000000 1

# Forces in Cartesian coordinates:
force Cu   0.000256179164290   0.000337701791490  -0.008572598392930 1
force Cu  -0.000178579297159  -0.000358642066087   0.002344971171604 1
force Cu   0.000404843386648  -0.000053153244942  -0.004918854907255 1
force Cu   0.000822218121366   0.001776117262522  -0.003348815310746 1
force Cu  -0.000569075555139  -0.000671806664076   0.003039144660730 1
force Cu   0.000151313545554  -0.000512643127832   0.000885358686080 1
force Cu  -0.000017905106830  -0.000268914778341   0.000057810778268 1
force Cu  -0.000045548392582   0.000408541167410  -0.000553465899035 1
force Cu   0.000189661347606   0.000015166575684   0.000070160034613 1
force Cu   0.000082244924052  -0.000013322672353   0.001046089194730 1
force Cu  -0.000500151372335   0.000805505108023  -0.001736947904747 1
force Cu   0.000481974706964   0.000807353224064  -0.001853406880151 1
force Cu   0.000522837437174  -0.002647214445003   0.006550104281410 1
force Cu  -0.000288997980623   0.001065984077511   0.002877759606796 1
force Cu   0.000331818754278  -0.001045532711392  -0.002851616293789 1
force Cu  -0.000483855398002   0.002668159024817  -0.006623020308495 1
force Cu  -0.000479664786364  -0.000829333150901   0.001941612363149 1
force Cu   0.000487277405801  -0.000772301831218   0.001665075858651 1
force Cu  -0.000134452017233  -0.000041511358242  -0.000980338615853 1
force Cu   0.000025785701103  -0.000377406116866   0.000654417350274 1
force Cu  -0.000185341282840  -0.000041210207865  -0.000094557022088 1
force Cu  -0.000108866706162   0.000530148002041  -0.000942082166882 1
force Cu   0.000053790116896   0.000289261940089   0.000086584773480 1
force Cu   0.000565535071596   0.000644287347163  -0.003008298523159 1
force Cu  -0.000837539225997  -0.001745816416219   0.003372702144833 1
force Cu  -0.000458409782821  -0.000003813715901   0.004828640161302 1
force Cu   0.000165859472329   0.000389783804908  -0.002328618993737 1
force Cu  -0.000261061673626  -0.000360476533056   0.008472581011134 1

# Energy components:
   A_diel =        0.0369463581785381
   Eewald =    55289.5096413210412720
       EH =    60442.7096573986855219
     Eloc =  -122445.0524067106598523
      Enl =     1025.4621976452629042
     EvdW =       -0.4344402467276576
      Exc =     -543.3665356070275720
 Exc_core =        1.3151798865699980
       KE =      577.9567327439966675
  MuShift =        0.0224661266498902
-------------------------------------
     Etot =    -5651.8405610840281952
       TS =        0.0005920046489052
-------------------------------------
        F =    -5651.8411530886769469
      muN =      -91.0847001797209401
-------------------------------------
        G =    -5560.7564529089559073


Dumping 'jdft.fillings' ... done
Dumping 'jdft.wfns' ... done
Dumping 'jdft.fluidState' ... done
Dumping 'jdft.ionpos' ... done
Dumping 'jdft.lattice' ... done
Dumping 'jdft.eigenvals' ... done
Dumping 'jdft.eigStats' ... 
	eMin: -4.313440 at state 35 ( [ +0.000000 +0.000000 +0.000000 ] spin -1 )
	HOMO: -0.171425 at state 33 ( [ -0.142857 -0.400000 +0.000000 ] spin 1 )
	mu  : -0.171300
	LUMO: -0.171245 at state 35 ( [ +0.000000 +0.000000 +0.000000 ] spin -1 )
	eMax: +0.199573 at state 20 ( [ -0.428571 +0.000000 +0.000000 ] spin 1 )
	HOMO-LUMO gap: +0.000180
	Optical gap  : +0.004522 at state 33 ( [ -0.142857 -0.400000 +0.000000 ] spin 1 )
Dumping 'jdft.Ecomponents' ... done
IonicMinimize: Iter:   0  G: -5560.756452908955907  |grad|_K:  2.174e-03  t[s]:  15096.09

#--- Lowdin population analysis ---
# oxidation-state Cu +0.333 +0.142 +0.050 +0.041 +0.069 +0.074 +0.077 +0.076 +0.075 +0.076 +0.074 +0.065 +0.039 +0.107 +0.107 +0.039 +0.065 +0.074 +0.076 +0.076 +0.075 +0.074 +0.078 +0.069 +0.041 +0.050 +0.142 +0.333
# magnetic-moments Cu +0.000 -0.000 -0.000 +0.000 +0.000 +0.000 -0.000 -0.000 -0.000 +0.000 +0.000 +0.000 +0.000 -0.000 -0.000 +0.000 -0.000 -0.000 +0.000 +0.000 -0.000 +0.000 +0.000 -0.000 +0.000 -0.000 +0.000 -0.000


Computing DFT-D3 correction:
# coordination-number Cu 4.609 6.092 7.606 9.123 9.144 9.154 9.163 9.162 9.162 9.160 9.151 9.139 8.372 6.852 6.852 8.372 9.138 9.151 9.160 9.162 9.162 9.154 9.163 9.144 9.123 7.607 6.092 4.609
# diagonal-C6 Cu 175.00 175.00 175.00 175.00 175.00 175.00 175.00 175.00 175.00 175.00 175.00 175.00 175.00 175.00 175.00 175.00 175.00 175.00 175.00 175.00 175.00 175.00 175.00 175.00 175.00 175.00 175.00 175.00
EvdW_6 =   -0.175894
EvdW_8 =   -0.258543
Shifting auxilliary hamiltonian by 0.000004 to set nElectrons=531.726212

-------- Electronic minimization -----------
	Linear fluid (dielectric constant: 78.4, screening length: 8.12261 Bohr) occupying 0.555679 of unit cell:	Completed after 12 iterations at t[s]:  15150.02
	FillingsUpdate:  mu: -0.171300000  nElectrons: 531.726212  magneticMoment: [ Abs: 0.00000  Tot: -0.00000 ]
ElecMinimize: Iter:   0  G: -5560.756713388100252  |grad|_K:  5.891e-07  alpha:  1.000e+00
	Linear fluid (dielectric constant: 78.4, screening length: 8.12261 Bohr) occupying 0.555675 of unit cell:	Completed after 19 iterations at t[s]:  15267.03
	Linear fluid (dielectric constant: 78.4, screening length: 8.12261 Bohr) occupying 0.555678 of unit cell:	Completed after 19 iterations at t[s]:  15306.15
	FillingsUpdate:  mu: -0.171300000  nElectrons: 531.724630  magneticMoment: [ Abs: 0.00000  Tot: -0.00000 ]
	SubspaceRotationAdjust: set factor to 0.367
ElecMinimize: Iter:   1  G: -5560.756741803594196  |grad|_K:  4.622e-07  alpha:  1.322e-01  linmin:  1.866e-06  t[s]:  15361.89
	Linear fluid (dielectric constant: 78.4, screening length: 8.12261 Bohr) occupying 0.555679 of unit cell:	Completed after 12 iterations at t[s]:  15414.40
	Linear fluid (dielectric constant: 78.4, screening length: 8.12261 Bohr) occupying 0.555679 of unit cell:	Completed after 11 iterations at t[s]:  15452.69
	FillingsUpdate:  mu: -0.171300000  nElectrons: 531.730776  magneticMoment: [ Abs: 0.00000  Tot: -0.00000 ]
	SubspaceRotationAdjust: set factor to 0.224
ElecMinimize: Iter:   2  G: -5560.756766876495931  |grad|_K:  6.909e-07  alpha:  1.896e-01  linmin:  3.203e-06  t[s]:  15508.65
	Linear fluid (dielectric constant: 78.4, screening length: 8.12261 Bohr) occupying 0.555671 of unit cell:	Completed after 14 iterations at t[s]:  15560.98
	Linear fluid (dielectric constant: 78.4, screening length: 8.12261 Bohr) occupying 0.555676 of unit cell:	Completed after 14 iterations at t[s]:  15599.57
	FillingsUpdate:  mu: -0.171300000  nElectrons: 531.725543  magneticMoment: [ Abs: 0.00000  Tot: -0.00000 ]
	SubspaceRotationAdjust: set factor to 0.153
ElecMinimize: Iter:   3  G: -5560.756786046190427  |grad|_K:  3.387e-07  alpha:  6.552e-02  linmin:  6.686e-05  t[s]:  15656.18
	Linear fluid (dielectric constant: 78.4, screening length: 8.12261 Bohr) occupying 0.555676 of unit cell:	Completed after 2 iterations at t[s]:  15706.63
	Linear fluid (dielectric constant: 78.4, screening length: 8.12261 Bohr) occupying 0.555675 of unit cell:	Completed after 7 iterations at t[s]:  15744.21
	FillingsUpdate:  mu: -0.171300000  nElectrons: 531.725352  magneticMoment: [ Abs: 0.00000  Tot: +0.00000 ]
	SubspaceRotationAdjust: set factor to 0.196
ElecMinimize: Iter:   4  G: -5560.756799795637562  |grad|_K:  2.817e-07  alpha:  1.952e-01  linmin:  1.493e-05  t[s]:  15800.70
	Linear fluid (dielectric constant: 78.4, screening length: 8.12261 Bohr) occupying 0.555676 of unit cell:	Completed after 12 iterations at t[s]:  15852.36
	Linear fluid (dielectric constant: 78.4, screening length: 8.12261 Bohr) occupying 0.555675 of unit cell:	Completed after 10 iterations at t[s]:  15890.05
	FillingsUpdate:  mu: -0.171300000  nElectrons: 531.727302  magneticMoment: [ Abs: 0.00000  Tot: +0.00000 ]
	SubspaceRotationAdjust: set factor to 0.19
ElecMinimize: Iter:   5  G: -5560.756806808011788  |grad|_K:  2.263e-07  alpha:  1.428e-01  linmin:  1.033e-05  t[s]:  15947.31
	Linear fluid (dielectric constant: 78.4, screening length: 8.12261 Bohr) occupying 0.555675 of unit cell:	Completed after 10 iterations at t[s]:  15998.63
	Linear fluid (dielectric constant: 78.4, screening length: 8.12261 Bohr) occupying 0.555675 of unit cell:	Completed after 11 iterations at t[s]:  16036.56
	FillingsUpdate:  mu: -0.171300000  nElectrons: 531.724521  magneticMoment: [ Abs: 0.00000  Tot: +0.00000 ]
	SubspaceRotationAdjust: set factor to 0.169
ElecMinimize: Iter:   6  G: -5560.756816026959314  |grad|_K:  2.910e-07  alpha:  2.912e-01  linmin:  4.786e-06  t[s]:  16093.05
	Linear fluid (dielectric constant: 78.4, screening length: 8.12261 Bohr) occupying 0.555676 of unit cell:	Completed after 12 iterations at t[s]:  16144.73
	Linear fluid (dielectric constant: 78.4, screening length: 8.12261 Bohr) occupying 0.555675 of unit cell:	Completed after 11 iterations at t[s]:  16182.55
	FillingsUpdate:  mu: -0.171300000  nElectrons: 531.726147  magneticMoment: [ Abs: 0.00000  Tot: +0.00000 ]
	SubspaceRotationAdjust: set factor to 0.162
ElecMinimize: Iter:   7  G: -5560.756822785551776  |grad|_K:  1.472e-07  alpha:  1.289e-01  linmin:  2.084e-06  t[s]:  16239.17
	Linear fluid (dielectric constant: 78.4, screening length: 8.12261 Bohr) occupying 0.555675 of unit cell:	Completed after 2 iterations at t[s]:  16289.75
	Linear fluid (dielectric constant: 78.4, screening length: 8.12261 Bohr) occupying 0.555674 of unit cell:	Completed after 2 iterations at t[s]:  16326.68
	FillingsUpdate:  mu: -0.171300000  nElectrons: 531.726094  magneticMoment: [ Abs: 0.00000  Tot: +0.00000 ]
	SubspaceRotationAdjust: set factor to 0.178
ElecMinimize: Iter:   8  G: -5560.756825485462286  |grad|_K:  1.594e-07  alpha:  2.015e-01  linmin:  9.305e-06  t[s]:  16383.72
	Linear fluid (dielectric constant: 78.4, screening length: 8.12261 Bohr) occupying 0.555672 of unit cell:	Completed after 10 iterations at t[s]:  16435.16
	Linear fluid (dielectric constant: 78.4, screening length: 8.12261 Bohr) occupying 0.555671 of unit cell:	Completed after 2 iterations at t[s]:  16472.03
	FillingsUpdate:  mu: -0.171300000  nElectrons: 531.725425  magneticMoment: [ Abs: 0.00000  Tot: +0.00000 ]
	SubspaceRotationAdjust: set factor to 0.178
ElecMinimize: Iter:   9  G: -5560.756829395866589  |grad|_K:  1.298e-07  alpha:  2.475e-01  linmin: -1.700e-04  t[s]:  16529.07
	Linear fluid (dielectric constant: 78.4, screening length: 8.12261 Bohr) occupying 0.555668 of unit cell:	Completed after 11 iterations at t[s]:  16580.68
	Linear fluid (dielectric constant: 78.4, screening length: 8.12261 Bohr) occupying 0.555669 of unit cell:	Completed after 10 iterations at t[s]:  16618.42
	FillingsUpdate:  mu: -0.171300000  nElectrons: 531.726707  magneticMoment: [ Abs: 0.00000  Tot: +0.00000 ]
	SubspaceRotationAdjust: set factor to 0.162
ElecMinimize: Iter:  10  G: -5560.756830914870079  |grad|_K:  1.057e-07  alpha:  1.393e-01  linmin:  3.101e-05  t[s]:  16675.28
	Linear fluid (dielectric constant: 78.4, screening length: 8.12261 Bohr) occupying 0.555666 of unit cell:	Completed after 7 iterations at t[s]:  16726.06
	Linear fluid (dielectric constant: 78.4, screening length: 8.12261 Bohr) occupying 0.555665 of unit cell:	Completed after 3 iterations at t[s]:  16763.15
	FillingsUpdate:  mu: -0.171300000  nElectrons: 531.726572  magneticMoment: [ Abs: 0.00000  Tot: +0.00000 ]
	SubspaceRotationAdjust: set factor to 0.18
ElecMinimize: Iter:  11  G: -5560.756832254972323  |grad|_K:  7.818e-08  alpha:  1.933e-01  linmin: -1.247e-04  t[s]:  16819.82
[...]
-------------------------------------
        F =    -5651.8481442474967480
      muN =      -91.0887406810244045
-------------------------------------
        G =    -5560.7594035664724288


Dumping 'jdft.fillings' ... done
Dumping 'jdft.wfns' ... done
Dumping 'jdft.fluidState' ... done
Dumping 'jdft.ionpos' ... done
Dumping 'jdft.lattice' ... done
Dumping 'jdft.eigenvals' ... done
Dumping 'jdft.eigStats' ... 
	eMin: -4.313026 at state 35 ( [ +0.000000 +0.000000 +0.000000 ] spin -1 )
	HOMO: -0.171463 at state 35 ( [ +0.000000 +0.000000 +0.000000 ] spin -1 )
	mu  : -0.171300
	LUMO: -0.170822 at state 25 ( [ -0.285714 +0.000000 +0.000000 ] spin 1 )
	eMax: +0.199646 at state 20 ( [ -0.428571 +0.000000 +0.000000 ] spin 1 )
	HOMO-LUMO gap: +0.000642
	Optical gap  : +0.002398 at state 35 ( [ +0.000000 +0.000000 +0.000000 ] spin -1 )
Dumping 'jdft.Ecomponents' ... done
IonicMinimize: Iter:   4  G: -5560.759403566472429  |grad|_K:  1.077e-04  alpha:  1.000e+00  linmin: -2.721e-01  t[s]:  36443.93

#--- Lowdin population analysis ---
# oxidation-state Cu +0.308 +0.141 +0.052 +0.040 +0.072 +0.075 +0.077 +0.076 +0.076 +0.075 +0.075 +0.070 +0.038 +0.110 +0.109 +0.038 +0.070 +0.075 +0.075 +0.076 +0.076 +0.075 +0.077 +0.072 +0.040 +0.052 +0.141 +0.307
# magnetic-moments Cu +0.000 -0.000 +0.000 +0.000 -0.000 +0.000 -0.000 +0.000 +0.000 +0.000 -0.000 +0.000 +0.000 +0.000 -0.000 +0.000 -0.000 -0.000 -0.000 +0.000 -0.000 -0.000 +0.000 -0.000 -0.000 +0.000 -0.000 +0.000


Computing DFT-D3 correction:
# coordination-number Cu 4.905 6.247 7.612 9.094 9.050 9.108 9.173 9.160 9.160 9.162 9.107 9.040 8.340 6.875 6.871 8.339 9.037 9.104 9.161 9.159 9.162 9.108 9.174 9.053 9.096 7.616 6.249 4.905
# diagonal-C6 Cu 175.00 175.00 175.00 175.00 175.00 175.00 175.00 175.00 175.00 175.00 175.00 175.00 175.00 175.00 175.00 175.00 175.00 175.00 175.00 175.00 175.00 175.00 175.00 175.00 175.00 175.00 175.00 175.00
EvdW_6 =   -0.175888
EvdW_8 =   -0.258693
Shifting auxilliary hamiltonian by -0.000048 to set nElectrons=531.749800

-------- Electronic minimization -----------
	Linear fluid (dielectric constant: 78.4, screening length: 8.12261 Bohr) occupying 0.557302 of unit cell:	Completed after 13 iterations at t[s]:  36498.13
	FillingsUpdate:  mu: -0.171300000  nElectrons: 531.749800  magneticMoment: [ Abs: 0.00000  Tot: +0.00000 ]
ElecMinimize: Iter:   0  G: -5560.759363586907966  |grad|_K:  4.463e-07  alpha:  1.000e+00
	Linear fluid (dielectric constant: 78.4, screening length: 8.12261 Bohr) occupying 0.557319 of unit cell:	Completed after 19 iterations at t[s]:  36615.41
	Linear fluid (dielectric constant: 78.4, screening length: 8.12261 Bohr) occupying 0.557304 of unit cell:	Completed after 19 iterations at t[s]:  36654.99
	FillingsUpdate:  mu: -0.171300000  nElectrons: 531.753003  magneticMoment: [ Abs: 0.00000  Tot: +0.00000 ]
	SubspaceRotationAdjust: set factor to 0.111
ElecMinimize: Iter:   1  G: -5560.759377243391100  |grad|_K:  2.364e-07  alpha:  1.092e-01  linmin: -4.047e-04  t[s]:  36710.10
	Linear fluid (dielectric constant: 78.4, screening length: 8.12261 Bohr) occupying 0.557303 of unit cell:	Completed after 6 iterations at t[s]:  36761.51
	Linear fluid (dielectric constant: 78.4, screening length: 8.12261 Bohr) occupying 0.557303 of unit cell:	Completed after 7 iterations at t[s]:  36799.29
	FillingsUpdate:  mu: -0.171300000  nElectrons: 531.752039  magneticMoment: [ Abs: 0.00000  Tot: +0.00000 ]
	SubspaceRotationAdjust: set factor to 0.135
ElecMinimize: Iter:   2  G: -5560.759386972626999  |grad|_K:  2.143e-07  alpha:  2.769e-01  linmin: -1.167e-04  t[s]:  36855.47
	Linear fluid (dielectric constant: 78.4, screening length: 8.12261 Bohr) occupying 0.557301 of unit cell:	Completed after 12 iterations at t[s]:  36907.63
	Linear fluid (dielectric constant: 78.4, screening length: 8.12261 Bohr) occupying 0.557302 of unit cell:	Completed after 10 iterations at t[s]:  36945.35
	FillingsUpdate:  mu: -0.171300000  nElectrons: 531.749692  magneticMoment: [ Abs: 0.00000  Tot: +0.00000 ]
	SubspaceRotationAdjust: set factor to 0.142
ElecMinimize: Iter:   3  G: -5560.759391563638928  |grad|_K:  1.394e-07  alpha:  1.616e-01  linmin: -1.035e-05  t[s]:  37001.45
	Linear fluid (dielectric constant: 78.4, screening length: 8.12261 Bohr) occupying 0.557302 of unit cell:	Completed after 6 iterations at t[s]:  37052.64
	Linear fluid (dielectric constant: 78.4, screening length: 8.12261 Bohr) occupying 0.557302 of unit cell:	Completed after 2 iterations at t[s]:  37089.33
	FillingsUpdate:  mu: -0.171300000  nElectrons: 531.749232  magneticMoment: [ Abs: 0.00000  Tot: +0.00000 ]
	SubspaceRotationAdjust: set factor to 0.192
ElecMinimize: Iter:   4  G: -5560.759393992225341  |grad|_K:  1.125e-07  alpha:  2.017e-01  linmin: -6.384e-05  t[s]:  37145.59
	Linear fluid (dielectric constant: 78.4, screening length: 8.12261 Bohr) occupying 0.557302 of unit cell:	Completed after 10 iterations at t[s]:  37197.26
	Linear fluid (dielectric constant: 78.4, screening length: 8.12261 Bohr) occupying 0.557302 of unit cell:	Completed after 3 iterations at t[s]:  37234.92
	FillingsUpdate:  mu: -0.171300000  nElectrons: 531.750157  magneticMoment: [ Abs: 0.00000  Tot: +0.00000 ]
	SubspaceRotationAdjust: set factor to 0.203
ElecMinimize: Iter:   5  G: -5560.759395906977261  |grad|_K:  1.373e-07  alpha:  2.435e-01  linmin: -8.818e-05  t[s]:  37291.11
	Linear fluid (dielectric constant: 78.4, screening length: 8.12261 Bohr) occupying 0.557302 of unit cell:	Completed after 10 iterations at t[s]:  37342.68
	Linear fluid (dielectric constant: 78.4, screening length: 8.12261 Bohr) occupying 0.557302 of unit cell:	Completed after 2 iterations at t[s]:  37379.34
	FillingsUpdate:  mu: -0.171300000  nElectrons: 531.749296  magneticMoment: [ Abs: 0.00000  Tot: +0.00000 ]
	SubspaceRotationAdjust: set factor to 0.237
ElecMinimize: Iter:   6  G: -5560.759399257107361  |grad|_K:  1.217e-07  alpha:  2.842e-01  linmin:  2.702e-05  t[s]:  37435.69
	Linear fluid (dielectric constant: 78.4, screening length: 8.12261 Bohr) occupying 0.557303 of unit cell:	Completed after 8 iterations at t[s]:  37487.05
	Linear fluid (dielectric constant: 78.4, screening length: 8.12261 Bohr) occupying 0.557303 of unit cell:	Completed after 4 iterations at t[s]:  37524.12
	FillingsUpdate:  mu: -0.171300000  nElectrons: 531.749300  magneticMoment: [ Abs: 0.00000  Tot: +0.00000 ]
	SubspaceRotationAdjust: set factor to 0.281
ElecMinimize: Iter:   7  G: -5560.759400775435097  |grad|_K:  1.210e-07  alpha:  1.658e-01  linmin:  1.769e-05  t[s]:  37580.52
	Linear fluid (dielectric constant: 78.4, screening length: 8.12261 Bohr) occupying 0.557304 of unit cell:	Completed after 10 iterations at t[s]:  37632.01
	Linear fluid (dielectric constant: 78.4, screening length: 8.12261 Bohr) occupying 0.557305 of unit cell:	Completed after 7 iterations at t[s]:  37669.73
	FillingsUpdate:  mu: -0.171300000  nElectrons: 531.750147  magneticMoment: [ Abs: 0.00000  Tot: +0.00000 ]
	SubspaceRotationAdjust: set factor to 0.252
ElecMinimize: Iter:   8  G: -5560.759403222420588  |grad|_K:  1.468e-07  alpha:  2.737e-01  linmin:  8.025e-05  t[s]:  37726.22
	Linear fluid (dielectric constant: 78.4, screening length: 8.12261 Bohr) occupying 0.557308 of unit cell:	Completed after 12 iterations at t[s]:  37778.01
	Linear fluid (dielectric constant: 78.4, screening length: 8.12261 Bohr) occupying 0.557306 of unit cell:	Completed after 11 iterations at t[s]:  37816.36
	FillingsUpdate:  mu: -0.171300000  nElectrons: 531.748677  magneticMoment: [ Abs: 0.00000  Tot: +0.00000 ]
	SubspaceRotationAdjust: set factor to 0.198
ElecMinimize: Iter:   9  G: -5560.759404612070284  |grad|_K:  1.138e-07  alpha:  1.054e-01  linmin: -3.820e-07  t[s]:  37872.87
	Linear fluid (dielectric constant: 78.4, screening length: 8.12261 Bohr) occupying 0.557308 of unit cell:	Completed after 10 iterations at t[s]:  37924.47
	Linear fluid (dielectric constant: 78.4, screening length: 8.12261 Bohr) occupying 0.557309 of unit cell:	Completed after 3 iterations at t[s]:  37961.34
	FillingsUpdate:  mu: -0.171300000  nElectrons: 531.749375  magneticMoment: [ Abs: 0.00000  Tot: +0.00000 ]
	SubspaceRotationAdjust: set factor to 0.198
ElecMinimize: Iter:  10  G: -5560.759405708045961  |grad|_K:  8.485e-08  alpha:  1.363e-01  linmin: -9.084e-05  t[s]:  38017.94
	Linear fluid (dielectric constant: 78.4, screening length: 8.12261 Bohr) occupying 0.557310 of unit cell:	Completed after 7 iterations at t[s]:  38068.87
	Linear fluid (dielectric constant: 78.4, screening length: 8.12261 Bohr) occupying 0.557310 of unit cell:	Completed after 0 iterations at t[s]:  38105.38
	FillingsUpdate:  mu: -0.171300000  nElectrons: 531.749845  magneticMoment: [ Abs: 0.00000  Tot: -0.00000 ]
	SubspaceRotationAdjust: set factor to 0.21
ElecMinimize: Iter:  11  G: -5560.759406362869413  |grad|_K:  7.599e-08  alpha:  1.439e-01  linmin: -2.559e-04  t[s]:  38161.91
	Linear fluid (dielectric constant: 78.4, screening length: 8.12261 Bohr) occupying 0.557312 of unit cell:	Completed after 10 iterations at t[s]:  38213.41
	Linear fluid (dielectric constant: 78.4, screening length: 8.12261 Bohr) occupying 0.557312 of unit cell:	Completed after 0 iterations at t[s]:  38249.63
	FillingsUpdate:  mu: -0.171300000  nElectrons: 531.749188  magneticMoment: [ Abs: 0.00000  Tot: -0.00000 ]
	SubspaceRotationAdjust: set factor to 0.185
ElecMinimize: Iter:  12  G: -5560.759406949380718  |grad|_K:  6.829e-08  alpha:  1.579e-01  linmin: -2.058e-04  t[s]:  38306.30
	Linear fluid (dielectric constant: 78.4, screening length: 8.12261 Bohr) occupying 0.557313 of unit cell:	Completed after 7 iterations at t[s]:  38357.30
	Linear fluid (dielectric constant: 78.4, screening length: 8.12261 Bohr) occupying 0.557313 of unit cell:	Completed after 0 iterations at t[s]:  38393.66
	FillingsUpdate:  mu: -0.171300000  nElectrons: 531.749389  magneticMoment: [ Abs: 0.00000  Tot: -0.00000 ]
	SubspaceRotationAdjust: set factor to 0.214
ElecMinimize: Iter:  13  G: -5560.759407380263838  |grad|_K:  5.394e-08  alpha:  1.437e-01  linmin:  1.649e-04  t[s]:  38450.80
	Linear fluid (dielectric constant: 78.4, screening length: 8.12261 Bohr) occupying 0.557314 of unit cell:	Completed after 8 iterations at t[s]:  38501.99
	Linear fluid (dielectric constant: 78.4, screening length: 8.12261 Bohr) occupying 0.557314 of unit cell:	Completed after 2 iterations at t[s]:  38538.65
	FillingsUpdate:  mu: -0.171300000  nElectrons: 531.749756  magneticMoment: [ Abs: 0.00000  Tot: -0.00000 ]
	SubspaceRotationAdjust: set factor to 0.177
ElecMinimize: Iter:  14  G: -5560.759407566411028  |grad|_K:  4.183e-08  alpha:  1.051e-01  linmin:  5.129e-04  t[s]:  38595.42
	Linear fluid (dielectric constant: 78.4, screening length: 8.12261 Bohr) occupying 0.557314 of unit cell:	Completed after 7 iterations at t[s]:  38646.27
	Linear fluid (dielectric constant: 78.4, screening length: 8.12261 Bohr) occupying 0.557314 of unit cell:	Completed after 0 iterations at t[s]:  38682.55
	FillingsUpdate:  mu: -0.171300000  nElectrons: 531.749442  magneticMoment: [ Abs: 0.00000  Tot: -0.00000 ]
	SubspaceRotationAdjust: set factor to 0.167
ElecMinimize: Iter:  15  G: -5560.759407675996954  |grad|_K:  3.116e-08  alpha:  1.058e-01  linmin: -8.087e-04  t[s]:  38739.40
	Linear fluid (dielectric constant: 78.4, screening length: 8.12261 Bohr) occupying 0.557314 of unit cell:	Completed after 2 iterations at t[s]:  38789.88
	Linear fluid (dielectric constant: 78.4, screening length: 8.12261 Bohr) occupying 0.557314 of unit cell:	Completed after 0 iterations at t[s]:  38826.17
	FillingsUpdate:  mu: -0.171300000  nElectrons: 531.749305  magneticMoment: [ Abs: 0.00000  Tot: -0.00000 ]
	SubspaceRotationAdjust: set factor to 0.183
ElecMinimize: Iter:  16  G: -5560.759407759647729  |grad|_K:  2.485e-08  alpha:  1.297e-01  linmin: -6.165e-04  t[s]:  38883.71
	Linear fluid (dielectric constant: 78.4, screening length: 8.12261 Bohr) occupying 0.557315 of unit cell:	Completed after 2 iterations at t[s]:  38934.01
	Linear fluid (dielectric constant: 78.4, screening length: 8.12261 Bohr) occupying 0.557315 of unit cell:	Completed after 0 iterations at t[s]:  38970.61
	FillingsUpdate:  mu: -0.171300000  nElectrons: 531.749321  magneticMoment: [ Abs: 0.00000  Tot: -0.00000 ]
	SubspaceRotationAdjust: set factor to 0.192
ElecMinimize: Iter:  17  G: -5560.759407817475221  |grad|_K:  1.795e-08  alpha:  1.435e-01  linmin: -1.932e-03  t[s]:  39027.59
ElecMinimize: Converged (|Delta G|<1.000000e-07 for 2 iters).
Setting wave functions to eigenvectors of Hamiltonian
Converging empty states (this may take a while): |deigs|: 5.059e-09

Computing DFT-D3 correction:
# coordination-number Cu 4.905 6.247 7.612 9.094 9.050 9.108 9.173 9.160 9.160 9.162 9.107 9.040 8.340 6.875 6.871 8.339 9.037 9.104 9.161 9.159 9.162 9.108 9.174 9.053 9.096 7.616 6.249 4.905
# diagonal-C6 Cu 175.00 175.00 175.00 175.00 175.00 175.00 175.00 175.00 175.00 175.00 175.00 175.00 175.00 175.00 175.00 175.00 175.00 175.00 175.00 175.00 175.00 175.00 175.00 175.00 175.00 175.00 175.00 175.00
EvdW_6 =   -0.175888
EvdW_8 =   -0.258693

# Ionic positions in cartesian coordinates:
ion Cu  -0.000721471127272   0.022321616093194  24.623586687391196 1
ion Cu   5.510154676766189   5.877610379746049   1.399790390826078 1
ion Cu   5.509030792364412   1.496392473248772   3.072766754228920 1
ion Cu   2.760671260968806   7.379922684060793   4.947450766246984 1
ion Cu   2.752542321196732   2.925120137199568   6.774955222062284 1
ion Cu  -0.004454924364024   8.815329167988240   8.547789553226293 1
ion Cu  -0.001495943853639   4.404401076825820  10.363838039711279 1
ion Cu   5.501436286898567   5.893998052017762  13.948603673608760 1
ion Cu   0.002300514577752  -0.002142287896038  12.164791244560435 1
ion Cu   5.510506739609774   1.477861614008265  15.781062401540654 1
ion Cu   2.748863242251839   7.369583584599250  17.558389901192211 1
ion Cu   2.744096495576003   2.952288234219429  19.351398259525549 1
ion Cu   0.029251245559873   8.764661212322141  21.252325274935533 1
ion Cu  -0.010527539586266   4.430654231702167  23.024283486007587 1
ion Cu   1.386892476992685   3.659457702640806   2.197330078477659 1
ion Cu  -1.404786653659596   9.622342240965454   3.970424673558410 1
ion Cu  -1.368061472007169   5.137618721966283   5.872137494885492 1
ion Cu   6.882882059157625   0.721712190382169   7.663134317354669 1
ion Cu   4.121370642821420   6.612150425563557   9.442439127413834 1
ion Cu   4.130527395109792   2.197144000334742  11.276250256151201 1
ion Cu   1.373782407951524   8.092656548311163  13.056352075301222 1
ion Cu  -1.371099877577638   9.572634825993076  16.673940509327284 1
ion Cu   1.377508142466979   3.686590987610322  14.861187123821299 1
ion Cu  -1.376724079640198   5.165683068666705  18.448754427910391 1
ion Cu   6.871399275505246   0.710687596131967  20.275523475108916 1
ion Cu   4.122643038458913   6.593931720533747  22.148061269613073 1
ion Cu   4.121727033116063   2.213602404317556  23.821657108712948 1
ion Cu   1.376537914465612   8.067869390447017   0.598130407299849 1

# Forces in Cartesian coordinates:
force Cu  -0.000044850843811  -0.000042902612752   0.000065017465033 1
force Cu   0.000012956560376   0.000065757699216   0.000101516854378 1
force Cu   0.000033969737627   0.000039262618394   0.000044842302988 1
force Cu   0.000000265649229  -0.000003975097033   0.000025173998103 1
force Cu   0.000022917909656   0.000021595456994   0.000037586471455 1
force Cu  -0.000041062699582   0.000025047028357   0.000050052566702 1
force Cu   0.000002972740803  -0.000017865445937  -0.000078631544923 1
force Cu   0.000025240342328   0.000004257838326  -0.000031346617945 1
force Cu  -0.000005241710559  -0.000008423747292  -0.000044686643234 1
force Cu  -0.000007899553507   0.000015050815091  -0.000063966535302 1
force Cu   0.000014894404660  -0.000032390554465  -0.000112803184772 1
force Cu  -0.000000302589976  -0.000011611838026  -0.000029276563338 1
force Cu  -0.000014687118401   0.000003392183312  -0.000026664318729 1
force Cu   0.000002292614328   0.000011141635040   0.000089240178406 1
force Cu   0.000000785018481  -0.000006683778907   0.000026466006731 1
force Cu   0.000022014438871  -0.000020150153146   0.000110970758298 1
force Cu   0.000005525694075   0.000010327203925   0.000028320118033 1
force Cu  -0.000018081961978   0.000034571196917   0.000076433908663 1
force Cu   0.000009386267057  -0.000017393255537  -0.000017017326472 1
force Cu  -0.000026330201983  -0.000010666544652  -0.000072588437461 1
force Cu   0.000006880888142   0.000002359605264  -0.000069512476116 1
force Cu   0.000038834826014  -0.000028809724837  -0.000113567768172 1
force Cu  -0.000002454218818   0.000020546300298  -0.000025686661401 1
force Cu  -0.000018350505328  -0.000026557654750  -0.000055790700780 1
force Cu  -0.000005372702058  -0.000004762228506  -0.000013865967916 1
force Cu  -0.000043283688560  -0.000042332891493   0.000071236174964 1
force Cu  -0.000010905819288  -0.000065690358499   0.000031230787953 1
force Cu   0.000045730467017   0.000040560662441   0.000083782636465 1

# Energy components:
   A_diel =        0.0343697202394917
   Eewald =    55314.1805111386784120
       EH =    60467.8173071813434944
     Eloc =  -122494.8137974633427802
      Enl =     1025.4452285232350732
     EvdW =       -0.4345811571683974
      Exc =     -543.3810877968326167
 Exc_core =        1.3151739152070907
       KE =      577.9687738782391762
  MuShift =        0.0205698993068225
-------------------------------------
     Etot =    -5651.8475321610931132
       TS =        0.0005343609960053
-------------------------------------
        F =    -5651.8480665220895389
      muN =      -91.0886587046141756
-------------------------------------
        G =    -5560.7594078174752212


Dumping 'jdft.fillings' ... done
Dumping 'jdft.wfns' ... done
Dumping 'jdft.fluidState' ... done
Dumping 'jdft.ionpos' ... done
Dumping 'jdft.lattice' ... done
Dumping 'jdft.eigenvals' ... done
Dumping 'jdft.eigStats' ... 
	eMin: -4.313134 at state 35 ( [ +0.000000 +0.000000 +0.000000 ] spin -1 )
	HOMO: -0.171536 at state 35 ( [ +0.000000 +0.000000 +0.000000 ] spin -1 )
	mu  : -0.171300
	LUMO: -0.170860 at state 60 ( [ -0.285714 +0.000000 +0.000000 ] spin -1 )
	eMax: +0.199643 at state 20 ( [ -0.428571 +0.000000 +0.000000 ] spin 1 )
	HOMO-LUMO gap: +0.000676
	Optical gap  : +0.002405 at state 35 ( [ +0.000000 +0.000000 +0.000000 ] spin -1 )
Dumping 'jdft.Ecomponents' ... done
IonicMinimize: Iter:   5  G: -5560.759407817475221  |grad|_K:  4.272e-05  alpha:  1.000e+00  linmin: -2.140e-01  t[s]:  39171.43
IonicMinimize: Converged (|grad|_K<1.000000e-04).

#--- Lowdin population analysis ---
# oxidation-state Cu +0.309 +0.142 +0.052 +0.040 +0.072 +0.075 +0.077 +0.076 +0.075 +0.075 +0.074 +0.069 +0.038 +0.110 +0.110 +0.038 +0.070 +0.075 +0.075 +0.076 +0.075 +0.075 +0.077 +0.072 +0.040 +0.052 +0.142 +0.309
# magnetic-moments Cu -0.000 +0.000 -0.000 +0.000 -0.000 +0.000 -0.000 +0.000 +0.000 +0.000 +0.000 -0.000 +0.000 -0.000 -0.000 -0.000 -0.000 -0.000 +0.000 +0.000 +0.000 -0.000 +0.000 +0.000 +0.000 +0.000 +0.000 -0.000


Dumping 'jdft.n_up' ... done
Dumping 'jdft.n_dn' ... done
Dumping 'jdft.tau_up' ... done
Dumping 'jdft.tau_dn' ... done
Dumping 'jdft.eigenvals' ... done
Dumping 'jdft.eigStats' ... 
	eMin: -4.313134 at state 35 ( [ +0.000000 +0.000000 +0.000000 ] spin -1 )
	HOMO: -0.171536 at state 35 ( [ +0.000000 +0.000000 +0.000000 ] spin -1 )
	mu  : -0.171300
	LUMO: -0.170860 at state 60 ( [ -0.285714 +0.000000 +0.000000 ] spin -1 )
	eMax: +0.199643 at state 20 ( [ -0.428571 +0.000000 +0.000000 ] spin 1 )
	HOMO-LUMO gap: +0.000676
	Optical gap  : +0.002405 at state 35 ( [ +0.000000 +0.000000 +0.000000 ] spin -1 )
Dumping 'jdft.kPts' ... done
Dumping 'jdft.dosUp' ... done.
Dumping 'jdft.dosDn' ... done.
End date and time: Tue Dec  7 02:56:24 2021  (Duration: 0-10:54:16.43)
Done!
