
*************** JDFTx 1.6.0  ***************

Start date and time: Mon Dec  6 16:32:41 2021
Executable /projects/musgravc/apps/jdftx-1.6.1/build/jdftx with command-line: -i in
Running on hosts (process indices):  shas0847.rc.int.colorado.edu (0-23)
Divided in process groups (process indices):  0 (0)  1 (1)  2 (2)  3 (3)  4 (4)  5 (5)  6 (6)  7 (7)  8 (8)  9 (9)  10 (10)  11 (11)  12 (12)  13 (13)  14 (14)  15 (15)  16 (16)  17 (17)  18 (18)  19 (19)  20 (20)  21 (21)  22 (22)  23 (23)
Resource initialization completed at t[s]:      0.00
Run totals: 24 processes, 24 threads, 0 GPUs


Input parsed successfully to the following command list (including defaults):

basis kpoint-dependent
converge-empty-states yes
coords-type Cartesian
core-overlap-check none
coulomb-interaction Periodic
davidson-band-ratio 1.1
density-of-states Etol 1.000000e-06 Esigma 1.000000e-03 \
		Complete \
	Total \
	OrthoOrbital Pt 1   s \
	OrthoOrbital Pt 1   p \
	OrthoOrbital Pt 1   px \
	OrthoOrbital Pt 1   py \
	OrthoOrbital Pt 1   pz \
	OrthoOrbital Pt 1   d \
	OrthoOrbital Pt 1   dxy \
	OrthoOrbital Pt 1   dyz \
	OrthoOrbital Pt 1   dz2 \
	OrthoOrbital Pt 1   dxz \
	OrthoOrbital Pt 1   dx2-y2 \
	OrthoOrbital Pt 2   s \
	OrthoOrbital Pt 2   p \
	OrthoOrbital Pt 2   px \
	OrthoOrbital Pt 2   py \
	OrthoOrbital Pt 2   pz \
	OrthoOrbital Pt 2   d \
	OrthoOrbital Pt 2   dxy \
	OrthoOrbital Pt 2   dyz \
	OrthoOrbital Pt 2   dz2 \
	OrthoOrbital Pt 2   dxz \
	OrthoOrbital Pt 2   dx2-y2 \
	OrthoOrbital Pt 3   s \
	OrthoOrbital Pt 3   p \
	OrthoOrbital Pt 3   px \
	OrthoOrbital Pt 3   py \
	OrthoOrbital Pt 3   pz \
	OrthoOrbital Pt 3   d \
	OrthoOrbital Pt 3   dxy \
	OrthoOrbital Pt 3   dyz \
	OrthoOrbital Pt 3   dz2 \
	OrthoOrbital Pt 3   dxz \
	OrthoOrbital Pt 3   dx2-y2 \
	OrthoOrbital Pt 4   s \
	OrthoOrbital Pt 4   p \
	OrthoOrbital Pt 4   px \
	OrthoOrbital Pt 4   py \
	OrthoOrbital Pt 4   pz \
	OrthoOrbital Pt 4   d \
	OrthoOrbital Pt 4   dxy \
	OrthoOrbital Pt 4   dyz \
	OrthoOrbital Pt 4   dz2 \
	OrthoOrbital Pt 4   dxz \
	OrthoOrbital Pt 4   dx2-y2 \
	OrthoOrbital Pt 5   s \
	OrthoOrbital Pt 5   p \
	OrthoOrbital Pt 5   px \
	OrthoOrbital Pt 5   py \
	OrthoOrbital Pt 5   pz \
	OrthoOrbital Pt 5   d \
	OrthoOrbital Pt 5   dxy \
	OrthoOrbital Pt 5   dyz \
	OrthoOrbital Pt 5   dz2 \
	OrthoOrbital Pt 5   dxz \
	OrthoOrbital Pt 5   dx2-y2 \
	OrthoOrbital Pt 6   s \
	OrthoOrbital Pt 6   p \
	OrthoOrbital Pt 6   px \
	OrthoOrbital Pt 6   py \
	OrthoOrbital Pt 6   pz \
	OrthoOrbital Pt 6   d \
	OrthoOrbital Pt 6   dxy \
	OrthoOrbital Pt 6   dyz \
	OrthoOrbital Pt 6   dz2 \
	OrthoOrbital Pt 6   dxz \
	OrthoOrbital Pt 6   dx2-y2 \
	OrthoOrbital Pt 7   s \
	OrthoOrbital Pt 7   p \
	OrthoOrbital Pt 7   px \
	OrthoOrbital Pt 7   py \
	OrthoOrbital Pt 7   pz \
	OrthoOrbital Pt 7   d \
	OrthoOrbital Pt 7   dxy \
	OrthoOrbital Pt 7   dyz \
	OrthoOrbital Pt 7   dz2 \
	OrthoOrbital Pt 7   dxz \
	OrthoOrbital Pt 7   dx2-y2 \
	OrthoOrbital Pt 8   s \
	OrthoOrbital Pt 8   p \
	OrthoOrbital Pt 8   px \
	OrthoOrbital Pt 8   py \
	OrthoOrbital Pt 8   pz \
	OrthoOrbital Pt 8   d \
	OrthoOrbital Pt 8   dxy \
	OrthoOrbital Pt 8   dyz \
	OrthoOrbital Pt 8   dz2 \
	OrthoOrbital Pt 8   dxz \
	OrthoOrbital Pt 8   dx2-y2 \
	OrthoOrbital Pt 9   s \
	OrthoOrbital Pt 9   p \
	OrthoOrbital Pt 9   px \
	OrthoOrbital Pt 9   py \
	OrthoOrbital Pt 9   pz \
	OrthoOrbital Pt 9   d \
	OrthoOrbital Pt 9   dxy \
	OrthoOrbital Pt 9   dyz \
	OrthoOrbital Pt 9   dz2 \
	OrthoOrbital Pt 9   dxz \
	OrthoOrbital Pt 9   dx2-y2 \
	OrthoOrbital Pt 10   s \
	OrthoOrbital Pt 10   p \
	OrthoOrbital Pt 10   px \
	OrthoOrbital Pt 10   py \
	OrthoOrbital Pt 10   pz \
	OrthoOrbital Pt 10   d \
	OrthoOrbital Pt 10   dxy \
	OrthoOrbital Pt 10   dyz \
	OrthoOrbital Pt 10   dz2 \
	OrthoOrbital Pt 10   dxz \
	OrthoOrbital Pt 10   dx2-y2 \
	OrthoOrbital Pt 11   s \
	OrthoOrbital Pt 11   p \
	OrthoOrbital Pt 11   px \
	OrthoOrbital Pt 11   py \
	OrthoOrbital Pt 11   pz \
	OrthoOrbital Pt 11   d \
	OrthoOrbital Pt 11   dxy \
	OrthoOrbital Pt 11   dyz \
	OrthoOrbital Pt 11   dz2 \
	OrthoOrbital Pt 11   dxz \
	OrthoOrbital Pt 11   dx2-y2
dump End ElecDensity KEdensity BandEigs EigStats RhoAtom DOS Kpoints
dump Ionic State IonicPositions Lattice EigStats Ecomponents
dump 
dump 
dump 
dump 
dump 
dump 
dump 
dump 
dump-name jdft.$VAR
elec-cutoff 20
elec-eigen-algo Davidson
elec-ex-corr gga-PBE
elec-initial-magnetization 0.000000 no
elec-n-bands 106
elec-smearing Fermi 0.001
electronic-minimize  \
	dirUpdateScheme      FletcherReeves \
	linminMethod         DirUpdateRecommended \
	nIterations          100 \
	history              15 \
	knormThreshold       0 \
	energyDiffThreshold  1e-07 \
	nEnergyDiff          2 \
	alphaTstart          1 \
	alphaTmin            1e-10 \
	updateTestStepSize   yes \
	alphaTreduceFactor   0.1 \
	alphaTincreaseFactor 3 \
	nAlphaAdjustMax      3 \
	wolfeEnergy          0.0001 \
	wolfeGradient        0.9 \
	fdTest               no
exchange-regularization WignerSeitzTruncated
fluid LinearPCM 298.000000 1.013250
fluid-anion F- 0.5 MeanFieldLJ \
	epsBulk 1 \
	pMol 0 \
	epsInf 1 \
	Pvap 0 \
	sigmaBulk 0 \
	Rvdw 2.24877 \
	Res 0 \
	tauNuc 343133
fluid-cation Na+ 0.5 MeanFieldLJ \
	epsBulk 1 \
	pMol 0 \
	epsInf 1 \
	Pvap 0 \
	sigmaBulk 0 \
	Rvdw 2.19208 \
	Res 0 \
	tauNuc 343133
fluid-ex-corr lda-TF lda-PZ
fluid-gummel-loop 10 1.000000e-05
fluid-minimize  \
	dirUpdateScheme      PolakRibiere \
	linminMethod         DirUpdateRecommended \
	nIterations          400 \
	history              15 \
	knormThreshold       1e-11 \
	energyDiffThreshold  0 \
	nEnergyDiff          2 \
	alphaTstart          1 \
	alphaTmin            1e-10 \
	updateTestStepSize   yes \
	alphaTreduceFactor   0.1 \
	alphaTincreaseFactor 3 \
	nAlphaAdjustMax      6 \
	wolfeEnergy          0.0001 \
	wolfeGradient        0.9 \
	fdTest               no
fluid-solvent H2O 55.338 ScalarEOS \
	epsBulk 78.4 \
	pMol 0.92466 \
	epsInf 1.77 \
	Pvap 1.06736e-10 \
	sigmaBulk 4.62e-05 \
	Rvdw 2.61727 \
	Res 1.42 \
	tauNuc 343133 \
	poleEl 15 7 1
forces-output-coords Positions
ion Pt   5.231996000000000   0.000000000000000  23.424781000000003 1
ion Pt  -0.000002000000000   4.732522000000001   1.115501000000000 1
ion Pt   2.616001000000000   0.788752000000000   3.346429000000000 1
ion Pt   2.615999000000000   5.521274000000000   5.577357000000001 1
ion Pt   0.000000000000000   1.577504000000000   7.808285000000001 1
ion Pt  -0.000002000000000   6.310026000000000  10.039213000000000 1
ion Pt   2.616001000000000   2.366257000000000  12.270141000000002 1
ion Pt   2.615999000000000   7.098778000000001  14.501068999999999 1
ion Pt   0.000000000000000   3.155009000000001  16.731997000000000 1
ion Pt  -0.000002000000000   7.887530000000001  18.962924999999998 1
ion Pt   2.616001000000000   3.943761000000000  21.193853000000001 1
ion-species /projects/musgravc/apps/jdftx-1.6.0/build/pseudopotentials/GBRV_v1.5/$ID_pbe_v1.uspp
ion-species /projects/musgravc/apps/jdftx-1.6.0/build/pseudopotentials/GBRV_v1.5/$ID_pbe_v1.2.uspp
ion-species /projects/musgravc/apps/jdftx-1.6.0/build/pseudopotentials/GBRV_v1.5/$ID_pbe_v1.4.uspp
ion-species /projects/musgravc/apps/jdftx-1.6.0/build/pseudopotentials/GBRV_v1.5/$ID_pbe_v1.5.uspp
ion-width Ecut
ionic-minimize  \
	dirUpdateScheme      L-BFGS \
	linminMethod         DirUpdateRecommended \
	nIterations          100 \
	history              15 \
	knormThreshold       0.0001 \
	energyDiffThreshold  1e-06 \
	nEnergyDiff          2 \
	alphaTstart          1 \
	alphaTmin            1e-10 \
	updateTestStepSize   yes \
	alphaTreduceFactor   0.1 \
	alphaTincreaseFactor 3 \
	nAlphaAdjustMax      3 \
	wolfeEnergy          0.0001 \
	wolfeGradient        0.9 \
	fdTest               no
kpoint   0.000000000000   0.000000000000   0.000000000000  1.00000000000000
kpoint-folding 13 7 1 
latt-move-scale 0 0 0
latt-scale 1 1 1 
lattice  \
	   5.231996000000000   -2.615997000000000    0.000000000000000  \
	   0.000000000000000    8.676283000000000    0.000000000000000  \
	   0.000000000000000    0.000000000000000   73.620697000000007 
lattice-minimize  \
	dirUpdateScheme      L-BFGS \
	linminMethod         DirUpdateRecommended \
	nIterations          0 \
	history              15 \
	knormThreshold       0 \
	energyDiffThreshold  1e-06 \
	nEnergyDiff          2 \
	alphaTstart          1 \
	alphaTmin            1e-10 \
	updateTestStepSize   yes \
	alphaTreduceFactor   0.1 \
	alphaTincreaseFactor 3 \
	nAlphaAdjustMax      3 \
	wolfeEnergy          0.0001 \
	wolfeGradient        0.9 \
	fdTest               no
lcao-params 30 1e-06 0.001
pcm-variant CANDLE
spintype z-spin
subspace-rotation-factor 1 yes
symmetries none
symmetry-threshold 0.0001
van-der-waals D3


Applied RMS atom displacement 0 bohrs to make symmetries exact.

---------- Initializing the Grid ----------
R = 
[        5.232       -2.616            0  ]
[            0      8.67628            0  ]
[            0            0      73.6207  ]
unit cell volume = 3341.96
G =
[    1.20092    0.36209         -0  ]
[          0   0.724179          0  ]
[          0         -0  0.0853454  ]
Minimum fftbox size, Smin = [  24  40  300  ]
Chosen fftbox size, S = [  24  40  300  ]

---------- Exchange Correlation functional ----------
Initalized PBE GGA exchange.
Initalized PBE GGA correlation.

---------- Setting up pseudopotentials ----------
Width of ionic core gaussian charges (only for fluid interactions / plotting) set to 0.397384

Reading pseudopotential file '/projects/musgravc/apps/jdftx-1.6.0/build/pseudopotentials/GBRV_v1.5/pt_pbe_v1.4.uspp':
  Title: Pt.  Created by USPP 7.3.6 on 31-3-15
  Reference state energy: -105.002503.  16 valence electrons in orbitals:
    |510>  occupation: 6  eigenvalue: -2.158104
    |520>  occupation: 9.5  eigenvalue: -0.335376
    |600>  occupation: 0  eigenvalue: -0.319640
    |610>  occupation: 0  eigenvalue: -0.122947
  lMax: 2  lLocal: 3  QijEcut: 5.5
  6 projectors sampled on a log grid with 745 points:
    l: 0  eig: -0.319640  rCut: 2.45
    l: 0  eig: 1.500000  rCut: 2.45
    l: 1  eig: -2.158104  rCut: 1.6
    l: 1  eig: -0.122947  rCut: 1.6
    l: 2  eig: -0.500000  rCut: 1.6
    l: 2  eig: -0.335375  rCut: 1.6
  Partial core density with radius 1.1
  Transforming core density to a uniform radial grid of dG=0.02 with 1353 points.
  Transforming local potential to a uniform radial grid of dG=0.02 with 1353 points.
  Transforming nonlocal projectors to a uniform radial grid of dG=0.02 with 432 points.
  Transforming density augmentations to a uniform radial grid of dG=0.02 with 1353 points.
  Transforming atomic orbitals to a uniform radial grid of dG=0.02 with 432 points.
  Core radius for overlap checks: 2.45 bohrs.

Initialized 1 species with 11 total atoms.

Folded 1 k-points by 13x7x1 to 91 k-points.

---------- Setting up k-points, bands, fillings ----------
No reducable k-points. 
Computing the number of bands and number of electrons
Calculating initial fillings.
nElectrons: 176.000000   nBands: 106   nStates: 182

----- Setting up reduced wavefunction bases (one per k-point) -----
average nbasis = 14277.418 , ideal nbasis = 14277.101

----- Initializing Supercell corresponding to k-point mesh -----
Lattice vector linear combinations in supercell:
[  13   0   0  ]
[   0   7   0  ]
[   0   0   1  ]
Supercell lattice vectors:
[  68.0159  -18.312  0  ]
[  0  60.734  0  ]
[  0  0  73.6207  ]

Initializing DFT-D3 calculator:
	Parameters set for gga-PBE functional
	s6:  1.000  s_r6:  1.217
	s8:  0.722  s_r8:  1.000
	Per-atom parameters loaded for:
	Pt:  sqrtQ[a0]:  5.888  Rcov[a0]:  2.116  CN: [ 0.00 1.92 6.67 ]

Initializing DFT-D2 calculator for fluid / solvation:
	Pt:  C6:  815.23 Eh-a0^6  R0: 3.326 a0 (WARNING: beyond Grimme's data set)

---------- Setting up ewald sum ----------
Optimum gaussian width for ewald sums = 3.999555 bohr.
Real space sum over 1235 unit cells with max indices [  9  6  2  ]
Reciprocal space sum over 4543 terms with max indices [  3  5  29  ]

Computing DFT-D3 correction:
# coordination-number Pt 5.568 5.568 7.955 9.523 9.556 9.561 9.561 9.561 9.556 9.523 7.955
# diagonal-C6 Pt 336.87 336.87 336.87 336.87 336.87 336.87 336.87 336.87 336.87 336.87 336.87
EvdW_6 =   -0.096460
EvdW_8 =   -0.156125

---------- Allocating electronic variables ----------
Initializing wave functions:  linear combination of atomic orbitals
Pt pseudo-atom occupations:   s ( 0 )  p ( 6 0 )  d ( 10 )
	FillingsUpdate:  mu: -1.598739708  nElectrons: 176.000000  magneticMoment: [ Abs: 0.00116  Tot: +0.00013 ]
LCAOMinimize: Iter:   0  F: -972.8600641368260540  |grad|_K:  1.207e-02  alpha:  1.000e+00
LCAOMinimize: 	Step increased F by 1.784805e+02, reducing alpha to 2.194103e-02.
	FillingsUpdate:  mu: +0.339109834  nElectrons: 176.000000  magneticMoment: [ Abs: 0.00094  Tot: +0.00001 ]
LCAOMinimize: Iter:   1  F: -976.5459124602269867  |grad|_K:  5.449e-03  alpha:  2.194e-02  linmin:  1.539e-01  cgtest: -9.156e-01  t[s]:    105.19
LCAOMinimize: 	Bad step direction: g.d > 0.
LCAOMinimize: 	Undoing step.
LCAOMinimize: 	Step failed: resetting search direction.
	FillingsUpdate:  mu: +0.339109834  nElectrons: 176.000000  magneticMoment: [ Abs: 0.00094  Tot: +0.00001 ]
LCAOMinimize: Iter:   2  F: -976.5459124602269867  |grad|_K:  5.449e-03  alpha:  0.000e+00
	FillingsUpdate:  mu: -0.310973771  nElectrons: 176.000000  magneticMoment: [ Abs: 0.00090  Tot: +0.00004 ]
LCAOMinimize: Iter:   3  F: -977.4713253243667168  |grad|_K:  2.060e-03  alpha:  1.842e-02  linmin:  4.203e-02  cgtest: -2.041e-01  t[s]:    162.55
LCAOMinimize: 	Predicted alpha/alphaT>3.000000, increasing alphaT to 5.525320e-02.
	FillingsUpdate:  mu: -0.125047205  nElectrons: 176.000000  magneticMoment: [ Abs: 0.00077  Tot: +0.00002 ]
LCAOMinimize: Iter:   4  F: -977.8571305178276134  |grad|_K:  2.836e-03  alpha:  6.289e-02  linmin:  5.615e-04  cgtest:  5.161e-01  t[s]:    204.63
	FillingsUpdate:  mu: +0.090647443  nElectrons: 176.000000  magneticMoment: [ Abs: 0.00071  Tot: +0.00003 ]
LCAOMinimize: Iter:   5  F: -978.0552790539586567  |grad|_K:  1.184e-03  alpha:  1.547e-02  linmin: -6.432e-03  cgtest:  6.744e-02  t[s]:    237.58
LCAOMinimize: 	Predicted alpha/alphaT>3.000000, increasing alphaT to 4.641182e-02.
	FillingsUpdate:  mu: +0.193637460  nElectrons: 176.000000  magneticMoment: [ Abs: 0.00060  Tot: +0.00001 ]
LCAOMinimize: Iter:   6  F: -978.2616627215876406  |grad|_K:  3.106e-03  alpha:  9.630e-02  linmin:  3.668e-03  cgtest: -8.192e-02  t[s]:    280.38
LCAOMinimize: 	Step increased F by 1.447251e-02, reducing alpha to 1.034563e-03.
	FillingsUpdate:  mu: +0.168365553  nElectrons: 176.000000  magneticMoment: [ Abs: 0.00060  Tot: +0.00000 ]
LCAOMinimize: Iter:   7  F: -978.2872649964585889  |grad|_K:  2.521e-03  alpha:  1.035e-03  linmin: -2.899e-02  cgtest:  9.988e-01  t[s]:    338.10
LCAOMinimize: Encountered beta<0, resetting CG.
LCAOMinimize: 	Predicted alpha/alphaT>3.000000, increasing alphaT to 3.103690e-03.
	FillingsUpdate:  mu: +0.053657288  nElectrons: 176.000000  magneticMoment: [ Abs: 0.00059  Tot: -0.00000 ]
LCAOMinimize: Iter:   8  F: -978.3279495558781491  |grad|_K:  5.449e-04  alpha:  3.979e-03  linmin:  3.944e-03  cgtest: -2.269e-02  t[s]:    379.85
LCAOMinimize: 	Predicted alpha/alphaT>3.000000, increasing alphaT to 1.193689e-02.
LCAOMinimize: 	Predicted alpha/alphaT>3.000000, increasing alphaT to 3.581066e-02.
LCAOMinimize: 	Predicted alpha/alphaT>3.000000, increasing alphaT to 1.074320e-01.
	FillingsUpdate:  mu: +0.137182422  nElectrons: 176.000000  magneticMoment: [ Abs: 0.00054  Tot: +0.00000 ]
LCAOMinimize: Iter:   9  F: -978.3845747336898739  |grad|_K:  5.273e-04  alpha:  1.149e-01  linmin: -7.652e-03  cgtest:  1.335e-01  t[s]:    430.32
	FillingsUpdate:  mu: +0.168152214  nElectrons: 176.000000  magneticMoment: [ Abs: 0.00053  Tot: +0.00001 ]
LCAOMinimize: Iter:  10  F: -978.3942382413018777  |grad|_K:  1.104e-03  alpha:  2.072e-02  linmin:  2.196e-04  cgtest: -2.335e-02  t[s]:    463.47
	FillingsUpdate:  mu: +0.114268587  nElectrons: 176.000000  magneticMoment: [ Abs: 0.00045  Tot: +0.00001 ]
LCAOMinimize: Iter:  11  F: -978.4612471514781191  |grad|_K:  9.542e-04  alpha:  3.303e-02  linmin: -3.207e-03  cgtest:  2.401e-01  t[s]:    496.91
	FillingsUpdate:  mu: +0.157863628  nElectrons: 176.000000  magneticMoment: [ Abs: 0.00044  Tot: +0.00000 ]
LCAOMinimize: Iter:  12  F: -978.4812358720299699  |grad|_K:  6.014e-04  alpha:  1.330e-02  linmin:  1.712e-03  cgtest: -9.242e-02  t[s]:    530.34
	FillingsUpdate:  mu: +0.147284682  nElectrons: 176.000000  magneticMoment: [ Abs: 0.00043  Tot: +0.00000 ]
LCAOMinimize: Iter:  13  F: -978.4836885950837768  |grad|_K:  2.301e-04  alpha:  4.309e-03  linmin: -9.502e-04  cgtest:  1.065e-01  t[s]:    563.28
LCAOMinimize: 	Predicted alpha/alphaT>3.000000, increasing alphaT to 1.292634e-02.
LCAOMinimize: 	Predicted alpha/alphaT>3.000000, increasing alphaT to 3.877902e-02.
	FillingsUpdate:  mu: +0.133312159  nElectrons: 176.000000  magneticMoment: [ Abs: 0.00043  Tot: -0.00000 ]
LCAOMinimize: Iter:  14  F: -978.4870354300882127  |grad|_K:  3.400e-04  alpha:  3.913e-02  linmin:  5.042e-04  cgtest: -1.598e-02  t[s]:    614.06
	FillingsUpdate:  mu: +0.134292299  nElectrons: 176.000000  magneticMoment: [ Abs: 0.00043  Tot: -0.00000 ]
LCAOMinimize: Iter:  15  F: -978.4885273740460434  |grad|_K:  3.214e-04  alpha:  7.722e-03  linmin: -2.253e-03  cgtest:  5.274e-02  t[s]:    647.13
	FillingsUpdate:  mu: +0.156643625  nElectrons: 176.000000  magneticMoment: [ Abs: 0.00042  Tot: -0.00001 ]
LCAOMinimize: Iter:  16  F: -978.4913277190939880  |grad|_K:  1.450e-04  alpha:  1.660e-02  linmin:  7.001e-03  cgtest: -2.698e-01  t[s]:    680.45
	FillingsUpdate:  mu: +0.153290154  nElectrons: 176.000000  magneticMoment: [ Abs: 0.00042  Tot: -0.00001 ]
LCAOMinimize: Iter:  17  F: -978.4925473733181889  |grad|_K:  3.167e-04  alpha:  3.906e-02  linmin:  1.909e-04  cgtest:  8.822e-02  t[s]:    713.82
	FillingsUpdate:  mu: +0.139454649  nElectrons: 176.000000  magneticMoment: [ Abs: 0.00041  Tot: -0.00001 ]
LCAOMinimize: Iter:  18  F: -978.4936023463393440  |grad|_K:  1.349e-04  alpha:  6.542e-03  linmin: -3.559e-04  cgtest: -8.609e-02  t[s]:    746.73
LCAOMinimize: 	Predicted alpha/alphaT>3.000000, increasing alphaT to 1.962506e-02.
	FillingsUpdate:  mu: +0.144477131  nElectrons: 176.000000  magneticMoment: [ Abs: 0.00041  Tot: -0.00001 ]
LCAOMinimize: Iter:  19  F: -978.4946956994165248  |grad|_K:  1.210e-04  alpha:  3.698e-02  linmin: -2.875e-04  cgtest: -2.090e-02  t[s]:    788.69
	FillingsUpdate:  mu: +0.128354307  nElectrons: 176.000000  magneticMoment: [ Abs: 0.00041  Tot: -0.00000 ]
LCAOMinimize: Iter:  20  F: -978.4953166961976194  |grad|_K:  9.308e-05  alpha:  2.620e-02  linmin:  1.749e-05  cgtest:  4.873e-03  t[s]:    821.87
	FillingsUpdate:  mu: +0.127342027  nElectrons: 176.000000  magneticMoment: [ Abs: 0.00041  Tot: -0.00000 ]
LCAOMinimize: Iter:  21  F: -978.4954112972097846  |grad|_K:  8.367e-05  alpha:  6.799e-03  linmin:  1.027e-04  cgtest: -2.086e-03  t[s]:    855.17
LCAOMinimize: 	Predicted alpha/alphaT>3.000000, increasing alphaT to 2.039740e-02.
	FillingsUpdate:  mu: +0.130069902  nElectrons: 176.000000  magneticMoment: [ Abs: 0.00041  Tot: +0.00000 ]
LCAOMinimize: Iter:  22  F: -978.4957140064734631  |grad|_K:  6.007e-05  alpha:  2.687e-02  linmin: -3.028e-04  cgtest:  1.390e-02  t[s]:    897.73
	FillingsUpdate:  mu: +0.124311986  nElectrons: 176.000000  magneticMoment: [ Abs: 0.00041  Tot: +0.00000 ]
LCAOMinimize: Iter:  23  F: -978.4958597230612440  |grad|_K:  3.743e-05  alpha:  2.498e-02  linmin:  3.118e-04  cgtest: -1.418e-02  t[s]:    930.80
	FillingsUpdate:  mu: +0.125753339  nElectrons: 176.000000  magneticMoment: [ Abs: 0.00041  Tot: +0.00000 ]
LCAOMinimize: Iter:  24  F: -978.4958937458378614  |grad|_K:  4.931e-05  alpha:  1.514e-02  linmin:  1.459e-05  cgtest:  3.761e-03  t[s]:    963.86
	FillingsUpdate:  mu: +0.127408477  nElectrons: 176.000000  magneticMoment: [ Abs: 0.00041  Tot: +0.00001 ]
LCAOMinimize: Iter:  25  F: -978.4959215211187029  |grad|_K:  1.589e-05  alpha:  7.085e-03  linmin: -1.980e-04  cgtest: -1.177e-02  t[s]:    997.09
LCAOMinimize: 	Predicted alpha/alphaT>3.000000, increasing alphaT to 2.125570e-02.
	FillingsUpdate:  mu: +0.126727051  nElectrons: 176.000000  magneticMoment: [ Abs: 0.00041  Tot: +0.00001 ]
LCAOMinimize: Iter:  26  F: -978.4959358742750055  |grad|_K:  1.598e-05  alpha:  3.533e-02  linmin:  2.666e-04  cgtest: -2.295e-03  t[s]:   1038.83
	FillingsUpdate:  mu: +0.129537460  nElectrons: 176.000000  magneticMoment: [ Abs: 0.00041  Tot: +0.00001 ]
LCAOMinimize: Iter:  27  F: -978.4959525675781151  |grad|_K:  1.578e-05  alpha:  4.067e-02  linmin: -2.068e-05  cgtest:  5.804e-03  t[s]:   1072.02
	FillingsUpdate:  mu: +0.129715419  nElectrons: 176.000000  magneticMoment: [ Abs: 0.00041  Tot: +0.00001 ]
LCAOMinimize: Iter:  28  F: -978.4959579408657646  |grad|_K:  2.385e-05  alpha:  1.339e-02  linmin: -2.906e-05  cgtest: -3.152e-04  t[s]:   1105.22
	FillingsUpdate:  mu: +0.129633784  nElectrons: 176.000000  magneticMoment: [ Abs: 0.00041  Tot: +0.00001 ]
LCAOMinimize: Iter:  29  F: -978.4959737082966740  |grad|_K:  1.495e-05  alpha:  1.720e-02  linmin: -1.232e-04  cgtest: -3.067e-03  t[s]:   1138.21
	FillingsUpdate:  mu: +0.131260048  nElectrons: 176.000000  magneticMoment: [ Abs: 0.00041  Tot: +0.00002 ]
LCAOMinimize: Iter:  30  F: -978.4959825185246700  |grad|_K:  8.245e-06  alpha:  2.444e-02  linmin: -8.186e-05  cgtest: -5.336e-03  t[s]:   1172.03
LCAOMinimize: None of the convergence criteria satisfied after 30 iterations.
----- createFluidSolver() ----- (Fluid-side solver setup)
   Initializing fluid molecule 'H2O'
     Initializing site 'O'
       Electron density: proportional to exp(-r/0.36935)*erfc((r-0.51523)/0.36823) with norm 6.826
       Charge density: gaussian nuclear width 0.478731 with net site charge 0.826
       Polarizability: cuspless exponential with width 0.32 and norm 3.73
       Hard sphere radius: 2.57003 bohrs
       Positions in reference frame:
         [ +0.000000 +0.000000 +0.000000 ]
     Initializing site 'H'
       Electron density: proportional to exp(-r/0.34641)*erfc((r-0)/0.390882) with norm 0.587
       Charge density: gaussian nuclear width 0.377945 with net site charge -0.413
       Polarizability: cuspless exponential with width 0.39 and norm 3.3
       Positions in reference frame:
         [ +0.000000 -1.441945 +1.122523 ]
         [ +0.000000 +1.441945 +1.122523 ]
     Net charge: 0   dipole magnitude: 0.927204
     Initializing spherical shell mfKernel with radius 2.61727 Bohr
     deltaS corrections:
       site 'O': -7.54299
       site 'H': -6.83917
   Initializing fluid molecule 'Na+'
     Initializing site 'Na'
       Electron density: proportional to exp(-r/0.19682)*erfc((r-0.71491)/0.41314) with norm 8.1383
       Charge density: gaussian nuclear width 0.365347 with net site charge -1
       Hard sphere radius: 1.86327 bohrs
       Positions in reference frame:
         [ +0.000000 +0.000000 +0.000000 ]
     Net charge: -1   dipole magnitude: 0
     Initializing gaussian mfKernel with width: 1.55004 Bohr
     deltaS corrections:
       site 'Na': -22.3555
   Initializing fluid molecule 'F-'
     Initializing site 'F'
       Electron density: proportional to exp(-r/0.38886)*erfc((r-0)/0.438782) with norm 8
       Charge density: gaussian nuclear width 0.374796 with net site charge 1
       Hard sphere radius: 2.39995 bohrs
       Positions in reference frame:
         [ +0.000000 +0.000000 +0.000000 ]
     Net charge: 1   dipole magnitude: 0
     Initializing gaussian mfKernel with width: 1.59012 Bohr
     deltaS corrections:
       site 'F': -9.04335

Correction to mu due to finite nuclear width = -0.052253
   Cavity determined by nc: 0.00142 and sigma: 0.707107
   Nonlocal vdW cavity from gaussian model electron density with norm = 8 and sigma = 0.993594 bohr
   Charge asymmetry in cavity with sensitivity pCavity = 36.5 e-bohr/Eh
   Electrostatic cavity expanded by eta = 1.46 bohrs
   Weighted density cavitation model constrained by Nbulk: 0.0049383 bohr^-3, Pvap: 3.14029 kPa, Rvdw: 2.61727 bohr and sigmaBulk: 4.62e-05 Eh/bohr^2 at T: 298 K.
   Weighted density dispersion model using vdW pair potentials with single solvent site with sqrtC6eff: 0.77 SI.


---- Citations for features of the code used in this run ----

   Software package:
      R. Sundararaman, K. Letchworth-Weaver, K.A. Schwarz, D. Gunceler, Y. Ozhabes and T.A. Arias, 'JDFTx: software for joint density-functional theory', SoftwareX 6, 278 (2017)

   gga-PBE exchange-correlation functional:
      J.P. Perdew, K. Burke and M. Ernzerhof, Phys. Rev. Lett. 77, 3865 (1996)

   Pseudopotentials:
      KF Garrity, JW Bennett, KM Rabe and D Vanderbilt, Comput. Mater. Sci. 81, 446 (2014)

   DFT-D3 dispersion correction:
      S. Grimme, J. Antony, S. Ehrlich and H. Krieg, J. Chem. Phys. 132, 154104 (2010)

   DFT-D2 dispersion correction:
      S. Grimme, J. Comput. Chem. 27, 1787 (2006)

   Charge-asymmetric nonlocally-determined local-electric (CANDLE) solvation model:
      R. Sundararaman and W.A. Goddard III, J. Chem. Phys. 142, 064107 (2015)

   Total energy minimization with Auxiliary Hamiltonian:
      C. Freysoldt, S. Boeck, and J. Neugebauer, Phys. Rev. B 79, 241103(R) (2009)

   Linear-tetrahedron sampling for density of states:
      G. Lehmann and M. Taut, Phys. status solidi (b) 54, 469 (1972)

This list may not be complete. Please suggest additional citations or
report any other bugs at https://github.com/shankar1729/jdftx/issues

Initialization completed successfully at t[s]:   1178.69


Computing DFT-D3 correction:
# coordination-number Pt 5.568 5.568 7.955 9.523 9.556 9.561 9.561 9.561 9.556 9.523 7.955
# diagonal-C6 Pt 336.87 336.87 336.87 336.87 336.87 336.87 336.87 336.87 336.87 336.87 336.87
EvdW_6 =   -0.096460
EvdW_8 =   -0.156125
Fluid solver invoked on fresh (random / LCAO) wavefunctions
Running a vacuum solve first:

-------- Initial electronic minimization -----------
	FillingsUpdate:  mu: +0.131260104  nElectrons: 176.000000  magneticMoment: [ Abs: 0.00041  Tot: +0.00002 ]
ElecMinimize: Iter:   0  F: -978.495982518521259  |grad|_K:  3.135e-05  alpha:  1.000e+00
	FillingsUpdate:  mu: +0.149708345  nElectrons: 176.000000  magneticMoment: [ Abs: 0.00032  Tot: +0.00002 ]
	SubspaceRotationAdjust: set factor to 0.989
ElecMinimize: Iter:   1  F: -978.613737772217632  |grad|_K:  1.989e-05  alpha:  4.349e-01  linmin:  1.718e-05  t[s]:   1244.15
	FillingsUpdate:  mu: +0.182471284  nElectrons: 176.000000  magneticMoment: [ Abs: 0.00032  Tot: +0.00002 ]
	SubspaceRotationAdjust: set factor to 0.589
ElecMinimize: Iter:   2  F: -978.616767480749672  |grad|_K:  3.615e-05  alpha:  2.990e-02  linmin:  2.427e-04  t[s]:   1284.07
	FillingsUpdate:  mu: +0.197426286  nElectrons: 176.000000  magneticMoment: [ Abs: 0.00031  Tot: +0.00002 ]
	SubspaceRotationAdjust: set factor to 0.349
ElecMinimize: Iter:   3  F: -978.620321140079909  |grad|_K:  3.379e-05  alpha:  1.080e-02  linmin:  4.199e-05  t[s]:   1323.62
ElecMinimize: 	Predicted alpha/alphaT>3.000000, increasing alphaT to 3.240498e-02.
	FillingsUpdate:  mu: +0.145365691  nElectrons: 176.000000  magneticMoment: [ Abs: 0.00026  Tot: +0.00004 ]
	SubspaceRotationAdjust: set factor to 0.205
ElecMinimize: Iter:   4  F: -978.639022166685209  |grad|_K:  2.135e-05  alpha:  6.026e-02  linmin:  2.717e-05  t[s]:   1373.38
	FillingsUpdate:  mu: +0.136211495  nElectrons: 176.000000  magneticMoment: [ Abs: 0.00026  Tot: +0.00004 ]
	SubspaceRotationAdjust: set factor to 0.163
ElecMinimize: Iter:   5  F: -978.640903216651395  |grad|_K:  1.285e-05  alpha:  1.511e-02  linmin:  2.908e-05  t[s]:   1412.82
ElecMinimize: 	Predicted alpha/alphaT>3.000000, increasing alphaT to 4.532038e-02.
	FillingsUpdate:  mu: +0.141201939  nElectrons: 176.000000  magneticMoment: [ Abs: 0.00023  Tot: +0.00004 ]
	SubspaceRotationAdjust: set factor to 0.102
	SubspaceRotationAdjust: resetting CG because factor has changed by 0.101701
ElecMinimize: 	State modified externally: resetting search direction.
ElecMinimize: Iter:   6  F: -978.646438775313641  |grad|_K:  1.164e-05  alpha:  1.219e-01
	FillingsUpdate:  mu: +0.132595891  nElectrons: 176.000000  magneticMoment: [ Abs: 0.00022  Tot: +0.00004 ]
	SubspaceRotationAdjust: set factor to 0.0519
ElecMinimize: Iter:   7  F: -978.648087028570330  |grad|_K:  6.330e-06  alpha:  4.399e-02  linmin: -1.985e-05  t[s]:   1525.30
ElecMinimize: 	Predicted alpha/alphaT>3.000000, increasing alphaT to 1.319717e-01.
	FillingsUpdate:  mu: +0.148832436  nElectrons: 176.000000  magneticMoment: [ Abs: 0.00020  Tot: +0.00004 ]
	SubspaceRotationAdjust: set factor to 0.0398
ElecMinimize: Iter:   8  F: -978.650593363416647  |grad|_K:  3.631e-06  alpha:  2.264e-01  linmin:  5.733e-05  t[s]:   1575.00
	FillingsUpdate:  mu: +0.138595541  nElectrons: 176.000000  magneticMoment: [ Abs: 0.00017  Tot: +0.00004 ]
	SubspaceRotationAdjust: set factor to 0.0314
ElecMinimize: Iter:   9  F: -978.652012645797299  |grad|_K:  2.748e-06  alpha:  3.900e-01  linmin:  3.505e-05  t[s]:   1614.89
	FillingsUpdate:  mu: +0.142161299  nElectrons: 176.000000  magneticMoment: [ Abs: 0.00015  Tot: +0.00004 ]
	SubspaceRotationAdjust: set factor to 0.0309
ElecMinimize: Iter:  10  F: -978.652759601650473  |grad|_K:  1.990e-06  alpha:  3.580e-01  linmin:  3.532e-06  t[s]:   1654.72
	FillingsUpdate:  mu: +0.145313283  nElectrons: 176.000000  magneticMoment: [ Abs: 0.00014  Tot: +0.00004 ]
	SubspaceRotationAdjust: set factor to 0.0213
ElecMinimize: Iter:  11  F: -978.653026533009893  |grad|_K:  1.636e-06  alpha:  2.439e-01  linmin: -1.465e-06  t[s]:   1694.48
	FillingsUpdate:  mu: +0.145400967  nElectrons: 176.000000  magneticMoment: [ Abs: 0.00014  Tot: +0.00004 ]
	SubspaceRotationAdjust: set factor to 0.0201
ElecMinimize: Iter:  12  F: -978.653197415577438  |grad|_K:  7.753e-07  alpha:  2.310e-01  linmin:  8.685e-07  t[s]:   1734.33
	FillingsUpdate:  mu: +0.143033125  nElectrons: 176.000000  magneticMoment: [ Abs: 0.00013  Tot: +0.00004 ]
	SubspaceRotationAdjust: set factor to 0.0211
ElecMinimize: Iter:  13  F: -978.653263029901382  |grad|_K:  5.575e-07  alpha:  3.949e-01  linmin:  9.177e-06  t[s]:   1773.68
	FillingsUpdate:  mu: +0.143179589  nElectrons: 176.000000  magneticMoment: [ Abs: 0.00013  Tot: +0.00004 ]
	SubspaceRotationAdjust: set factor to 0.02
ElecMinimize: Iter:  14  F: -978.653300496917382  |grad|_K:  5.388e-07  alpha:  4.363e-01  linmin:  2.623e-06  t[s]:   1813.45
	FillingsUpdate:  mu: +0.143836373  nElectrons: 176.000000  magneticMoment: [ Abs: 0.00013  Tot: +0.00004 ]
	SubspaceRotationAdjust: set factor to 0.0186
ElecMinimize: Iter:  15  F: -978.653325584838399  |grad|_K:  3.698e-07  alpha:  3.126e-01  linmin:  5.295e-07  t[s]:   1853.35
	FillingsUpdate:  mu: +0.143533173  nElectrons: 176.000000  magneticMoment: [ Abs: 0.00013  Tot: +0.00004 ]
	SubspaceRotationAdjust: set factor to 0.0233
ElecMinimize: Iter:  16  F: -978.653343502492135  |grad|_K:  3.297e-07  alpha:  4.741e-01  linmin:  4.835e-06  t[s]:   1892.82
	FillingsUpdate:  mu: +0.143165723  nElectrons: 176.000000  magneticMoment: [ Abs: 0.00013  Tot: +0.00004 ]
	SubspaceRotationAdjust: set factor to 0.0252
ElecMinimize: Iter:  17  F: -978.653358862068103  |grad|_K:  3.533e-07  alpha:  5.115e-01  linmin:  2.910e-06  t[s]:   1932.53
	FillingsUpdate:  mu: +0.143493795  nElectrons: 176.000000  magneticMoment: [ Abs: 0.00013  Tot: +0.00004 ]
	SubspaceRotationAdjust: set factor to 0.0233
ElecMinimize: Iter:  18  F: -978.653373384283441  |grad|_K:  4.237e-07  alpha:  4.209e-01  linmin:  2.636e-07  t[s]:   1972.39
	FillingsUpdate:  mu: +0.144269392  nElectrons: 176.000000  magneticMoment: [ Abs: 0.00013  Tot: +0.00004 ]
	SubspaceRotationAdjust: set factor to 0.0236
ElecMinimize: Iter:  19  F: -978.653400168684584  |grad|_K:  4.483e-07  alpha:  5.398e-01  linmin: -9.540e-07  t[s]:   2011.89
	FillingsUpdate:  mu: +0.143480266  nElectrons: 176.000000  magneticMoment: [ Abs: 0.00012  Tot: +0.00004 ]
	SubspaceRotationAdjust: set factor to 0.0253
ElecMinimize: Iter:  20  F: -978.653435580412065  |grad|_K:  5.080e-07  alpha:  6.370e-01  linmin: -1.206e-06  t[s]:   2051.55
	FillingsUpdate:  mu: +0.143069582  nElectrons: 176.000000  magneticMoment: [ Abs: 0.00011  Tot: +0.00004 ]
	SubspaceRotationAdjust: set factor to 0.024
ElecMinimize: Iter:  21  F: -978.653471430005879  |grad|_K:  5.630e-07  alpha:  5.023e-01  linmin: -2.226e-06  t[s]:   2092.52
	FillingsUpdate:  mu: +0.143296452  nElectrons: 176.000000  magneticMoment: [ Abs: 0.00010  Tot: +0.00003 ]
	SubspaceRotationAdjust: set factor to 0.0196
ElecMinimize: Iter:  22  F: -978.653502166920248  |grad|_K:  5.440e-07  alpha:  3.507e-01  linmin: -2.433e-06  t[s]:   2132.22
	FillingsUpdate:  mu: +0.143372684  nElectrons: 176.000000  magneticMoment: [ Abs: 0.00009  Tot: +0.00003 ]
	SubspaceRotationAdjust: set factor to 0.0203
ElecMinimize: Iter:  23  F: -978.653536962042267  |grad|_K:  4.446e-07  alpha:  4.241e-01  linmin: -8.005e-06  t[s]:   2171.90
	FillingsUpdate:  mu: +0.142783395  nElectrons: 176.000000  magneticMoment: [ Abs: 0.00007  Tot: +0.00003 ]
	SubspaceRotationAdjust: set factor to 0.0212
ElecMinimize: Iter:  24  F: -978.653562408730295  |grad|_K:  3.655e-07  alpha:  4.631e-01  linmin: -5.799e-06  t[s]:   2211.83
	FillingsUpdate:  mu: +0.142868775  nElectrons: 176.000000  magneticMoment: [ Abs: 0.00006  Tot: +0.00003 ]
	SubspaceRotationAdjust: set factor to 0.0191
ElecMinimize: Iter:  25  F: -978.653575721352013  |grad|_K:  3.112e-07  alpha:  3.596e-01  linmin: -1.866e-06  t[s]:   2251.42
	FillingsUpdate:  mu: +0.143206198  nElectrons: 176.000000  magneticMoment: [ Abs: 0.00006  Tot: +0.00003 ]
	SubspaceRotationAdjust: set factor to 0.0184
ElecMinimize: Iter:  26  F: -978.653585279296749  |grad|_K:  2.336e-07  alpha:  3.566e-01  linmin: -1.853e-06  t[s]:   2291.20
	FillingsUpdate:  mu: +0.143202666  nElectrons: 176.000000  magneticMoment: [ Abs: 0.00005  Tot: +0.00003 ]
	SubspaceRotationAdjust: set factor to 0.0218
ElecMinimize: Iter:  27  F: -978.653591693229941  |grad|_K:  1.817e-07  alpha:  4.249e-01  linmin: -1.415e-06  t[s]:   2330.91
	FillingsUpdate:  mu: +0.143104876  nElectrons: 176.000000  magneticMoment: [ Abs: 0.00005  Tot: +0.00003 ]
	SubspaceRotationAdjust: set factor to 0.0234
ElecMinimize: Iter:  28  F: -978.653595583681067  |grad|_K:  1.551e-07  alpha:  4.259e-01  linmin: -1.048e-06  t[s]:   2370.41
	FillingsUpdate:  mu: +0.143125700  nElectrons: 176.000000  magneticMoment: [ Abs: 0.00005  Tot: +0.00003 ]
	SubspaceRotationAdjust: set factor to 0.0227
ElecMinimize: Iter:  29  F: -978.653597843842022  |grad|_K:  1.358e-07  alpha:  3.396e-01  linmin: -3.318e-07  t[s]:   2410.15
	FillingsUpdate:  mu: +0.143141091  nElectrons: 176.000000  magneticMoment: [ Abs: 0.00005  Tot: +0.00003 ]
	SubspaceRotationAdjust: set factor to 0.0252
ElecMinimize: Iter:  30  F: -978.653599993794160  |grad|_K:  1.143e-07  alpha:  4.217e-01  linmin: -1.077e-06  t[s]:   2450.04
	FillingsUpdate:  mu: +0.143035552  nElectrons: 176.000000  magneticMoment: [ Abs: 0.00005  Tot: +0.00003 ]
	SubspaceRotationAdjust: set factor to 0.0297
ElecMinimize: Iter:  31  F: -978.653601870208604  |grad|_K:  1.061e-07  alpha:  5.189e-01  linmin: -1.357e-06  t[s]:   2489.87
	FillingsUpdate:  mu: +0.143085547  nElectrons: 176.000000  magneticMoment: [ Abs: 0.00005  Tot: +0.00003 ]
	SubspaceRotationAdjust: set factor to 0.0323
ElecMinimize: Iter:  32  F: -978.653603331258751  |grad|_K:  1.040e-07  alpha:  4.690e-01  linmin:  1.831e-07  t[s]:   2529.61
	FillingsUpdate:  mu: +0.143149815  nElectrons: 176.000000  magneticMoment: [ Abs: 0.00005  Tot: +0.00003 ]
	SubspaceRotationAdjust: set factor to 0.0286
ElecMinimize: Iter:  33  F: -978.653604304224473  |grad|_K:  1.116e-07  alpha:  3.256e-01  linmin:  8.571e-08  t[s]:   2569.32
	FillingsUpdate:  mu: +0.143161530  nElectrons: 176.000000  magneticMoment: [ Abs: 0.00005  Tot: +0.00003 ]
	SubspaceRotationAdjust: set factor to 0.0268
ElecMinimize: Iter:  34  F: -978.653605404263431  |grad|_K:  9.295e-08  alpha:  3.195e-01  linmin:  6.003e-07  t[s]:   2609.18
	FillingsUpdate:  mu: +0.143098893  nElectrons: 176.000000  magneticMoment: [ Abs: 0.00004  Tot: +0.00003 ]
	SubspaceRotationAdjust: set factor to 0.0298
ElecMinimize: Iter:  35  F: -978.653606597733869  |grad|_K:  8.622e-08  alpha:  5.000e-01  linmin:  1.560e-06  t[s]:   2649.18
	FillingsUpdate:  mu: +0.143189742  nElectrons: 176.000000  magneticMoment: [ Abs: 0.00004  Tot: +0.00002 ]
	SubspaceRotationAdjust: set factor to 0.0339
ElecMinimize: Iter:  36  F: -978.653607609878236  |grad|_K:  7.768e-08  alpha:  4.927e-01  linmin:  1.693e-07  t[s]:   2689.43
	FillingsUpdate:  mu: +0.143235175  nElectrons: 176.000000  magneticMoment: [ Abs: 0.00004  Tot: +0.00002 ]
	SubspaceRotationAdjust: set factor to 0.037
ElecMinimize: Iter:  37  F: -978.653608468332777  |grad|_K:  8.162e-08  alpha:  5.147e-01  linmin: -5.262e-07  t[s]:   2729.17
	FillingsUpdate:  mu: +0.143198990  nElectrons: 176.000000  magneticMoment: [ Abs: 0.00004  Tot: +0.00002 ]
	SubspaceRotationAdjust: set factor to 0.0323
ElecMinimize: Iter:  38  F: -978.653609016915880  |grad|_K:  8.818e-08  alpha:  2.978e-01  linmin: -1.309e-07  t[s]:   2768.98
	FillingsUpdate:  mu: +0.143176306  nElectrons: 176.000000  magneticMoment: [ Abs: 0.00004  Tot: +0.00002 ]
	SubspaceRotationAdjust: set factor to 0.0285
ElecMinimize: Iter:  39  F: -978.653609589183475  |grad|_K:  7.055e-08  alpha:  2.662e-01  linmin: -5.270e-07  t[s]:   2809.18
	FillingsUpdate:  mu: +0.143266994  nElectrons: 176.000000  magneticMoment: [ Abs: 0.00003  Tot: +0.00002 ]
	SubspaceRotationAdjust: set factor to 0.0323
ElecMinimize: Iter:  40  F: -978.653610193609097  |grad|_K:  6.031e-08  alpha:  4.388e-01  linmin: -2.192e-06  t[s]:   2849.27
	FillingsUpdate:  mu: +0.143297515  nElectrons: 176.000000  magneticMoment: [ Abs: 0.00003  Tot: +0.00002 ]
	SubspaceRotationAdjust: set factor to 0.0383
ElecMinimize: Iter:  41  F: -978.653610703056188  |grad|_K:  5.483e-08  alpha:  5.060e-01  linmin: -1.223e-06  t[s]:   2889.07
	FillingsUpdate:  mu: +0.143268903  nElectrons: 176.000000  magneticMoment: [ Abs: 0.00003  Tot: +0.00002 ]
	SubspaceRotationAdjust: set factor to 0.0417
ElecMinimize: Iter:  42  F: -978.653611113202373  |grad|_K:  5.854e-08  alpha:  4.933e-01  linmin:  8.115e-08  t[s]:   2928.90
	FillingsUpdate:  mu: +0.143318664  nElectrons: 176.000000  magneticMoment: [ Abs: 0.00003  Tot: +0.00002 ]
	SubspaceRotationAdjust: set factor to 0.0366
ElecMinimize: Iter:  43  F: -978.653611390818583  |grad|_K:  6.694e-08  alpha:  2.930e-01  linmin:  4.327e-07  t[s]:   2968.45
	FillingsUpdate:  mu: +0.143385257  nElectrons: 176.000000  magneticMoment: [ Abs: 0.00003  Tot: +0.00002 ]
	SubspaceRotationAdjust: set factor to 0.0318
ElecMinimize: Iter:  44  F: -978.653611666322149  |grad|_K:  5.167e-08  alpha:  2.225e-01  linmin: -5.410e-08  t[s]:   3008.15
	FillingsUpdate:  mu: +0.143374232  nElectrons: 176.000000  magneticMoment: [ Abs: 0.00003  Tot: +0.00002 ]
	SubspaceRotationAdjust: set factor to 0.0359
ElecMinimize: Iter:  45  F: -978.653612021005870  |grad|_K:  4.720e-08  alpha:  4.808e-01  linmin:  1.372e-06  t[s]:   3047.89
	FillingsUpdate:  mu: +0.143346927  nElectrons: 176.000000  magneticMoment: [ Abs: 0.00003  Tot: +0.00002 ]
	SubspaceRotationAdjust: set factor to 0.04
ElecMinimize: Iter:  46  F: -978.653612319532954  |grad|_K:  4.321e-08  alpha:  4.851e-01  linmin:  6.432e-07  t[s]:   3087.52
	FillingsUpdate:  mu: +0.143431258  nElectrons: 176.000000  magneticMoment: [ Abs: 0.00002  Tot: +0.00002 ]
	SubspaceRotationAdjust: set factor to 0.0424
ElecMinimize: Iter:  47  F: -978.653612561414434  |grad|_K:  4.154e-08  alpha:  4.690e-01  linmin:  1.333e-06  t[s]:   3127.15
	FillingsUpdate:  mu: +0.143436549  nElectrons: 176.000000  magneticMoment: [ Abs: 0.00002  Tot: +0.00002 ]
	SubspaceRotationAdjust: set factor to 0.0367
ElecMinimize: Iter:  48  F: -978.653612698145366  |grad|_K:  4.731e-08  alpha:  2.869e-01  linmin: -3.915e-07  t[s]:   3166.92
	FillingsUpdate:  mu: +0.143411494  nElectrons: 176.000000  magneticMoment: [ Abs: 0.00002  Tot: +0.00002 ]
	SubspaceRotationAdjust: set factor to 0.0298
ElecMinimize: Iter:  49  F: -978.653612821338584  |grad|_K:  3.282e-08  alpha:  1.989e-01  linmin: -4.101e-07  t[s]:   3206.53
	FillingsUpdate:  mu: +0.143395635  nElectrons: 176.000000  magneticMoment: [ Abs: 0.00002  Tot: +0.00002 ]
	SubspaceRotationAdjust: set factor to 0.0348
ElecMinimize: Iter:  50  F: -978.653612946763019  |grad|_K:  2.649e-08  alpha:  4.204e-01  linmin: -2.664e-06  t[s]:   3246.34
	FillingsUpdate:  mu: +0.143443287  nElectrons: 176.000000  magneticMoment: [ Abs: 0.00002  Tot: +0.00002 ]
	SubspaceRotationAdjust: set factor to 0.038
ElecMinimize: Iter:  51  F: -978.653613033024499  |grad|_K:  2.380e-08  alpha:  4.442e-01  linmin: -5.624e-07  t[s]:   3287.07
	FillingsUpdate:  mu: +0.143442685  nElectrons: 176.000000  magneticMoment: [ Abs: 0.00002  Tot: +0.00002 ]
	SubspaceRotationAdjust: set factor to 0.0333
ElecMinimize: Iter:  52  F: -978.653613080288665  |grad|_K:  2.606e-08  alpha:  3.014e-01  linmin: -4.765e-07  t[s]:   3326.68
ElecMinimize: Converged (|Delta F|<1.000000e-07 for 2 iters).
Setting wave functions to eigenvectors of Hamiltonian
Converging empty states (this may take a while): |deigs|: 2.415e-03
Vacuum energy after initial minimize, F = -978.653613080288665


-------- Electronic minimization -----------
	Linear fluid (dielectric constant: 78.4, screening length: 8.12261 Bohr) occupying 0.546760 of unit cell:	Completed after 26 iterations at t[s]:   3457.64
	FillingsUpdate:  mu: -0.197635989  nElectrons: 176.000000  magneticMoment: [ Abs: 0.00002  Tot: +0.00002 ]
ElecMinimize: Iter:   0  F: -978.655497403431355  |grad|_K:  2.386e-06  alpha:  1.000e+00
	Linear fluid (dielectric constant: 78.4, screening length: 8.12261 Bohr) occupying 0.547612 of unit cell:	Completed after 23 iterations at t[s]:   3491.64
	Linear fluid (dielectric constant: 78.4, screening length: 8.12261 Bohr) occupying 0.546846 of unit cell:	Completed after 23 iterations at t[s]:   3503.89
	FillingsUpdate:  mu: -0.196493290  nElectrons: 176.000000  magneticMoment: [ Abs: 0.00002  Tot: +0.00002 ]
	SubspaceRotationAdjust: set factor to 0.0556
ElecMinimize: Iter:   1  F: -978.655781054281420  |grad|_K:  4.959e-07  alpha:  1.807e-01  linmin:  8.888e-05  t[s]:   3520.94
	Linear fluid (dielectric constant: 78.4, screening length: 8.12261 Bohr) occupying 0.546937 of unit cell:	Completed after 14 iterations at t[s]:   3535.10
ElecMinimize: 	Predicted alpha/alphaT>3.000000, increasing alphaT to 5.422217e-01.
	Linear fluid (dielectric constant: 78.4, screening length: 8.12261 Bohr) occupying 0.547119 of unit cell:	Completed after 15 iterations at t[s]:   3546.80
	Linear fluid (dielectric constant: 78.4, screening length: 8.12261 Bohr) occupying 0.547136 of unit cell:	Completed after 8 iterations at t[s]:   3558.34
	FillingsUpdate:  mu: -0.194626795  nElectrons: 176.000000  magneticMoment: [ Abs: 0.00002  Tot: +0.00002 ]
	SubspaceRotationAdjust: set factor to 0.0579
ElecMinimize: Iter:   2  F: -978.655820085938785  |grad|_K:  3.965e-07  alpha:  5.759e-01  linmin: -5.925e-07  t[s]:   3575.07
	Linear fluid (dielectric constant: 78.4, screening length: 8.12261 Bohr) occupying 0.547527 of unit cell:	Completed after 13 iterations at t[s]:   3589.20
	Linear fluid (dielectric constant: 78.4, screening length: 8.12261 Bohr) occupying 0.547569 of unit cell:	Completed after 7 iterations at t[s]:   3600.35
	FillingsUpdate:  mu: -0.194968346  nElectrons: 176.000000  magneticMoment: [ Abs: 0.00002  Tot: +0.00002 ]
	SubspaceRotationAdjust: set factor to 0.061
ElecMinimize: Iter:   3  F: -978.655847848533654  |grad|_K:  3.669e-07  alpha:  6.385e-01  linmin: -7.498e-07  t[s]:   3617.45
	Linear fluid (dielectric constant: 78.4, screening length: 8.12261 Bohr) occupying 0.548044 of unit cell:	Completed after 17 iterations at t[s]:   3631.69
	Linear fluid (dielectric constant: 78.4, screening length: 8.12261 Bohr) occupying 0.547858 of unit cell:	Completed after 14 iterations at t[s]:   3643.29
	FillingsUpdate:  mu: -0.192333602  nElectrons: 176.000000  magneticMoment: [ Abs: 0.00002  Tot: +0.00002 ]
	SubspaceRotationAdjust: set factor to 0.051
ElecMinimize: Iter:   4  F: -978.655862244483274  |grad|_K:  2.942e-07  alpha:  3.870e-01  linmin: -1.065e-07  t[s]:   3660.29
	Linear fluid (dielectric constant: 78.4, screening length: 8.12261 Bohr) occupying 0.548059 of unit cell:	Completed after 13 iterations at t[s]:   3674.40
	Linear fluid (dielectric constant: 78.4, screening length: 8.12261 Bohr) occupying 0.548043 of unit cell:	Completed after 4 iterations at t[s]:   3685.38
	FillingsUpdate:  mu: -0.193474689  nElectrons: 176.000000  magneticMoment: [ Abs: 0.00002  Tot: +0.00002 ]
	SubspaceRotationAdjust: set factor to 0.0478
ElecMinimize: Iter:   5  F: -978.655870750219606  |grad|_K:  2.135e-07  alpha:  3.555e-01  linmin: -4.031e-08  t[s]:   3702.65
	Linear fluid (dielectric constant: 78.4, screening length: 8.12261 Bohr) occupying 0.548135 of unit cell:	Completed after 11 iterations at t[s]:   3716.52
	Linear fluid (dielectric constant: 78.4, screening length: 8.12261 Bohr) occupying 0.548208 of unit cell:	Completed after 10 iterations at t[s]:   3727.88
	FillingsUpdate:  mu: -0.192635890  nElectrons: 176.000000  magneticMoment: [ Abs: 0.00002  Tot: +0.00002 ]
	SubspaceRotationAdjust: set factor to 0.0549
ElecMinimize: Iter:   6  F: -978.655878782995842  |grad|_K:  1.901e-07  alpha:  6.359e-01  linmin: -7.046e-07  t[s]:   3744.88
	Linear fluid (dielectric constant: 78.4, screening length: 8.12261 Bohr) occupying 0.548308 of unit cell:	Completed after 14 iterations at t[s]:   3758.89
	Linear fluid (dielectric constant: 78.4, screening length: 8.12261 Bohr) occupying 0.548309 of unit cell:	Completed after 0 iterations at t[s]:   3769.58
	FillingsUpdate:  mu: -0.192146179  nElectrons: 176.000000  magneticMoment: [ Abs: 0.00002  Tot: +0.00002 ]
	SubspaceRotationAdjust: set factor to 0.0522
ElecMinimize: Iter:   7  F: -978.655885238533642  |grad|_K:  2.316e-07  alpha:  6.432e-01  linmin: -7.155e-07  t[s]:   3786.80
	Linear fluid (dielectric constant: 78.4, screening length: 8.12261 Bohr) occupying 0.548429 of unit cell:	Completed after 12 iterations at t[s]:   3800.70
	Linear fluid (dielectric constant: 78.4, screening length: 8.12261 Bohr) occupying 0.548369 of unit cell:	Completed after 11 iterations at t[s]:   3812.32
	FillingsUpdate:  mu: -0.192243749  nElectrons: 176.000000  magneticMoment: [ Abs: 0.00002  Tot: +0.00002 ]
	SubspaceRotationAdjust: set factor to 0.039
ElecMinimize: Iter:   8  F: -978.655889979329913  |grad|_K:  1.991e-07  alpha:  3.165e-01  linmin:  4.809e-08  t[s]:   3829.42
	Linear fluid (dielectric constant: 78.4, screening length: 8.12261 Bohr) occupying 0.548404 of unit cell:	Completed after 10 iterations at t[s]:   3843.22
	Linear fluid (dielectric constant: 78.4, screening length: 8.12261 Bohr) occupying 0.548429 of unit cell:	Completed after 10 iterations at t[s]:   3854.60
	FillingsUpdate:  mu: -0.192037511  nElectrons: 176.000000  magneticMoment: [ Abs: 0.00002  Tot: +0.00002 ]
	SubspaceRotationAdjust: set factor to 0.039
ElecMinimize: Iter:   9  F: -978.655896125970116  |grad|_K:  1.651e-07  alpha:  5.604e-01  linmin: -1.814e-07  t[s]:   3871.48
	Linear fluid (dielectric constant: 78.4, screening length: 8.12261 Bohr) occupying 0.548463 of unit cell:	Completed after 11 iterations at t[s]:   3885.39
	Linear fluid (dielectric constant: 78.4, screening length: 8.12261 Bohr) occupying 0.548468 of unit cell:	Completed after 6 iterations at t[s]:   3896.54
	FillingsUpdate:  mu: -0.191164173  nElectrons: 176.000000  magneticMoment: [ Abs: 0.00002  Tot: +0.00002 ]
	SubspaceRotationAdjust: set factor to 0.0388
ElecMinimize: Iter:  10  F: -978.655901036520618  |grad|_K:  1.478e-07  alpha:  6.499e-01  linmin: -3.320e-07  t[s]:   3913.66
	Linear fluid (dielectric constant: 78.4, screening length: 8.12261 Bohr) occupying 0.548497 of unit cell:	Completed after 13 iterations at t[s]:   3927.73
	Linear fluid (dielectric constant: 78.4, screening length: 8.12261 Bohr) occupying 0.548491 of unit cell:	Completed after 7 iterations at t[s]:   3938.86
	FillingsUpdate:  mu: -0.191911953  nElectrons: 176.000000  magneticMoment: [ Abs: 0.00002  Tot: +0.00001 ]
	SubspaceRotationAdjust: set factor to 0.0336
ElecMinimize: Iter:  11  F: -978.655904133181480  |grad|_K:  1.267e-07  alpha:  5.111e-01  linmin:  1.956e-08  t[s]:   3955.94
	Linear fluid (dielectric constant: 78.4, screening length: 8.12261 Bohr) occupying 0.548512 of unit cell:	Completed after 11 iterations at t[s]:   3969.86
	Linear fluid (dielectric constant: 78.4, screening length: 8.12261 Bohr) occupying 0.548511 of unit cell:	Completed after 2 iterations at t[s]:   3980.70
	FillingsUpdate:  mu: -0.191220809  nElectrons: 176.000000  magneticMoment: [ Abs: 0.00002  Tot: +0.00001 ]
	SubspaceRotationAdjust: set factor to 0.0308
ElecMinimize: Iter:  12  F: -978.655906298762488  |grad|_K:  9.492e-08  alpha:  4.886e-01  linmin: -8.592e-08  t[s]:   3997.84
	Linear fluid (dielectric constant: 78.4, screening length: 8.12261 Bohr) occupying 0.548525 of unit cell:	Completed after 8 iterations at t[s]:   4011.63
	Linear fluid (dielectric constant: 78.4, screening length: 8.12261 Bohr) occupying 0.548526 of unit cell:	Completed after 2 iterations at t[s]:   4022.57
	FillingsUpdate:  mu: -0.191215303  nElectrons: 176.000000  magneticMoment: [ Abs: 0.00002  Tot: +0.00001 ]
	SubspaceRotationAdjust: set factor to 0.0309
ElecMinimize: Iter:  13  F: -978.655907643346040  |grad|_K:  7.412e-08  alpha:  5.392e-01  linmin: -6.481e-07  t[s]:   4039.85
	Linear fluid (dielectric constant: 78.4, screening length: 8.12261 Bohr) occupying 0.548538 of unit cell:	Completed after 10 iterations at t[s]:   4053.77
	Linear fluid (dielectric constant: 78.4, screening length: 8.12261 Bohr) occupying 0.548537 of unit cell:	Completed after 2 iterations at t[s]:   4064.63
	FillingsUpdate:  mu: -0.191396139  nElectrons: 176.000000  magneticMoment: [ Abs: 0.00002  Tot: +0.00001 ]
	SubspaceRotationAdjust: set factor to 0.0281
ElecMinimize: Iter:  14  F: -978.655908408446749  |grad|_K:  5.958e-08  alpha:  5.007e-01  linmin:  1.139e-06  t[s]:   4081.65
	Linear fluid (dielectric constant: 78.4, screening length: 8.12261 Bohr) occupying 0.548547 of unit cell:	Completed after 10 iterations at t[s]:   4095.54
	Linear fluid (dielectric constant: 78.4, screening length: 8.12261 Bohr) occupying 0.548547 of unit cell:	Completed after 0 iterations at t[s]:   4106.20
	FillingsUpdate:  mu: -0.191180595  nElectrons: 176.000000  magneticMoment: [ Abs: 0.00002  Tot: +0.00001 ]
	SubspaceRotationAdjust: set factor to 0.0279
ElecMinimize: Iter:  15  F: -978.655908897511040  |grad|_K:  4.569e-08  alpha:  5.028e-01  linmin: -6.871e-07  t[s]:   4123.43
	Linear fluid (dielectric constant: 78.4, screening length: 8.12261 Bohr) occupying 0.548554 of unit cell:	Completed after 2 iterations at t[s]:   4136.74
	Linear fluid (dielectric constant: 78.4, screening length: 8.12261 Bohr) occupying 0.548556 of unit cell:	Completed after 2 iterations at t[s]:   4147.57
	FillingsUpdate:  mu: -0.191229492  nElectrons: 176.000000  magneticMoment: [ Abs: 0.00002  Tot: +0.00001 ]
	SubspaceRotationAdjust: set factor to 0.0324
ElecMinimize: Iter:  16  F: -978.655909251285607  |grad|_K:  3.838e-08  alpha:  6.113e-01  linmin: -4.467e-09  t[s]:   4164.51
	Linear fluid (dielectric constant: 78.4, screening length: 8.12261 Bohr) occupying 0.548564 of unit cell:	Completed after 6 iterations at t[s]:   4178.08
	Linear fluid (dielectric constant: 78.4, screening length: 8.12261 Bohr) occupying 0.548565 of unit cell:	Completed after 0 iterations at t[s]:   4188.78
	FillingsUpdate:  mu: -0.191299672  nElectrons: 176.000000  magneticMoment: [ Abs: 0.00002  Tot: +0.00001 ]
	SubspaceRotationAdjust: set factor to 0.0357
ElecMinimize: Iter:  17  F: -978.655909505713794  |grad|_K:  3.626e-08  alpha:  6.246e-01  linmin: -9.732e-07  t[s]:   4205.90
	Linear fluid (dielectric constant: 78.4, screening length: 8.12261 Bohr) occupying 0.548574 of unit cell:	Completed after 6 iterations at t[s]:   4219.64
	Linear fluid (dielectric constant: 78.4, screening length: 8.12261 Bohr) occupying 0.548573 of unit cell:	Completed after 2 iterations at t[s]:   4230.56
	FillingsUpdate:  mu: -0.191209676  nElectrons: 176.000000  magneticMoment: [ Abs: 0.00001  Tot: +0.00001 ]
	SubspaceRotationAdjust: set factor to 0.035
ElecMinimize: Iter:  18  F: -978.655909716429392  |grad|_K:  3.583e-08  alpha:  5.762e-01  linmin:  8.550e-07  t[s]:   4247.70
	Linear fluid (dielectric constant: 78.4, screening length: 8.12261 Bohr) occupying 0.548582 of unit cell:	Completed after 7 iterations at t[s]:   4261.34
	Linear fluid (dielectric constant: 78.4, screening length: 8.12261 Bohr) occupying 0.548581 of unit cell:	Completed after 0 iterations at t[s]:   4272.05
	FillingsUpdate:  mu: -0.191294220  nElectrons: 176.000000  magneticMoment: [ Abs: 0.00001  Tot: +0.00001 ]
	SubspaceRotationAdjust: set factor to 0.0332
ElecMinimize: Iter:  19  F: -978.655909909908246  |grad|_K:  3.362e-08  alpha:  5.495e-01  linmin:  9.539e-07  t[s]:   4289.11
	Linear fluid (dielectric constant: 78.4, screening length: 8.12261 Bohr) occupying 0.548589 of unit cell:	Completed after 6 iterations at t[s]:   4302.61
	Linear fluid (dielectric constant: 78.4, screening length: 8.12261 Bohr) occupying 0.548590 of unit cell:	Completed after 0 iterations at t[s]:   4313.29
	FillingsUpdate:  mu: -0.191300400  nElectrons: 176.000000  magneticMoment: [ Abs: 0.00001  Tot: +0.00001 ]
	SubspaceRotationAdjust: set factor to 0.0357
ElecMinimize: Iter:  20  F: -978.655910101777636  |grad|_K:  2.926e-08  alpha:  6.188e-01  linmin: -1.630e-06  t[s]:   4330.35
	Linear fluid (dielectric constant: 78.4, screening length: 8.12261 Bohr) occupying 0.548595 of unit cell:	Completed after 2 iterations at t[s]:   4343.62
	Linear fluid (dielectric constant: 78.4, screening length: 8.12261 Bohr) occupying 0.548596 of unit cell:	Completed after 0 iterations at t[s]:   4354.31
	FillingsUpdate:  mu: -0.191299932  nElectrons: 176.000000  magneticMoment: [ Abs: 0.00001  Tot: +0.00001 ]
	SubspaceRotationAdjust: set factor to 0.0392
ElecMinimize: Iter:  21  F: -978.655910266483033  |grad|_K:  2.764e-08  alpha:  6.819e-01  linmin: -9.770e-07  t[s]:   4371.41
	Linear fluid (dielectric constant: 78.4, screening length: 8.12261 Bohr) occupying 0.548602 of unit cell:	Completed after 7 iterations at t[s]:   4384.97
	Linear fluid (dielectric constant: 78.4, screening length: 8.12261 Bohr) occupying 0.548601 of unit cell:	Completed after 2 iterations at t[s]:   4395.93
	FillingsUpdate:  mu: -0.191338941  nElectrons: 176.000000  magneticMoment: [ Abs: 0.00001  Tot: +0.00001 ]
	SubspaceRotationAdjust: set factor to 0.0389
ElecMinimize: Iter:  22  F: -978.655910390723420  |grad|_K:  2.608e-08  alpha:  5.797e-01  linmin:  8.271e-07  t[s]:   4413.11
	Linear fluid (dielectric constant: 78.4, screening length: 8.12261 Bohr) occupying 0.548605 of unit cell:	Completed after 7 iterations at t[s]:   4426.68
	Linear fluid (dielectric constant: 78.4, screening length: 8.12261 Bohr) occupying 0.548604 of unit cell:	Completed after 2 iterations at t[s]:   4437.54
	FillingsUpdate:  mu: -0.191342947  nElectrons: 176.000000  magneticMoment: [ Abs: 0.00001  Tot: +0.00001 ]
	SubspaceRotationAdjust: set factor to 0.0325
ElecMinimize: Iter:  23  F: -978.655910474094412  |grad|_K:  2.414e-08  alpha:  4.486e-01  linmin:  1.232e-06  t[s]:   4454.71
	Linear fluid (dielectric constant: 78.4, screening length: 8.12261 Bohr) occupying 0.548606 of unit cell:	Completed after 5 iterations at t[s]:   4469.40
	Linear fluid (dielectric constant: 78.4, screening length: 8.12261 Bohr) occupying 0.548606 of unit cell:	Completed after 0 iterations at t[s]:   4480.07
	FillingsUpdate:  mu: -0.191337787  nElectrons: 176.000000  magneticMoment: [ Abs: 0.00001  Tot: +0.00001 ]
	SubspaceRotationAdjust: set factor to 0.0292
ElecMinimize: Iter:  24  F: -978.655910543612663  |grad|_K:  1.819e-08  alpha:  4.388e-01  linmin: -1.387e-06  t[s]:   4497.10
ElecMinimize: Converged (|Delta F|<1.000000e-07 for 2 iters).
Setting wave functions to eigenvectors of Hamiltonian
Converging empty states (this may take a while): |deigs|: 1.305e-04
Single-point solvation energy estimate, DeltaF = -0.002297463323998

Computing DFT-D3 correction:
# coordination-number Pt 5.568 5.568 7.955 9.523 9.556 9.561 9.561 9.561 9.556 9.523 7.955
# diagonal-C6 Pt 336.87 336.87 336.87 336.87 336.87 336.87 336.87 336.87 336.87 336.87 336.87
EvdW_6 =   -0.096460
EvdW_8 =   -0.156125

# Ionic positions in cartesian coordinates:
ion Pt   5.231996000000000   0.000000000000000  23.424781000000003 1
ion Pt  -0.000002000000000   4.732522000000001   1.115501000000000 1
ion Pt   2.616001000000000   0.788752000000000   3.346429000000000 1
ion Pt   2.615999000000000   5.521274000000000   5.577357000000001 1
ion Pt   0.000000000000000   1.577504000000000   7.808285000000001 1
ion Pt  -0.000002000000000   6.310026000000000  10.039213000000000 1
ion Pt   2.616001000000000   2.366257000000000  12.270141000000002 1
ion Pt   2.615999000000000   7.098778000000001  14.501068999999999 1
ion Pt   0.000000000000000   3.155009000000001  16.731997000000000 1
ion Pt  -0.000002000000000   7.887530000000001  18.962924999999998 1
ion Pt   2.616001000000000   3.943761000000000  21.193853000000001 1

# Forces in Cartesian coordinates:
force Pt   0.000095780187706  -0.000302876020493  -0.012320558857660 1
force Pt  -0.000098019635885   0.000292138992302   0.012224924222459 1
force Pt  -0.000020704650530  -0.004177546536398  -0.016795494024219 1
force Pt   0.000040961126923   0.002481540507993  -0.001441678970290 1
force Pt   0.000012374901006   0.000880801934856   0.005995278516588 1
force Pt  -0.000074207971615  -0.000076975200826   0.000276886959221 1
force Pt   0.000003616722682  -0.000001871800728   0.000109156393250 1
force Pt   0.000067644222898   0.000075061978433  -0.000061975875050 1
force Pt  -0.000007737354471  -0.000866828219048  -0.005817317454211 1
force Pt  -0.000045739941656  -0.002467706618623   0.001471188042509 1
force Pt   0.000031371351384   0.004180679779882   0.016664346629797 1

# Energy components:
   A_diel =       -0.0024224703157481
   Eewald =    10879.5743182648184302
       EH =    11766.9328269125999213
     Eloc =   -23794.9208608252120030
      Enl =      -11.6342006146100161
     EvdW =       -0.2525847911054686
      Exc =     -312.9151449789652020
 Exc_core =      180.3051966966503983
       KE =      314.2591303621196062
-------------------------------------
     Etot =     -978.6537414440181237
       TS =        0.0021690995945004
-------------------------------------
        F =     -978.6559105436126629


Dumping 'jdft.fillings' ... done
Dumping 'jdft.wfns' ... done
Dumping 'jdft.fluidState' ... done
Dumping 'jdft.ionpos' ... done
Dumping 'jdft.lattice' ... done
Dumping 'jdft.eigenvals' ... done
Dumping 'jdft.eigStats' ... 
	eMin: -2.141246 at state 0 ( [ +0.000000 +0.000000 +0.000000 ] spin 1 )
	HOMO: -0.191352 at state 130 ( [ +0.384615 -0.428571 +0.000000 ] spin -1 )
	mu  : -0.191338
	LUMO: -0.191151 at state 32 ( [ +0.307692 -0.428571 +0.000000 ] spin 1 )
	eMax: +0.123324 at state 151 ( [ -0.384615 -0.428571 +0.000000 ] spin -1 )
	HOMO-LUMO gap: +0.000202
	Optical gap  : +0.000713 at state 101 ( [ +0.076923 +0.428571 +0.000000 ] spin -1 )
Dumping 'jdft.Ecomponents' ... done
IonicMinimize: Iter:   0  F: -978.655910543612663  |grad|_K:  5.461e-03  t[s]:   4598.18

#--- Lowdin population analysis ---
# oxidation-state Pt +0.065 +0.062 -0.028 -0.009 +0.009 +0.009 +0.010 +0.011 +0.012 -0.005 -0.025
# magnetic-moments Pt +0.000 +0.000 +0.000 +0.000 +0.000 +0.000 +0.000 +0.000 +0.000 +0.000 +0.000


Computing DFT-D3 correction:
# coordination-number Pt 5.601 5.601 7.942 9.519 9.537 9.564 9.573 9.564 9.538 9.520 7.942
# diagonal-C6 Pt 336.87 336.87 336.87 336.87 336.87 336.87 336.87 336.87 336.87 336.87 336.87
EvdW_6 =   -0.096455
EvdW_8 =   -0.156105

-------- Electronic minimization -----------
	Linear fluid (dielectric constant: 78.4, screening length: 8.12261 Bohr) occupying 0.548914 of unit cell:	Completed after 15 iterations at t[s]:   4614.25
	FillingsUpdate:  mu: -0.192010911  nElectrons: 176.000000  magneticMoment: [ Abs: 0.00001  Tot: +0.00001 ]
ElecMinimize: Iter:   0  F: -978.656614499509374  |grad|_K:  9.966e-07  alpha:  1.000e+00
	Linear fluid (dielectric constant: 78.4, screening length: 8.12261 Bohr) occupying 0.548936 of unit cell:	Completed after 20 iterations at t[s]:   4648.18
	Linear fluid (dielectric constant: 78.4, screening length: 8.12261 Bohr) occupying 0.548915 of unit cell:	Completed after 19 iterations at t[s]:   4660.22
	FillingsUpdate:  mu: -0.191252516  nElectrons: 176.000000  magneticMoment: [ Abs: 0.00001  Tot: +0.00001 ]
	SubspaceRotationAdjust: set factor to 0.0193
ElecMinimize: Iter:   1  F: -978.656683618452917  |grad|_K:  4.111e-07  alpha:  2.518e-01  linmin:  2.124e-04  t[s]:   4677.26
	Linear fluid (dielectric constant: 78.4, screening length: 8.12261 Bohr) occupying 0.548916 of unit cell:	Completed after 10 iterations at t[s]:   4691.06
	Linear fluid (dielectric constant: 78.4, screening length: 8.12261 Bohr) occupying 0.548916 of unit cell:	Completed after 9 iterations at t[s]:   4702.42
	FillingsUpdate:  mu: -0.191243533  nElectrons: 176.000000  magneticMoment: [ Abs: 0.00001  Tot: +0.00001 ]
	SubspaceRotationAdjust: set factor to 0.0224
ElecMinimize: Iter:   2  F: -978.656703526368233  |grad|_K:  2.290e-07  alpha:  4.265e-01  linmin:  4.739e-04  t[s]:   4719.36
	Linear fluid (dielectric constant: 78.4, screening length: 8.12261 Bohr) occupying 0.548919 of unit cell:	Completed after 6 iterations at t[s]:   4732.94
	Linear fluid (dielectric constant: 78.4, screening length: 8.12261 Bohr) occupying 0.548920 of unit cell:	Completed after 4 iterations at t[s]:   4743.92
	FillingsUpdate:  mu: -0.191249588  nElectrons: 176.000000  magneticMoment: [ Abs: 0.00001  Tot: +0.00001 ]
	SubspaceRotationAdjust: set factor to 0.0283
ElecMinimize: Iter:   3  F: -978.656713056684112  |grad|_K:  1.993e-07  alpha:  6.581e-01  linmin:  2.972e-05  t[s]:   4761.64
	Linear fluid (dielectric constant: 78.4, screening length: 8.12261 Bohr) occupying 0.548927 of unit cell:	Completed after 10 iterations at t[s]:   4775.50
	Linear fluid (dielectric constant: 78.4, screening length: 8.12261 Bohr) occupying 0.548928 of unit cell:	Completed after 3 iterations at t[s]:   4786.41
	FillingsUpdate:  mu: -0.191035502  nElectrons: 176.000000  magneticMoment: [ Abs: 0.00001  Tot: +0.00001 ]
	SubspaceRotationAdjust: set factor to 0.0342
ElecMinimize: Iter:   4  F: -978.656721450823397  |grad|_K:  2.174e-07  alpha:  7.641e-01  linmin: -1.793e-04  t[s]:   4803.17
	Linear fluid (dielectric constant: 78.4, screening length: 8.12261 Bohr) occupying 0.548940 of unit cell:	Completed after 10 iterations at t[s]:   4816.98
	Linear fluid (dielectric constant: 78.4, screening length: 8.12261 Bohr) occupying 0.548942 of unit cell:	Completed after 6 iterations at t[s]:   4828.07
	FillingsUpdate:  mu: -0.191047745  nElectrons: 176.000000  magneticMoment: [ Abs: 0.00001  Tot: +0.00001 ]
	SubspaceRotationAdjust: set factor to 0.0388
ElecMinimize: Iter:   5  F: -978.656732940270899  |grad|_K:  2.618e-07  alpha:  8.773e-01  linmin:  4.084e-05  t[s]:   4845.10
	Linear fluid (dielectric constant: 78.4, screening length: 8.12261 Bohr) occupying 0.548962 of unit cell:	Completed after 10 iterations at t[s]:   4858.98
	Linear fluid (dielectric constant: 78.4, screening length: 8.12261 Bohr) occupying 0.548963 of unit cell:	Completed after 2 iterations at t[s]:   4869.95
	FillingsUpdate:  mu: -0.190992802  nElectrons: 176.000000  magneticMoment: [ Abs: 0.00001  Tot: +0.00001 ]
	SubspaceRotationAdjust: set factor to 0.0392
ElecMinimize: Iter:   6  F: -978.656750464729157  |grad|_K:  3.470e-07  alpha:  9.257e-01  linmin: -3.391e-05  t[s]:   4886.91
	Linear fluid (dielectric constant: 78.4, screening length: 8.12261 Bohr) occupying 0.548984 of unit cell:	Completed after 12 iterations at t[s]:   4900.82
	Linear fluid (dielectric constant: 78.4, screening length: 8.12261 Bohr) occupying 0.548976 of unit cell:	Completed after 10 iterations at t[s]:   4912.24
	FillingsUpdate:  mu: -0.190904496  nElectrons: 176.000000  magneticMoment: [ Abs: 0.00001  Tot: +0.00001 ]
	SubspaceRotationAdjust: set factor to 0.0347
ElecMinimize: Iter:   7  F: -978.656769018395948  |grad|_K:  3.679e-07  alpha:  5.558e-01  linmin:  1.072e-05  t[s]:   4929.45
	Linear fluid (dielectric constant: 78.4, screening length: 8.12261 Bohr) occupying 0.548971 of unit cell:	Completed after 10 iterations at t[s]:   4943.32
	Linear fluid (dielectric constant: 78.4, screening length: 8.12261 Bohr) occupying 0.548971 of unit cell:	Completed after 7 iterations at t[s]:   4954.50
	FillingsUpdate:  mu: -0.191252406  nElectrons: 176.000000  magneticMoment: [ Abs: 0.00001  Tot: +0.00001 ]
	SubspaceRotationAdjust: set factor to 0.0308
ElecMinimize: Iter:   8  F: -978.656792024514061  |grad|_K:  3.480e-07  alpha:  6.151e-01  linmin: -1.727e-06  t[s]:   4971.75
	Linear fluid (dielectric constant: 78.4, screening length: 8.12261 Bohr) occupying 0.548942 of unit cell:	Completed after 10 iterations at t[s]:   4985.54
	Linear fluid (dielectric constant: 78.4, screening length: 8.12261 Bohr) occupying 0.548942 of unit cell:	Completed after 0 iterations at t[s]:   4996.15
	FillingsUpdate:  mu: -0.191468467  nElectrons: 176.000000  magneticMoment: [ Abs: 0.00001  Tot: +0.00001 ]
	SubspaceRotationAdjust: set factor to 0.0294
ElecMinimize: Iter:   9  F: -978.656812298800105  |grad|_K:  2.691e-07  alpha:  6.054e-01  linmin:  2.493e-05  t[s]:   5013.21
	Linear fluid (dielectric constant: 78.4, screening length: 8.12261 Bohr) occupying 0.548905 of unit cell:	Completed after 9 iterations at t[s]:   5026.97
	Linear fluid (dielectric constant: 78.4, screening length: 8.12261 Bohr) occupying 0.548906 of unit cell:	Completed after 0 iterations at t[s]:   5037.73
	FillingsUpdate:  mu: -0.191472089  nElectrons: 176.000000  magneticMoment: [ Abs: 0.00001  Tot: +0.00001 ]
	SubspaceRotationAdjust: set factor to 0.0296
ElecMinimize: Iter:  10  F: -978.656824088885173  |grad|_K:  2.005e-07  alpha:  5.895e-01  linmin:  4.441e-07  t[s]:   5055.55
	Linear fluid (dielectric constant: 78.4, screening length: 8.12261 Bohr) occupying 0.548877 of unit cell:	Completed after 8 iterations at t[s]:   5069.33
	Linear fluid (dielectric constant: 78.4, screening length: 8.12261 Bohr) occupying 0.548879 of unit cell:	Completed after 1 iterations at t[s]:   5080.14
	FillingsUpdate:  mu: -0.191630429  nElectrons: 176.000000  magneticMoment: [ Abs: 0.00001  Tot: +0.00001 ]
	SubspaceRotationAdjust: set factor to 0.0312
ElecMinimize: Iter:  11  F: -978.656830315444381  |grad|_K:  1.363e-07  alpha:  5.601e-01  linmin: -1.477e-05  t[s]:   5097.12
	Linear fluid (dielectric constant: 78.4, screening length: 8.12261 Bohr) occupying 0.548865 of unit cell:	Completed after 3 iterations at t[s]:   5110.47
	Linear fluid (dielectric constant: 78.4, screening length: 8.12261 Bohr) occupying 0.548866 of unit cell:	Completed after 0 iterations at t[s]:   5121.09
	FillingsUpdate:  mu: -0.191641691  nElectrons: 176.000000  magneticMoment: [ Abs: 0.00001  Tot: +0.00001 ]
	SubspaceRotationAdjust: set factor to 0.0339
ElecMinimize: Iter:  12  F: -978.656833037386605  |grad|_K:  9.357e-08  alpha:  5.301e-01  linmin:  5.993e-05  t[s]:   5137.98
	Linear fluid (dielectric constant: 78.4, screening length: 8.12261 Bohr) occupying 0.548861 of unit cell:	Completed after 6 iterations at t[s]:   5151.57
	Linear fluid (dielectric constant: 78.4, screening length: 8.12261 Bohr) occupying 0.548861 of unit cell:	Completed after 0 iterations at t[s]:   5162.33
	FillingsUpdate:  mu: -0.191669067  nElectrons: 176.000000  magneticMoment: [ Abs: 0.00001  Tot: +0.00001 ]
	SubspaceRotationAdjust: set factor to 0.0389
ElecMinimize: Iter:  13  F: -978.656834353392696  |grad|_K:  6.471e-08  alpha:  5.442e-01  linmin: -5.513e-05  t[s]:   5179.53
	Linear fluid (dielectric constant: 78.4, screening length: 8.12261 Bohr) occupying 0.548861 of unit cell:	Completed after 5 iterations at t[s]:   5192.96
	Linear fluid (dielectric constant: 78.4, screening length: 8.12261 Bohr) occupying 0.548861 of unit cell:	Completed after 0 iterations at t[s]:   5203.66
	FillingsUpdate:  mu: -0.191644414  nElectrons: 176.000000  magneticMoment: [ Abs: 0.00001  Tot: +0.00001 ]
	SubspaceRotationAdjust: set factor to 0.0458
ElecMinimize: Iter:  14  F: -978.656835027795978  |grad|_K:  5.014e-08  alpha:  5.820e-01  linmin: -3.006e-04  t[s]:   5220.65
	Linear fluid (dielectric constant: 78.4, screening length: 8.12261 Bohr) occupying 0.548863 of unit cell:	Completed after 7 iterations at t[s]:   5234.29
	Linear fluid (dielectric constant: 78.4, screening length: 8.12261 Bohr) occupying 0.548863 of unit cell:	Completed after 0 iterations at t[s]:   5244.95
	FillingsUpdate:  mu: -0.191704544  nElectrons: 176.000000  magneticMoment: [ Abs: 0.00001  Tot: +0.00001 ]
	SubspaceRotationAdjust: set factor to 0.0509
ElecMinimize: Iter:  15  F: -978.656835432750540  |grad|_K:  4.486e-08  alpha:  5.797e-01  linmin:  2.433e-04  t[s]:   5261.93
	Linear fluid (dielectric constant: 78.4, screening length: 8.12261 Bohr) occupying 0.548867 of unit cell:	Completed after 8 iterations at t[s]:   5275.65
	Linear fluid (dielectric constant: 78.4, screening length: 8.12261 Bohr) occupying 0.548866 of unit cell:	Completed after 2 iterations at t[s]:   5286.57
	FillingsUpdate:  mu: -0.191622496  nElectrons: 176.000000  magneticMoment: [ Abs: 0.00001  Tot: +0.00001 ]
	SubspaceRotationAdjust: set factor to 0.0475
ElecMinimize: Iter:  16  F: -978.656835692517575  |grad|_K:  4.428e-08  alpha:  4.693e-01  linmin:  3.195e-04  t[s]:   5303.73
	Linear fluid (dielectric constant: 78.4, screening length: 8.12261 Bohr) occupying 0.548870 of unit cell:	Completed after 8 iterations at t[s]:   5317.52
	Linear fluid (dielectric constant: 78.4, screening length: 8.12261 Bohr) occupying 0.548869 of unit cell:	Completed after 4 iterations at t[s]:   5328.73
	FillingsUpdate:  mu: -0.191644235  nElectrons: 176.000000  magneticMoment: [ Abs: 0.00001  Tot: +0.00001 ]
	SubspaceRotationAdjust: set factor to 0.0405
ElecMinimize: Iter:  17  F: -978.656835884877069  |grad|_K:  3.720e-08  alpha:  3.626e-01  linmin: -4.623e-05  t[s]:   5345.75
	Linear fluid (dielectric constant: 78.4, screening length: 8.12261 Bohr) occupying 0.548872 of unit cell:	Completed after 7 iterations at t[s]:   5359.76
	Linear fluid (dielectric constant: 78.4, screening length: 8.12261 Bohr) occupying 0.548873 of unit cell:	Completed after 2 iterations at t[s]:   5370.90
	FillingsUpdate:  mu: -0.191647238  nElectrons: 176.000000  magneticMoment: [ Abs: 0.00001  Tot: +0.00001 ]
	SubspaceRotationAdjust: set factor to 0.0412
ElecMinimize: Iter:  18  F: -978.656836080752214  |grad|_K:  3.112e-08  alpha:  5.056e-01  linmin: -4.339e-04  t[s]:   5388.22
	Linear fluid (dielectric constant: 78.4, screening length: 8.12261 Bohr) occupying 0.548877 of unit cell:	Completed after 4 iterations at t[s]:   5401.68
	Linear fluid (dielectric constant: 78.4, screening length: 8.12261 Bohr) occupying 0.548877 of unit cell:	Completed after 3 iterations at t[s]:   5412.65
	FillingsUpdate:  mu: -0.191563878  nElectrons: 176.000000  magneticMoment: [ Abs: 0.00001  Tot: +0.00001 ]
	SubspaceRotationAdjust: set factor to 0.0441
ElecMinimize: Iter:  19  F: -978.656836251661389  |grad|_K:  2.957e-08  alpha:  6.246e-01  linmin:  1.217e-04  t[s]:   5429.73
	Linear fluid (dielectric constant: 78.4, screening length: 8.12261 Bohr) occupying 0.548881 of unit cell:	Completed after 4 iterations at t[s]:   5443.21
	Linear fluid (dielectric constant: 78.4, screening length: 8.12261 Bohr) occupying 0.548881 of unit cell:	Completed after 0 iterations at t[s]:   5453.98
	FillingsUpdate:  mu: -0.191601540  nElectrons: 176.000000  magneticMoment: [ Abs: 0.00001  Tot: +0.00001 ]
	SubspaceRotationAdjust: set factor to 0.0482
ElecMinimize: Iter:  20  F: -978.656836402767453  |grad|_K:  2.646e-08  alpha:  6.313e-01  linmin: -3.578e-05  t[s]:   5471.15
	Linear fluid (dielectric constant: 78.4, screening length: 8.12261 Bohr) occupying 0.548885 of unit cell:	Completed after 6 iterations at t[s]:   5484.70
	Linear fluid (dielectric constant: 78.4, screening length: 8.12261 Bohr) occupying 0.548885 of unit cell:	Completed after 0 iterations at t[s]:   5495.34
	FillingsUpdate:  mu: -0.191512839  nElectrons: 176.000000  magneticMoment: [ Abs: 0.00001  Tot: +0.00001 ]
	SubspaceRotationAdjust: set factor to 0.0539
ElecMinimize: Iter:  21  F: -978.656836530349892  |grad|_K:  2.525e-08  alpha:  6.569e-01  linmin:  1.874e-05  t[s]:   5512.60
	Linear fluid (dielectric constant: 78.4, screening length: 8.12261 Bohr) occupying 0.548889 of unit cell:	Completed after 2 iterations at t[s]:   5525.88
	Linear fluid (dielectric constant: 78.4, screening length: 8.12261 Bohr) occupying 0.548889 of unit cell:	Completed after 0 iterations at t[s]:   5536.50
	FillingsUpdate:  mu: -0.191526825  nElectrons: 176.000000  magneticMoment: [ Abs: 0.00001  Tot: +0.00001 ]
	SubspaceRotationAdjust: set factor to 0.0617
ElecMinimize: Iter:  22  F: -978.656836643310385  |grad|_K:  2.294e-08  alpha:  6.420e-01  linmin: -3.807e-05  t[s]:   5553.46
	Linear fluid (dielectric constant: 78.4, screening length: 8.12261 Bohr) occupying 0.548893 of unit cell:	Completed after 6 iterations at t[s]:   5567.03
	Linear fluid (dielectric constant: 78.4, screening length: 8.12261 Bohr) occupying 0.548893 of unit cell:	Completed after 0 iterations at t[s]:   5577.71
	FillingsUpdate:  mu: -0.191430248  nElectrons: 176.000000  magneticMoment: [ Abs: 0.00001  Tot: +0.00001 ]
	SubspaceRotationAdjust: set factor to 0.0683
ElecMinimize: Iter:  23  F: -978.656836738765492  |grad|_K:  2.189e-08  alpha:  6.535e-01  linmin:  6.809e-06  t[s]:   5594.78
	Linear fluid (dielectric constant: 78.4, screening length: 8.12261 Bohr) occupying 0.548896 of unit cell:	Completed after 4 iterations at t[s]:   5608.35
	Linear fluid (dielectric constant: 78.4, screening length: 8.12261 Bohr) occupying 0.548896 of unit cell:	Completed after 2 iterations at t[s]:   5619.21
	FillingsUpdate:  mu: -0.191490118  nElectrons: 176.000000  magneticMoment: [ Abs: 0.00001  Tot: +0.00001 ]
	SubspaceRotationAdjust: set factor to 0.0652
ElecMinimize: Iter:  24  F: -978.656836805784565  |grad|_K:  2.148e-08  alpha:  5.108e-01  linmin:  6.879e-05  t[s]:   5636.32
ElecMinimize: Converged (|Delta F|<1.000000e-07 for 2 iters).
Setting wave functions to eigenvectors of Hamiltonian
Converging empty states (this may take a while): |deigs|: 4.639e-08

Computing DFT-D3 correction:
# coordination-number Pt 5.601 5.601 7.942 9.519 9.537 9.564 9.573 9.564 9.538 9.520 7.942
# diagonal-C6 Pt 336.87 336.87 336.87 336.87 336.87 336.87 336.87 336.87 336.87 336.87 336.87
EvdW_6 =   -0.096455
EvdW_8 =   -0.156105

# Ionic positions in cartesian coordinates:
ion Pt   5.232091294827847  -0.000304368638434  23.412432736089396 1
ion Pt  -0.000100504995743   4.732812646374362   1.127698219169515 1
ion Pt   2.615979809989612   0.784572960845661   3.329605800922836 1
ion Pt   2.616039475767066   5.523754047890052   5.575887615976766 1
ion Pt   0.000011889541147   1.578383309316916   7.814252573463643 1
ion Pt  -0.000076693331473   6.309947532181233  10.039462181906277 1
ion Pt   2.616004131362824   2.366253635581332  12.270222451340306 1
ion Pt   2.616066158863041   7.098851569360493  14.500979319072004 1
ion Pt  -0.000008222714329   3.154140679163012  16.726151977492844 1
ion Pt  -0.000048225301514   7.885060800763436  18.964368482989560 1
ion Pt   2.616031885991525   3.947940187161942  21.210489641576856 1

# Forces in Cartesian coordinates:
force Pt   0.000096073949702  -0.000068294045650  -0.010923201375429 1
force Pt  -0.000095667308544   0.000053119819535   0.010923995596511 1
force Pt  -0.000017976958487  -0.003746516195808  -0.015214297987507 1
force Pt   0.000028319416216   0.002267669126849  -0.001007818749657 1
force Pt   0.000006180757133   0.000843288416472   0.003905596038989 1
force Pt  -0.000060511359910  -0.000037246562178  -0.000241674169844 1
force Pt   0.000002304168316  -0.000006212828626  -0.000053592092956 1
force Pt   0.000055324277479   0.000029081734353   0.000148264543777 1
force Pt  -0.000001327079562  -0.000835077397060  -0.003950717800845 1
force Pt  -0.000032859404529  -0.002263819823746   0.001055381027256 1
force Pt   0.000029463624455   0.003766889597719   0.015288301689459 1

# Energy components:
   A_diel =       -0.0024374225565712
   Eewald =    10879.4557319195355376
       EH =    11766.7916412481154111
     Eloc =   -23794.6587089577042207
      Enl =      -11.6325197609096271
     EvdW =       -0.2525601053849172
      Exc =     -312.9153283087567843
 Exc_core =      180.3051968407700087
       KE =      314.2543207766889850
-------------------------------------
     Etot =     -978.6546637701999316
       TS =        0.0021730355845929
-------------------------------------
        F =     -978.6568368057845646


Dumping 'jdft.fillings' ... done
Dumping 'jdft.wfns' ... done
Dumping 'jdft.fluidState' ... done
Dumping 'jdft.ionpos' ... done
Dumping 'jdft.lattice' ... done
Dumping 'jdft.eigenvals' ... done
Dumping 'jdft.eigStats' ... 
	eMin: -2.141378 at state 0 ( [ +0.000000 +0.000000 +0.000000 ] spin 1 )
	HOMO: -0.191555 at state 130 ( [ +0.384615 -0.428571 +0.000000 ] spin -1 )
	mu  : -0.191490
	LUMO: -0.191431 at state 66 ( [ -0.307692 +0.428571 +0.000000 ] spin 1 )
	eMax: +0.123056 at state 129 ( [ +0.384615 +0.428571 +0.000000 ] spin -1 )
	HOMO-LUMO gap: +0.000124
	Optical gap  : +0.000729 at state 101 ( [ +0.076923 +0.428571 +0.000000 ] spin -1 )
Dumping 'jdft.Ecomponents' ... done
IonicMinimize: Iter:   1  F: -978.656836805784565  |grad|_K:  4.852e-03  alpha:  1.000e+00  linmin: -9.972e-01  t[s]:   5676.40

#--- Lowdin population analysis ---
# oxidation-state Pt +0.066 +0.066 -0.023 -0.007 +0.008 +0.008 +0.007 +0.008 +0.008 -0.007 -0.023
# magnetic-moments Pt +0.000 +0.000 +0.000 +0.000 +0.000 +0.000 +0.000 +0.000 +0.000 +0.000 +0.000


Computing DFT-D3 correction:
# coordination-number Pt 5.759 5.759 7.884 9.530 9.448 9.551 9.545 9.542 9.430 9.515 7.871
# diagonal-C6 Pt 336.87 336.87 336.87 336.87 336.87 336.87 336.87 336.87 336.87 336.87 336.87
EvdW_6 =   -0.096346
EvdW_8 =   -0.155922

-------- Electronic minimization -----------
	Linear fluid (dielectric constant: 78.4, screening length: 8.12261 Bohr) occupying 0.548957 of unit cell:	Completed after 26 iterations at t[s]:   5691.44
	FillingsUpdate:  mu: -0.039819719  nElectrons: 176.000000  magneticMoment: [ Abs: 0.00001  Tot: +0.00001 ]
ElecMinimize: Iter:   0  F: -977.635660592248541  |grad|_K:  1.043e-04  alpha:  1.000e+00
	Linear fluid (dielectric constant: 78.4, screening length: 8.12261 Bohr) occupying 0.550208 of unit cell:	Completed after 27 iterations at t[s]:   5726.01
	Linear fluid (dielectric constant: 78.4, screening length: 8.12261 Bohr) occupying 0.548745 of unit cell:	Completed after 26 iterations at t[s]:   5738.53
	FillingsUpdate:  mu: -0.312752896  nElectrons: 176.000000  magneticMoment: [ Abs: 0.00001  Tot: +0.00001 ]
	SubspaceRotationAdjust: set factor to 0.0465
ElecMinimize: Iter:   1  F: -978.469444533373576  |grad|_K:  4.935e-05  alpha:  2.887e-01  linmin:  2.174e-02  t[s]:   5755.64
	Linear fluid (dielectric constant: 78.4, screening length: 8.12261 Bohr) occupying 0.549499 of unit cell:	Completed after 23 iterations at t[s]:   5770.38
[...]
	Linear fluid (dielectric constant: 78.4, screening length: 8.12261 Bohr) occupying 0.553012 of unit cell:	Completed after 0 iterations at t[s]:  25711.51
	FillingsUpdate:  mu: -0.194259022  nElectrons: 176.000000  magneticMoment: [ Abs: 0.00000  Tot: +0.00000 ]
	SubspaceRotationAdjust: set factor to 0.0318
ElecMinimize: Iter:  12  F: -978.662831047201053  |grad|_K:  4.003e-08  alpha:  5.030e-01  linmin:  3.687e-05  t[s]:  25728.71
	Linear fluid (dielectric constant: 78.4, screening length: 8.12261 Bohr) occupying 0.553012 of unit cell:	Completed after 6 iterations at t[s]:  25742.46
	Linear fluid (dielectric constant: 78.4, screening length: 8.12261 Bohr) occupying 0.553012 of unit cell:	Completed after 0 iterations at t[s]:  25753.13
	FillingsUpdate:  mu: -0.194325814  nElectrons: 176.000000  magneticMoment: [ Abs: 0.00000  Tot: +0.00000 ]
	SubspaceRotationAdjust: set factor to 0.0316
ElecMinimize: Iter:  13  F: -978.662831264509805  |grad|_K:  3.135e-08  alpha:  4.907e-01  linmin: -4.940e-05  t[s]:  25769.87
	Linear fluid (dielectric constant: 78.4, screening length: 8.12261 Bohr) occupying 0.553011 of unit cell:	Completed after 6 iterations at t[s]:  25783.51
	Linear fluid (dielectric constant: 78.4, screening length: 8.12261 Bohr) occupying 0.553011 of unit cell:	Completed after 0 iterations at t[s]:  25794.27
	FillingsUpdate:  mu: -0.194263541  nElectrons: 176.000000  magneticMoment: [ Abs: 0.00000  Tot: +0.00000 ]
	SubspaceRotationAdjust: set factor to 0.0333
ElecMinimize: Iter:  14  F: -978.662831385101867  |grad|_K:  2.277e-08  alpha:  4.430e-01  linmin:  1.046e-03  t[s]:  25811.44
	Linear fluid (dielectric constant: 78.4, screening length: 8.12261 Bohr) occupying 0.553011 of unit cell:	Completed after 2 iterations at t[s]:  25824.85
	Linear fluid (dielectric constant: 78.4, screening length: 8.12261 Bohr) occupying 0.553011 of unit cell:	Completed after 0 iterations at t[s]:  25835.68
	FillingsUpdate:  mu: -0.194286375  nElectrons: 176.000000  magneticMoment: [ Abs: 0.00000  Tot: +0.00000 ]
	SubspaceRotationAdjust: set factor to 0.0418
ElecMinimize: Iter:  15  F: -978.662831457668290  |grad|_K:  1.755e-08  alpha:  5.085e-01  linmin: -3.017e-03  t[s]:  25852.80
	Linear fluid (dielectric constant: 78.4, screening length: 8.12261 Bohr) occupying 0.553011 of unit cell:	Completed after 2 iterations at t[s]:  25866.11
	Linear fluid (dielectric constant: 78.4, screening length: 8.12261 Bohr) occupying 0.553011 of unit cell:	Completed after 0 iterations at t[s]:  25876.80
	FillingsUpdate:  mu: -0.194306358  nElectrons: 176.000000  magneticMoment: [ Abs: 0.00000  Tot: +0.00000 ]
	SubspaceRotationAdjust: set factor to 0.0514
ElecMinimize: Iter:  16  F: -978.662831510752312  |grad|_K:  1.623e-08  alpha:  6.013e-01  linmin: -2.105e-03  t[s]:  25893.79
ElecMinimize: Converged (|Delta F|<1.000000e-07 for 2 iters).
Setting wave functions to eigenvectors of Hamiltonian
Converging empty states (this may take a while): |deigs|: 2.936e-08

Computing DFT-D3 correction:
# coordination-number Pt 5.959 5.953 7.671 9.490 9.261 9.601 9.523 9.603 9.265 9.497 7.676
# diagonal-C6 Pt 336.87 336.87 336.87 336.87 336.87 336.87 336.87 336.87 336.87 336.87 336.87
EvdW_6 =   -0.096340
EvdW_8 =   -0.156198

# Ionic positions in cartesian coordinates:
ion Pt   5.241276490187413   0.219604000978297  23.218361038375516 1
ion Pt  -0.009395121836600   4.512711834917198   1.317891700326977 1
ion Pt   2.606603828142286   0.560242696299620   3.077087012662450 1
ion Pt   2.610036166385122   5.507812611396248   5.637623701203883 1
ion Pt  -0.003381957827999   1.570778597653110   7.781531930554780 1
ion Pt  -0.002518792756324   6.316847147839988  10.052569155366523 1
ion Pt   2.616183260491999   2.367327610801115  12.271250465543654 1
ion Pt   2.618572759156391   7.093109114491117  14.489914914016678 1
ion Pt   0.003540278247181   3.161061352332784  16.759712260620791 1
ion Pt   0.005943406637499   7.899761485553650  18.903295215137586 1
ion Pt   2.625130683173038   4.172156547736878  21.462313606191174 1

# Forces in Cartesian coordinates:
force Pt   0.000021798925228   0.000077189647699   0.000390794692137 1
force Pt  -0.000021058001436  -0.000039352349300   0.000122255694698 1
force Pt   0.000001684620037  -0.000238018758939   0.000019683851168 1
force Pt  -0.000014719515698   0.000004646957474  -0.000458454240952 1
force Pt  -0.000006387268835  -0.000002438491744  -0.000341923497066 1
force Pt  -0.000001059798920   0.000030228207891  -0.000315047129285 1
force Pt  -0.000001494462645  -0.000052369104656  -0.000167816726456 1
force Pt   0.000005571708131  -0.000052932353643   0.000047446053818 1
force Pt   0.000005419559357   0.000042934002221   0.000291653526357 1
force Pt   0.000013005582715   0.000029558494078   0.000238915884638 1
force Pt  -0.000005387029332   0.000194079638393   0.000165286650632 1

# Energy components:
   A_diel =       -0.0026000852435505
   Eewald =    10881.2256090074679378
       EH =    11768.0240746613708325
     Eloc =   -23797.6460013685682497
      Enl =      -11.5881848033243298
     EvdW =       -0.2525379401041484
      Exc =     -312.9343459481503942
 Exc_core =      180.3052002948948314
       KE =      314.2080463673909776
-------------------------------------
     Etot =     -978.6607398142655256
       TS =        0.0020916964867849
-------------------------------------
        F =     -978.6628315107523122


Dumping 'jdft.fillings' ... done
Dumping 'jdft.wfns' ... done
Dumping 'jdft.fluidState' ... done
Dumping 'jdft.ionpos' ... done
Dumping 'jdft.lattice' ... done
Dumping 'jdft.eigenvals' ... done
Dumping 'jdft.eigStats' ... 
	eMin: -2.145204 at state 42 ( [ +0.461538 +0.000000 +0.000000 ] spin 1 )
	HOMO: -0.194362 at state 98 ( [ +0.076923 +0.000000 +0.000000 ] spin -1 )
	mu  : -0.194306
	LUMO: -0.194157 at state 78 ( [ -0.153846 +0.142857 +0.000000 ] spin 1 )
	eMax: +0.118698 at state 151 ( [ -0.384615 -0.428571 +0.000000 ] spin -1 )
	HOMO-LUMO gap: +0.000205
	Optical gap  : +0.001093 at state 49 ( [ -0.461538 +0.000000 +0.000000 ] spin 1 )
Dumping 'jdft.Ecomponents' ... done
IonicMinimize: Iter:  16  F: -978.662831510752312  |grad|_K:  1.658e-04  alpha:  2.871e-01  linmin:  5.992e-02  t[s]:  25933.87

#--- Lowdin population analysis ---
# oxidation-state Pt +0.062 +0.064 -0.016 -0.011 +0.010 +0.009 +0.011 +0.008 +0.008 -0.012 -0.016
# magnetic-moments Pt +0.000 +0.000 +0.000 +0.000 +0.000 +0.000 +0.000 +0.000 +0.000 +0.000 +0.000


Computing DFT-D3 correction:
# coordination-number Pt 5.957 5.954 7.677 9.494 9.261 9.597 9.519 9.598 9.264 9.497 7.680
# diagonal-C6 Pt 336.87 336.87 336.87 336.87 336.87 336.87 336.87 336.87 336.87 336.87 336.87
EvdW_6 =   -0.096331
EvdW_8 =   -0.156173

-------- Electronic minimization -----------
	Linear fluid (dielectric constant: 78.4, screening length: 8.12261 Bohr) occupying 0.552985 of unit cell:	Completed after 15 iterations at t[s]:  25949.97
	FillingsUpdate:  mu: -0.192781506  nElectrons: 176.000000  magneticMoment: [ Abs: 0.00000  Tot: +0.00000 ]
ElecMinimize: Iter:   0  F: -978.662818097786044  |grad|_K:  4.615e-07  alpha:  1.000e+00
	Linear fluid (dielectric constant: 78.4, screening length: 8.12261 Bohr) occupying 0.552984 of unit cell:	Completed after 20 iterations at t[s]:  25984.13
	Linear fluid (dielectric constant: 78.4, screening length: 8.12261 Bohr) occupying 0.552984 of unit cell:	Completed after 20 iterations at t[s]:  25996.22
	FillingsUpdate:  mu: -0.194233500  nElectrons: 176.000000  magneticMoment: [ Abs: 0.00000  Tot: +0.00000 ]
	SubspaceRotationAdjust: set factor to 0.037
ElecMinimize: Iter:   1  F: -978.662827425056093  |grad|_K:  1.232e-07  alpha:  1.583e-01  linmin: -2.375e-04  t[s]:  26013.17
	Linear fluid (dielectric constant: 78.4, screening length: 8.12261 Bohr) occupying 0.552984 of unit cell:	Completed after 7 iterations at t[s]:  26026.81
	Linear fluid (dielectric constant: 78.4, screening length: 8.12261 Bohr) occupying 0.552984 of unit cell:	Completed after 10 iterations at t[s]:  26038.42
	FillingsUpdate:  mu: -0.194489961  nElectrons: 176.000000  magneticMoment: [ Abs: 0.00000  Tot: +0.00000 ]
	SubspaceRotationAdjust: set factor to 0.0332
ElecMinimize: Iter:   2  F: -978.662828983747318  |grad|_K:  7.519e-08  alpha:  3.752e-01  linmin:  3.642e-03  t[s]:  26055.59
	Linear fluid (dielectric constant: 78.4, screening length: 8.12261 Bohr) occupying 0.552983 of unit cell:	Completed after 11 iterations at t[s]:  26070.29
	Linear fluid (dielectric constant: 78.4, screening length: 8.12261 Bohr) occupying 0.552983 of unit cell:	Completed after 2 iterations at t[s]:  26081.23
	FillingsUpdate:  mu: -0.194136971  nElectrons: 176.000000  magneticMoment: [ Abs: 0.00000  Tot: +0.00000 ]
	SubspaceRotationAdjust: set factor to 0.0337
ElecMinimize: Iter:   3  F: -978.662829532863725  |grad|_K:  4.726e-08  alpha:  3.566e-01  linmin:  1.628e-04  t[s]:  26098.29
	Linear fluid (dielectric constant: 78.4, screening length: 8.12261 Bohr) occupying 0.552983 of unit cell:	Completed after 2 iterations at t[s]:  26111.56
	Linear fluid (dielectric constant: 78.4, screening length: 8.12261 Bohr) occupying 0.552983 of unit cell:	Completed after 6 iterations at t[s]:  26122.81
	FillingsUpdate:  mu: -0.194310698  nElectrons: 176.000000  magneticMoment: [ Abs: 0.00000  Tot: +0.00000 ]
	SubspaceRotationAdjust: set factor to 0.0418
ElecMinimize: Iter:   4  F: -978.662829934941215  |grad|_K:  4.466e-08  alpha:  6.583e-01  linmin:  7.577e-04  t[s]:  26139.99
	Linear fluid (dielectric constant: 78.4, screening length: 8.12261 Bohr) occupying 0.552982 of unit cell:	Completed after 7 iterations at t[s]:  26153.56
	Linear fluid (dielectric constant: 78.4, screening length: 8.12261 Bohr) occupying 0.552981 of unit cell:	Completed after 0 iterations at t[s]:  26164.22
	FillingsUpdate:  mu: -0.194335944  nElectrons: 176.000000  magneticMoment: [ Abs: 0.00000  Tot: +0.00000 ]
	SubspaceRotationAdjust: set factor to 0.047
ElecMinimize: Iter:   5  F: -978.662830331474083  |grad|_K:  5.025e-08  alpha:  7.240e-01  linmin: -9.450e-04  t[s]:  26181.40
	Linear fluid (dielectric constant: 78.4, screening length: 8.12261 Bohr) occupying 0.552979 of unit cell:	Completed after 10 iterations at t[s]:  26195.28
	Linear fluid (dielectric constant: 78.4, screening length: 8.12261 Bohr) occupying 0.552979 of unit cell:	Completed after 2 iterations at t[s]:  26206.22
	FillingsUpdate:  mu: -0.194257444  nElectrons: 176.000000  magneticMoment: [ Abs: 0.00000  Tot: +0.00000 ]
	SubspaceRotationAdjust: set factor to 0.0451
ElecMinimize: Iter:   6  F: -978.662830785079450  |grad|_K:  5.857e-08  alpha:  6.369e-01  linmin:  5.500e-04  t[s]:  26223.23
	Linear fluid (dielectric constant: 78.4, screening length: 8.12261 Bohr) occupying 0.552976 of unit cell:	Completed after 10 iterations at t[s]:  26237.05
	Linear fluid (dielectric constant: 78.4, screening length: 8.12261 Bohr) occupying 0.552976 of unit cell:	Completed after 2 iterations at t[s]:  26247.92
	FillingsUpdate:  mu: -0.194374747  nElectrons: 176.000000  magneticMoment: [ Abs: 0.00000  Tot: +0.00000 ]
	SubspaceRotationAdjust: set factor to 0.0401
ElecMinimize: Iter:   7  F: -978.662831315067933  |grad|_K:  6.120e-08  alpha:  5.676e-01  linmin:  1.530e-05  t[s]:  26264.97
	Linear fluid (dielectric constant: 78.4, screening length: 8.12261 Bohr) occupying 0.552974 of unit cell:	Completed after 8 iterations at t[s]:  26278.75
	Linear fluid (dielectric constant: 78.4, screening length: 8.12261 Bohr) occupying 0.552974 of unit cell:	Completed after 0 iterations at t[s]:  26289.49
	FillingsUpdate:  mu: -0.194320777  nElectrons: 176.000000  magneticMoment: [ Abs: 0.00000  Tot: +0.00000 ]
	SubspaceRotationAdjust: set factor to 0.0381
ElecMinimize: Iter:   8  F: -978.662831893955172  |grad|_K:  5.203e-08  alpha:  5.595e-01  linmin: -7.450e-05  t[s]:  26306.47
	Linear fluid (dielectric constant: 78.4, screening length: 8.12261 Bohr) occupying 0.552973 of unit cell:	Completed after 7 iterations at t[s]:  26320.07
	Linear fluid (dielectric constant: 78.4, screening length: 8.12261 Bohr) occupying 0.552973 of unit cell:	Completed after 2 iterations at t[s]:  26330.97
	FillingsUpdate:  mu: -0.194311640  nElectrons: 176.000000  magneticMoment: [ Abs: 0.00000  Tot: +0.00000 ]
	SubspaceRotationAdjust: set factor to 0.0388
ElecMinimize: Iter:   9  F: -978.662832400575553  |grad|_K:  4.420e-08  alpha:  6.745e-01  linmin: -1.622e-04  t[s]:  26348.10
	Linear fluid (dielectric constant: 78.4, screening length: 8.12261 Bohr) occupying 0.552974 of unit cell:	Completed after 6 iterations at t[s]:  26362.08
	Linear fluid (dielectric constant: 78.4, screening length: 8.12261 Bohr) occupying 0.552974 of unit cell:	Completed after 2 iterations at t[s]:  26373.23
	FillingsUpdate:  mu: -0.194293937  nElectrons: 176.000000  magneticMoment: [ Abs: 0.00000  Tot: +0.00000 ]
	SubspaceRotationAdjust: set factor to 0.0407
ElecMinimize: Iter:  10  F: -978.662832721001791  |grad|_K:  3.638e-08  alpha:  5.904e-01  linmin:  1.919e-04  t[s]:  26390.38
	Linear fluid (dielectric constant: 78.4, screening length: 8.12261 Bohr) occupying 0.552976 of unit cell:	Completed after 7 iterations at t[s]:  26404.03
	Linear fluid (dielectric constant: 78.4, screening length: 8.12261 Bohr) occupying 0.552976 of unit cell:	Completed after 0 iterations at t[s]:  26414.70
	FillingsUpdate:  mu: -0.194271090  nElectrons: 176.000000  magneticMoment: [ Abs: 0.00000  Tot: +0.00000 ]
	SubspaceRotationAdjust: set factor to 0.0395
ElecMinimize: Iter:  11  F: -978.662832916621369  |grad|_K:  3.293e-08  alpha:  5.365e-01  linmin:  6.525e-04  t[s]:  26431.62
	Linear fluid (dielectric constant: 78.4, screening length: 8.12261 Bohr) occupying 0.552978 of unit cell:	Completed after 7 iterations at t[s]:  26445.20
	Linear fluid (dielectric constant: 78.4, screening length: 8.12261 Bohr) occupying 0.552978 of unit cell:	Completed after 2 iterations at t[s]:  26456.34
	FillingsUpdate:  mu: -0.194303658  nElectrons: 176.000000  magneticMoment: [ Abs: 0.00000  Tot: +0.00000 ]
	SubspaceRotationAdjust: set factor to 0.0352
ElecMinimize: Iter:  12  F: -978.662833037293240  |grad|_K:  2.692e-08  alpha:  4.160e-01  linmin: -2.542e-04  t[s]:  26473.55
	Linear fluid (dielectric constant: 78.4, screening length: 8.12261 Bohr) occupying 0.552979 of unit cell:	Completed after 6 iterations at t[s]:  26487.13
	Linear fluid (dielectric constant: 78.4, screening length: 8.12261 Bohr) occupying 0.552979 of unit cell:	Completed after 0 iterations at t[s]:  26497.81
	FillingsUpdate:  mu: -0.194268544  nElectrons: 176.000000  magneticMoment: [ Abs: 0.00000  Tot: +0.00000 ]
	SubspaceRotationAdjust: set factor to 0.0377
ElecMinimize: Iter:  13  F: -978.662833134163861  |grad|_K:  2.039e-08  alpha:  4.765e-01  linmin: -2.301e-03  t[s]:  26515.04
	Linear fluid (dielectric constant: 78.4, screening length: 8.12261 Bohr) occupying 0.552980 of unit cell:	Completed after 2 iterations at t[s]:  26528.37
	Linear fluid (dielectric constant: 78.4, screening length: 8.12261 Bohr) occupying 0.552980 of unit cell:	Completed after 0 iterations at t[s]:  26539.11
	FillingsUpdate:  mu: -0.194260277  nElectrons: 176.000000  magneticMoment: [ Abs: 0.00000  Tot: +0.00000 ]
	SubspaceRotationAdjust: set factor to 0.0459
ElecMinimize: Iter:  14  F: -978.662833208533129  |grad|_K:  1.870e-08  alpha:  6.104e-01  linmin: -1.295e-03  t[s]:  26556.26
ElecMinimize: Converged (|Delta F|<1.000000e-07 for 2 iters).
Setting wave functions to eigenvectors of Hamiltonian
Converging empty states (this may take a while): |deigs|: 1.446e-08

Computing DFT-D3 correction:
# coordination-number Pt 5.957 5.954 7.677 9.494 9.261 9.597 9.519 9.598 9.264 9.497 7.680
# diagonal-C6 Pt 336.87 336.87 336.87 336.87 336.87 336.87 336.87 336.87 336.87 336.87 336.87
EvdW_6 =   -0.096331
EvdW_8 =   -0.156173

# Ionic positions in cartesian coordinates:
ion Pt   5.241344941239076   0.218287908157206  23.220883066279470 1
ion Pt  -0.009454384397353   4.514096278053188   1.317479530575645 1
ion Pt   2.606793556000007   0.560273017423768   3.078109797133047 1
ion Pt   2.609993612546136   5.509569841858357   5.634756953266671 1
ion Pt  -0.003356157811007   1.572862381685218   7.779925019794428 1
ion Pt  -0.002499102120342   6.318316943967173  10.051082205952703 1
ion Pt   2.616171804354795   2.366903059107469  12.270828706020398 1
ion Pt   2.618581854556976   7.091345561936442  14.490040760226428 1
ion Pt   0.003511881249308   3.159281437063087  16.761041025166737 1
ion Pt   0.005972166028747   7.898455702670459  18.905746087428088 1
ion Pt   2.624930828353664   4.172020868077637  21.461657848156399 1

# Forces in Cartesian coordinates:
force Pt   0.000012862354779   0.000216457866042   0.000069793352907 1
force Pt  -0.000012782884593  -0.000192095418807  -0.000102398310995 1
force Pt  -0.000011225532245  -0.000001083369953  -0.000138039839557 1
force Pt  -0.000007321006438  -0.000031677914660   0.000009591227509 1
force Pt  -0.000004877878942   0.000017551627993  -0.000007851656114 1
force Pt  -0.000003297906349  -0.000018360366521  -0.000032090149072 1
force Pt  -0.000000024258384  -0.000019227116089   0.000056866477045 1
force Pt   0.000003559650294  -0.000020846600613   0.000214513226781 1
force Pt   0.000004191086872   0.000027249108968   0.000183229068724 1
force Pt   0.000006999722549   0.000061867102932  -0.000042263673809 1
force Pt   0.000007143232273  -0.000021428775501   0.000041580434557 1

# Energy components:
   A_diel =       -0.0025998355952461
   Eewald =    10879.7943785010647844
       EH =    11766.6046120731225528
     Eloc =   -23794.7947830244302168
      Enl =      -11.5885709644399775
     EvdW =       -0.2525037812267607
      Exc =     -312.9338749150605281
 Exc_core =      180.3052002730553340
       KE =      314.2074004167015460
-------------------------------------
     Etot =     -978.6607412568089330
       TS =        0.0020919517242387
-------------------------------------
        F =     -978.6628332085331294


Dumping 'jdft.fillings' ... done
Dumping 'jdft.wfns' ... done
Dumping 'jdft.fluidState' ... done
Dumping 'jdft.ionpos' ... done
Dumping 'jdft.lattice' ... done
Dumping 'jdft.eigenvals' ... done
Dumping 'jdft.eigStats' ... 
	eMin: -2.145074 at state 49 ( [ -0.461538 +0.000000 +0.000000 ] spin 1 )
	HOMO: -0.194323 at state 175 ( [ -0.076923 +0.000000 +0.000000 ] spin -1 )
	mu  : -0.194260
	LUMO: -0.194115 at state 45 ( [ +0.461538 +0.428571 +0.000000 ] spin 1 )
	eMax: +0.118767 at state 151 ( [ -0.384615 -0.428571 +0.000000 ] spin -1 )
	HOMO-LUMO gap: +0.000208
	Optical gap  : +0.001065 at state 42 ( [ +0.461538 +0.000000 +0.000000 ] spin 1 )
Dumping 'jdft.Ecomponents' ... done
IonicMinimize: Iter:  17  F: -978.662833208533129  |grad|_K:  7.939e-05  alpha:  1.000e+00  linmin:  1.383e-01  t[s]:  26595.85
IonicMinimize: Converged (|grad|_K<1.000000e-04).

#--- Lowdin population analysis ---
# oxidation-state Pt +0.063 +0.061 -0.019 -0.013 +0.008 +0.009 +0.013 +0.010 +0.011 -0.009 -0.015
# magnetic-moments Pt +0.000 +0.000 +0.000 +0.000 +0.000 +0.000 +0.000 +0.000 +0.000 +0.000 +0.000


Dumping 'jdft.n_up' ... done
Dumping 'jdft.n_dn' ... done
Dumping 'jdft.tau_up' ... done
Dumping 'jdft.tau_dn' ... done
Dumping 'jdft.eigenvals' ... done
Dumping 'jdft.eigStats' ... 
	eMin: -2.145074 at state 49 ( [ -0.461538 +0.000000 +0.000000 ] spin 1 )
	HOMO: -0.194323 at state 175 ( [ -0.076923 +0.000000 +0.000000 ] spin -1 )
	mu  : -0.194260
	LUMO: -0.194115 at state 45 ( [ +0.461538 +0.428571 +0.000000 ] spin 1 )
	eMax: +0.118767 at state 151 ( [ -0.384615 -0.428571 +0.000000 ] spin -1 )
	HOMO-LUMO gap: +0.000208
	Optical gap  : +0.001065 at state 42 ( [ +0.461538 +0.000000 +0.000000 ] spin 1 )
Dumping 'jdft.kPts' ... done
Dumping 'jdft.dosUp' ... done.
Dumping 'jdft.dosDn' ... done.
End date and time: Mon Dec  6 23:56:26 2021  (Duration: 0-7:23:45.08)
Done!
