
*************** JDFTx 1.6.0  ***************

Start date and time: Mon Dec  6 17:07:57 2021
Executable /projects/musgravc/apps/jdftx-1.6.1/build/jdftx with command-line: -i in
Running on hosts (process indices):  shas0331.rc.int.colorado.edu (0-23)
Divided in process groups (process indices):  0 (0)  1 (1)  2 (2)  3 (3)  4 (4)  5 (5)  6 (6)  7 (7)  8 (8)  9 (9)  10 (10)  11 (11)  12 (12)  13 (13)  14 (14)  15 (15)  16 (16)  17 (17)  18 (18)  19 (19)  20 (20)  21 (21)  22 (22)  23 (23)
Resource initialization completed at t[s]:      0.00
Run totals: 24 processes, 24 threads, 0 GPUs


Input parsed successfully to the following command list (including defaults):

basis kpoint-dependent
converge-empty-states yes
coords-type Cartesian
core-overlap-check none
coulomb-interaction Periodic
davidson-band-ratio 1.1
density-of-states Etol 1.000000e-06 Esigma 1.000000e-03 \
		Complete \
	Total \
	OrthoOrbital Ag 1   s \
	OrthoOrbital Ag 1   p \
	OrthoOrbital Ag 1   px \
	OrthoOrbital Ag 1   py \
	OrthoOrbital Ag 1   pz \
	OrthoOrbital Ag 1   d \
	OrthoOrbital Ag 1   dxy \
	OrthoOrbital Ag 1   dyz \
	OrthoOrbital Ag 1   dz2 \
	OrthoOrbital Ag 1   dxz \
	OrthoOrbital Ag 1   dx2-y2 \
	OrthoOrbital Ag 2   s \
	OrthoOrbital Ag 2   p \
	OrthoOrbital Ag 2   px \
	OrthoOrbital Ag 2   py \
	OrthoOrbital Ag 2   pz \
	OrthoOrbital Ag 2   d \
	OrthoOrbital Ag 2   dxy \
	OrthoOrbital Ag 2   dyz \
	OrthoOrbital Ag 2   dz2 \
	OrthoOrbital Ag 2   dxz \
	OrthoOrbital Ag 2   dx2-y2 \
	OrthoOrbital Ag 3   s \
	OrthoOrbital Ag 3   p \
	OrthoOrbital Ag 3   px \
	OrthoOrbital Ag 3   py \
	OrthoOrbital Ag 3   pz \
	OrthoOrbital Ag 3   d \
	OrthoOrbital Ag 3   dxy \
	OrthoOrbital Ag 3   dyz \
	OrthoOrbital Ag 3   dz2 \
	OrthoOrbital Ag 3   dxz \
	OrthoOrbital Ag 3   dx2-y2 \
	OrthoOrbital Ag 4   s \
	OrthoOrbital Ag 4   p \
	OrthoOrbital Ag 4   px \
	OrthoOrbital Ag 4   py \
	OrthoOrbital Ag 4   pz \
	OrthoOrbital Ag 4   d \
	OrthoOrbital Ag 4   dxy \
	OrthoOrbital Ag 4   dyz \
	OrthoOrbital Ag 4   dz2 \
	OrthoOrbital Ag 4   dxz \
	OrthoOrbital Ag 4   dx2-y2 \
	OrthoOrbital Ag 5   s \
	OrthoOrbital Ag 5   p \
	OrthoOrbital Ag 5   px \
	OrthoOrbital Ag 5   py \
	OrthoOrbital Ag 5   pz \
	OrthoOrbital Ag 5   d \
	OrthoOrbital Ag 5   dxy \
	OrthoOrbital Ag 5   dyz \
	OrthoOrbital Ag 5   dz2 \
	OrthoOrbital Ag 5   dxz \
	OrthoOrbital Ag 5   dx2-y2 \
	OrthoOrbital Ag 6   s \
	OrthoOrbital Ag 6   p \
	OrthoOrbital Ag 6   px \
	OrthoOrbital Ag 6   py \
	OrthoOrbital Ag 6   pz \
	OrthoOrbital Ag 6   d \
	OrthoOrbital Ag 6   dxy \
	OrthoOrbital Ag 6   dyz \
	OrthoOrbital Ag 6   dz2 \
	OrthoOrbital Ag 6   dxz \
	OrthoOrbital Ag 6   dx2-y2 \
	OrthoOrbital Ag 7   s \
	OrthoOrbital Ag 7   p \
	OrthoOrbital Ag 7   px \
	OrthoOrbital Ag 7   py \
	OrthoOrbital Ag 7   pz \
	OrthoOrbital Ag 7   d \
	OrthoOrbital Ag 7   dxy \
	OrthoOrbital Ag 7   dyz \
	OrthoOrbital Ag 7   dz2 \
	OrthoOrbital Ag 7   dxz \
	OrthoOrbital Ag 7   dx2-y2 \
	OrthoOrbital Ag 8   s \
	OrthoOrbital Ag 8   p \
	OrthoOrbital Ag 8   px \
	OrthoOrbital Ag 8   py \
	OrthoOrbital Ag 8   pz \
	OrthoOrbital Ag 8   d \
	OrthoOrbital Ag 8   dxy \
	OrthoOrbital Ag 8   dyz \
	OrthoOrbital Ag 8   dz2 \
	OrthoOrbital Ag 8   dxz \
	OrthoOrbital Ag 8   dx2-y2 \
	OrthoOrbital Ag 9   s \
	OrthoOrbital Ag 9   p \
	OrthoOrbital Ag 9   px \
	OrthoOrbital Ag 9   py \
	OrthoOrbital Ag 9   pz \
	OrthoOrbital Ag 9   d \
	OrthoOrbital Ag 9   dxy \
	OrthoOrbital Ag 9   dyz \
	OrthoOrbital Ag 9   dz2 \
	OrthoOrbital Ag 9   dxz \
	OrthoOrbital Ag 9   dx2-y2 \
	OrthoOrbital Ag 10   s \
	OrthoOrbital Ag 10   p \
	OrthoOrbital Ag 10   px \
	OrthoOrbital Ag 10   py \
	OrthoOrbital Ag 10   pz \
	OrthoOrbital Ag 10   d \
	OrthoOrbital Ag 10   dxy \
	OrthoOrbital Ag 10   dyz \
	OrthoOrbital Ag 10   dz2 \
	OrthoOrbital Ag 10   dxz \
	OrthoOrbital Ag 10   dx2-y2 \
	OrthoOrbital Ag 11   s \
	OrthoOrbital Ag 11   p \
	OrthoOrbital Ag 11   px \
	OrthoOrbital Ag 11   py \
	OrthoOrbital Ag 11   pz \
	OrthoOrbital Ag 11   d \
	OrthoOrbital Ag 11   dxy \
	OrthoOrbital Ag 11   dyz \
	OrthoOrbital Ag 11   dz2 \
	OrthoOrbital Ag 11   dxz \
	OrthoOrbital Ag 11   dx2-y2 \
	OrthoOrbital Ag 12   s \
	OrthoOrbital Ag 12   p \
	OrthoOrbital Ag 12   px \
	OrthoOrbital Ag 12   py \
	OrthoOrbital Ag 12   pz \
	OrthoOrbital Ag 12   d \
	OrthoOrbital Ag 12   dxy \
	OrthoOrbital Ag 12   dyz \
	OrthoOrbital Ag 12   dz2 \
	OrthoOrbital Ag 12   dxz \
	OrthoOrbital Ag 12   dx2-y2 \
	OrthoOrbital Ag 13   s \
	OrthoOrbital Ag 13   p \
	OrthoOrbital Ag 13   px \
	OrthoOrbital Ag 13   py \
	OrthoOrbital Ag 13   pz \
	OrthoOrbital Ag 13   d \
	OrthoOrbital Ag 13   dxy \
	OrthoOrbital Ag 13   dyz \
	OrthoOrbital Ag 13   dz2 \
	OrthoOrbital Ag 13   dxz \
	OrthoOrbital Ag 13   dx2-y2 \
	OrthoOrbital Ag 14   s \
	OrthoOrbital Ag 14   p \
	OrthoOrbital Ag 14   px \
	OrthoOrbital Ag 14   py \
	OrthoOrbital Ag 14   pz \
	OrthoOrbital Ag 14   d \
	OrthoOrbital Ag 14   dxy \
	OrthoOrbital Ag 14   dyz \
	OrthoOrbital Ag 14   dz2 \
	OrthoOrbital Ag 14   dxz \
	OrthoOrbital Ag 14   dx2-y2 \
	OrthoOrbital Ag 15   s \
	OrthoOrbital Ag 15   p \
	OrthoOrbital Ag 15   px \
	OrthoOrbital Ag 15   py \
	OrthoOrbital Ag 15   pz \
	OrthoOrbital Ag 15   d \
	OrthoOrbital Ag 15   dxy \
	OrthoOrbital Ag 15   dyz \
	OrthoOrbital Ag 15   dz2 \
	OrthoOrbital Ag 15   dxz \
	OrthoOrbital Ag 15   dx2-y2 \
	OrthoOrbital Ag 16   s \
	OrthoOrbital Ag 16   p \
	OrthoOrbital Ag 16   px \
	OrthoOrbital Ag 16   py \
	OrthoOrbital Ag 16   pz \
	OrthoOrbital Ag 16   d \
	OrthoOrbital Ag 16   dxy \
	OrthoOrbital Ag 16   dyz \
	OrthoOrbital Ag 16   dz2 \
	OrthoOrbital Ag 16   dxz \
	OrthoOrbital Ag 16   dx2-y2 \
	OrthoOrbital Ag 17   s \
	OrthoOrbital Ag 17   p \
	OrthoOrbital Ag 17   px \
	OrthoOrbital Ag 17   py \
	OrthoOrbital Ag 17   pz \
	OrthoOrbital Ag 17   d \
	OrthoOrbital Ag 17   dxy \
	OrthoOrbital Ag 17   dyz \
	OrthoOrbital Ag 17   dz2 \
	OrthoOrbital Ag 17   dxz \
	OrthoOrbital Ag 17   dx2-y2 \
	OrthoOrbital Ag 18   s \
	OrthoOrbital Ag 18   p \
	OrthoOrbital Ag 18   px \
	OrthoOrbital Ag 18   py \
	OrthoOrbital Ag 18   pz \
	OrthoOrbital Ag 18   d \
	OrthoOrbital Ag 18   dxy \
	OrthoOrbital Ag 18   dyz \
	OrthoOrbital Ag 18   dz2 \
	OrthoOrbital Ag 18   dxz \
	OrthoOrbital Ag 18   dx2-y2 \
	OrthoOrbital Ag 19   s \
	OrthoOrbital Ag 19   p \
	OrthoOrbital Ag 19   px \
	OrthoOrbital Ag 19   py \
	OrthoOrbital Ag 19   pz \
	OrthoOrbital Ag 19   d \
	OrthoOrbital Ag 19   dxy \
	OrthoOrbital Ag 19   dyz \
	OrthoOrbital Ag 19   dz2 \
	OrthoOrbital Ag 19   dxz \
	OrthoOrbital Ag 19   dx2-y2 \
	OrthoOrbital Ag 20   s \
	OrthoOrbital Ag 20   p \
	OrthoOrbital Ag 20   px \
	OrthoOrbital Ag 20   py \
	OrthoOrbital Ag 20   pz \
	OrthoOrbital Ag 20   d \
	OrthoOrbital Ag 20   dxy \
	OrthoOrbital Ag 20   dyz \
	OrthoOrbital Ag 20   dz2 \
	OrthoOrbital Ag 20   dxz \
	OrthoOrbital Ag 20   dx2-y2
dump End ElecDensity KEdensity BandEigs EigStats RhoAtom DOS Kpoints
dump Ionic State IonicPositions Lattice EigStats Ecomponents
dump 
dump 
dump 
dump 
dump 
dump 
dump 
dump 
dump-name jdft.$VAR
elec-cutoff 20
elec-eigen-algo Davidson
elec-ex-corr gga-PBE
elec-initial-magnetization 0.000000 no
elec-n-bands 228
elec-smearing Fermi 0.001
electronic-minimize  \
	dirUpdateScheme      FletcherReeves \
	linminMethod         DirUpdateRecommended \
	nIterations          100 \
	history              15 \
	knormThreshold       0 \
	energyDiffThreshold  1e-07 \
	nEnergyDiff          2 \
	alphaTstart          1 \
	alphaTmin            1e-10 \
	updateTestStepSize   yes \
	alphaTreduceFactor   0.1 \
	alphaTincreaseFactor 3 \
	nAlphaAdjustMax      3 \
	wolfeEnergy          0.0001 \
	wolfeGradient        0.9 \
	fdTest               no
exchange-regularization WignerSeitzTruncated
fluid None
fluid-ex-corr lda-TF lda-PZ
fluid-gummel-loop 10 1.000000e-05
fluid-minimize  \
	dirUpdateScheme      PolakRibiere \
	linminMethod         DirUpdateRecommended \
	nIterations          100 \
	history              15 \
	knormThreshold       0 \
	energyDiffThreshold  0 \
	nEnergyDiff          2 \
	alphaTstart          1 \
	alphaTmin            1e-10 \
	updateTestStepSize   yes \
	alphaTreduceFactor   0.1 \
	alphaTincreaseFactor 3 \
	nAlphaAdjustMax      3 \
	wolfeEnergy          0.0001 \
	wolfeGradient        0.9 \
	fdTest               no
fluid-solvent H2O 55.338 ScalarEOS \
	epsBulk 78.4 \
	pMol 0.92466 \
	epsInf 1.77 \
	Pvap 1.06736e-10 \
	sigmaBulk 4.62e-05 \
	Rvdw 2.61727 \
	Res 1.42 \
	tauNuc 343133 \
	poleEl 15 7 1
forces-output-coords Positions
ion Ag   0.000000000000000   4.848194000000000  21.210875000000005 1
ion Ag   0.000000000000000   9.696389000000000  18.786729000000005 1
ion Ag   0.000000000000000   2.424097000000000  16.362656000000001 1
ion Ag   0.000000000000000   7.272292000000000  13.938583000000000 1
ion Ag   0.000000000000000  12.120486000000000  11.514438000000002 1
ion Ag   0.000000000000000   4.848194000000000   9.090365000000000 1
ion Ag   0.000000000000000   9.696389000000000   6.666292000000000 1
ion Ag   0.000000000000000   2.424097000000000   4.242146000000000 1
ion Ag   0.000000000000000   7.272292000000000   1.818073000000000 1
ion Ag   0.000000000000000   0.000000000000000  23.634948000000001 1
ion Ag   3.832834000000000   1.212049000000000  19.998802000000001 1
ion Ag   3.832834000000000   6.060243000000000  17.574729000000001 1
ion Ag   3.832834000000000  10.908436999999999  15.150583000000001 1
ion Ag   3.832834000000000   3.636146000000000  12.726509999999999 1
ion Ag   3.832834000000000   8.484340000000000  10.302436999999999 1
ion Ag   3.832834000000000   1.212049000000000   7.878292000000001 1
ion Ag   3.832834000000000   6.060243000000000   5.454219000000000 1
ion Ag   3.832834000000000  10.908436999999999   3.030146000000000 1
ion Ag   3.832834000000000   3.636146000000000   0.606000000000000 1
ion Ag   3.832834000000000   8.484340000000000  22.422875000000005 1
ion-species /projects/musgravc/apps/jdftx-1.6.0/build/pseudopotentials/GBRV_v1.5/$ID_pbe_v1.uspp
ion-species /projects/musgravc/apps/jdftx-1.6.0/build/pseudopotentials/GBRV_v1.5/$ID_pbe_v1.2.uspp
ion-species /projects/musgravc/apps/jdftx-1.6.0/build/pseudopotentials/GBRV_v1.5/$ID_pbe_v1.4.uspp
ion-species /projects/musgravc/apps/jdftx-1.6.0/build/pseudopotentials/GBRV_v1.5/$ID_pbe_v1.5.uspp
ion-width 0
ionic-minimize  \
	dirUpdateScheme      L-BFGS \
	linminMethod         DirUpdateRecommended \
	nIterations          100 \
	history              15 \
	knormThreshold       0.0001 \
	energyDiffThreshold  1e-06 \
	nEnergyDiff          2 \
	alphaTstart          1 \
	alphaTmin            1e-10 \
	updateTestStepSize   yes \
	alphaTreduceFactor   0.1 \
	alphaTincreaseFactor 3 \
	nAlphaAdjustMax      3 \
	wolfeEnergy          0.0001 \
	wolfeGradient        0.9 \
	fdTest               no
kpoint   0.000000000000   0.000000000000   0.000000000000  1.00000000000000
kpoint-folding 9 5 1 
latt-move-scale 0 0 0
latt-scale 1 1 1 
lattice  \
	   7.665668000000000    0.000000000000000    0.000000000000000  \
	   0.000000000000000   12.120486000000000    0.000000000000000  \
	   0.000000000000000    0.000000000000000   72.722915999999998 
lattice-minimize  \
	dirUpdateScheme      L-BFGS \
	linminMethod         DirUpdateRecommended \
	nIterations          0 \
	history              15 \
	knormThreshold       0 \
	energyDiffThreshold  1e-06 \
	nEnergyDiff          2 \
	alphaTstart          1 \
	alphaTmin            1e-10 \
	updateTestStepSize   yes \
	alphaTreduceFactor   0.1 \
	alphaTincreaseFactor 3 \
	nAlphaAdjustMax      3 \
	wolfeEnergy          0.0001 \
	wolfeGradient        0.9 \
	fdTest               no
lcao-params 30 1e-06 0.001
pcm-variant GLSSA13
spintype z-spin
subspace-rotation-factor 1 yes
symmetries none
symmetry-threshold 0.0001
van-der-waals D3


Applied RMS atom displacement 0 bohrs to make symmetries exact.

---------- Initializing the Grid ----------
R = 
[      7.66567            0            0  ]
[            0      12.1205            0  ]
[            0            0      72.7229  ]
unit cell volume = 6756.8
G =
[   0.819653          0          0  ]
[          0   0.518394          0  ]
[          0          0   0.086399  ]
Minimum fftbox size, Smin = [  32  52  296  ]
Chosen fftbox size, S = [  32  54  300  ]

---------- Exchange Correlation functional ----------
Initalized PBE GGA exchange.
Initalized PBE GGA correlation.

---------- Setting up pseudopotentials ----------
Width of ionic core gaussian charges (only for fluid interactions / plotting) set to 0

Reading pseudopotential file '/projects/musgravc/apps/jdftx-1.6.0/build/pseudopotentials/GBRV_v1.5/ag_pbe_v1.4.uspp':
  Title: Ag.  Created by USPP 7.3.6 on 1-4-15
  Reference state energy: -147.606242.  19 valence electrons in orbitals:
    |400>  occupation: 2  eigenvalue: -3.637437
    |410>  occupation: 6  eigenvalue: -2.297267
    |420>  occupation: 10  eigenvalue: -0.417763
    |500>  occupation: 0.5  eigenvalue: -0.283525
    |510>  occupation: 0  eigenvalue: -0.122889
  lMax: 2  lLocal: 0  QijEcut: 5.5
  6 projectors sampled on a log grid with 717 points:
    l: 0  eig: -0.283528  rCut: 1.5
    l: 0  eig: -3.637440  rCut: 1.5
    l: 1  eig: -0.122892  rCut: 1.5
    l: 1  eig: -2.297267  rCut: 1.5
    l: 2  eig: -0.417762  rCut: 1.7
    l: 2  eig: -1.000000  rCut: 1.7
  Partial core density with radius 1.2
  Transforming core density to a uniform radial grid of dG=0.02 with 1163 points.
  Transforming local potential to a uniform radial grid of dG=0.02 with 1163 points.
  Transforming nonlocal projectors to a uniform radial grid of dG=0.02 with 432 points.
  Transforming density augmentations to a uniform radial grid of dG=0.02 with 1163 points.
  Transforming atomic orbitals to a uniform radial grid of dG=0.02 with 432 points.
  Core radius for overlap checks: 1.70 bohrs.

Initialized 1 species with 20 total atoms.

Folded 1 k-points by 9x5x1 to 45 k-points.

---------- Setting up k-points, bands, fillings ----------
No reducable k-points. 
Computing the number of bands and number of electrons
Calculating initial fillings.
nElectrons: 380.000000   nBands: 228   nStates: 90

----- Setting up reduced wavefunction bases (one per k-point) -----
average nbasis = 28863.000 , ideal nbasis = 28865.582

----- Initializing Supercell corresponding to k-point mesh -----
Lattice vector linear combinations in supercell:
[   9   0   0  ]
[   0   5   0  ]
[   0   0   1  ]
Supercell lattice vectors:
[  68.991  0  0  ]
[  0  60.6024  0  ]
[  0  0  72.7229  ]

Initializing DFT-D3 calculator:
	Parameters set for gga-PBE functional
	s6:  1.000  s_r6:  1.217
	s8:  0.722  s_r8:  1.000
	Per-atom parameters loaded for:
	Ag:  sqrtQ[a0]:  5.443  Rcov[a0]:  2.173  CN: [ 0.00 0.97 ]

---------- Setting up ewald sum ----------
Optimum gaussian width for ewald sums = 4.577751 bohr.
Real space sum over 825 unit cells with max indices [  7  5  2  ]
Reciprocal space sum over 5049 terms with max indices [  4  5  25  ]

Computing DFT-D3 correction:
# coordination-number Ag 6.912 9.173 9.203 9.209 9.210 9.208 9.182 8.416 6.135 4.627 8.416 9.182 9.208 9.210 9.209 9.203 9.173 6.912 4.627 6.135
# diagonal-C6 Ag 268.61 268.61 268.61 268.61 268.61 268.61 268.61 268.61 268.61 268.61 268.61 268.61 268.61 268.61 268.61 268.61 268.61 268.61 268.61 268.61
EvdW_6 =   -0.125728
EvdW_8 =   -0.172998

---------- Allocating electronic variables ----------
Initializing wave functions:  linear combination of atomic orbitals
Ag pseudo-atom occupations:   s ( 2 1 )  p ( 6 0 )  d ( 10 )
	FillingsUpdate:  mu: -0.021221969  nElectrons: 380.000000  magneticMoment: [ Abs: 0.00086  Tot: +0.00000 ]
LCAOMinimize: Iter:   0  F: -2951.8408534210102516  |grad|_K:  6.644e-04  alpha:  1.000e+00
	FillingsUpdate:  mu: +0.293942081  nElectrons: 380.000000  magneticMoment: [ Abs: 0.00070  Tot: +0.00001 ]
LCAOMinimize: Iter:   1  F: -2951.8717550459268750  |grad|_K:  8.545e-04  alpha:  1.661e-01  linmin:  8.963e-02  cgtest: -6.798e-01  t[s]:    174.20
LCAOMinimize: 	Bad step direction: g.d > 0.
LCAOMinimize: 	Undoing step.
LCAOMinimize: 	Step failed: resetting search direction.
	FillingsUpdate:  mu: +0.293942081  nElectrons: 380.000000  magneticMoment: [ Abs: 0.00070  Tot: +0.00001 ]
LCAOMinimize: Iter:   2  F: -2951.8717550459268750  |grad|_K:  8.545e-04  alpha:  0.000e+00
	FillingsUpdate:  mu: +0.107555512  nElectrons: 380.000000  magneticMoment: [ Abs: 0.00070  Tot: -0.00001 ]
LCAOMinimize: Iter:   3  F: -2952.0295207167559965  |grad|_K:  2.108e-04  alpha:  6.379e-02  linmin: -8.708e-02  cgtest:  3.465e-01  t[s]:    294.35
LCAOMinimize: Encountered beta<0, resetting CG.
LCAOMinimize: 	Predicted alpha/alphaT>3.000000, increasing alphaT to 1.913813e-01.
	FillingsUpdate:  mu: +0.098889892  nElectrons: 380.000000  magneticMoment: [ Abs: 0.00055  Tot: -0.00003 ]
LCAOMinimize: Iter:   4  F: -2952.1002980636185384  |grad|_K:  9.093e-05  alpha:  5.002e-01  linmin: -2.100e-02  cgtest:  2.135e-01  t[s]:    380.62
	FillingsUpdate:  mu: +0.116459177  nElectrons: 380.000000  magneticMoment: [ Abs: 0.00054  Tot: -0.00002 ]
LCAOMinimize: Iter:   5  F: -2952.1020388415481648  |grad|_K:  4.348e-05  alpha:  7.080e-02  linmin:  1.455e-02  cgtest: -2.131e-01  t[s]:    449.24
	FillingsUpdate:  mu: +0.118681654  nElectrons: 380.000000  magneticMoment: [ Abs: 0.00054  Tot: -0.00002 ]
LCAOMinimize: Iter:   6  F: -2952.1022421316729378  |grad|_K:  2.785e-05  alpha:  3.848e-02  linmin:  1.273e-04  cgtest:  1.692e-01  t[s]:    517.92
LCAOMinimize: 	Predicted alpha/alphaT>3.000000, increasing alphaT to 1.154362e-01.
	FillingsUpdate:  mu: +0.111035453  nElectrons: 380.000000  magneticMoment: [ Abs: 0.00054  Tot: -0.00003 ]
LCAOMinimize: Iter:   7  F: -2952.1026820100369150  |grad|_K:  2.474e-05  alpha:  1.854e-01  linmin:  3.019e-04  cgtest: -1.045e-01  t[s]:    604.14
	FillingsUpdate:  mu: +0.112100259  nElectrons: 380.000000  magneticMoment: [ Abs: 0.00054  Tot: -0.00003 ]
LCAOMinimize: Iter:   8  F: -2952.1027979991490611  |grad|_K:  2.258e-05  alpha:  6.228e-02  linmin:  2.836e-04  cgtest: -9.882e-04  t[s]:    672.66
	FillingsUpdate:  mu: +0.114987023  nElectrons: 380.000000  magneticMoment: [ Abs: 0.00053  Tot: -0.00003 ]
LCAOMinimize: Iter:   9  F: -2952.1028886329786474  |grad|_K:  5.274e-06  alpha:  5.818e-02  linmin: -3.609e-04  cgtest:  1.328e-02  t[s]:    741.34
	FillingsUpdate:  mu: +0.114320370  nElectrons: 380.000000  magneticMoment: [ Abs: 0.00053  Tot: -0.00003 ]
LCAOMinimize: Iter:  10  F: -2952.1028950061640899  |grad|_K:  5.234e-06  alpha:  7.465e-02  linmin:  2.077e-06  cgtest: -1.292e-03  t[s]:    809.90
	FillingsUpdate:  mu: +0.113781108  nElectrons: 380.000000  magneticMoment: [ Abs: 0.00053  Tot: -0.00003 ]
LCAOMinimize: Iter:  11  F: -2952.1028996222089518  |grad|_K:  3.033e-06  alpha:  5.497e-02  linmin:  5.513e-07  cgtest:  1.159e-03  t[s]:    878.83
	FillingsUpdate:  mu: +0.114459197  nElectrons: 380.000000  magneticMoment: [ Abs: 0.00053  Tot: -0.00003 ]
LCAOMinimize: Iter:  12  F: -2952.1029039971954262  |grad|_K:  2.236e-06  alpha:  1.550e-01  linmin: -1.500e-04  cgtest:  6.174e-04  t[s]:    947.64
	FillingsUpdate:  mu: +0.114466965  nElectrons: 380.000000  magneticMoment: [ Abs: 0.00053  Tot: -0.00003 ]
LCAOMinimize: Iter:  13  F: -2952.1029045227110146  |grad|_K:  1.094e-06  alpha:  3.424e-02  linmin:  4.943e-05  cgtest: -3.823e-03  t[s]:   1016.35
LCAOMinimize: 	Predicted alpha/alphaT>3.000000, increasing alphaT to 1.027327e-01.
	FillingsUpdate:  mu: +0.114224052  nElectrons: 380.000000  magneticMoment: [ Abs: 0.00053  Tot: -0.00003 ]
LCAOMinimize: Iter:  14  F: -2952.1029049471594590  |grad|_K:  8.165e-07  alpha:  1.157e-01  linmin: -5.591e-05  cgtest:  2.701e-03  t[s]:   1102.62
LCAOMinimize: Converged (|Delta F|<1.000000e-06 for 2 iters).


---- Citations for features of the code used in this run ----

   Software package:
      R. Sundararaman, K. Letchworth-Weaver, K.A. Schwarz, D. Gunceler, Y. Ozhabes and T.A. Arias, 'JDFTx: software for joint density-functional theory', SoftwareX 6, 278 (2017)

   gga-PBE exchange-correlation functional:
      J.P. Perdew, K. Burke and M. Ernzerhof, Phys. Rev. Lett. 77, 3865 (1996)

   Pseudopotentials:
      KF Garrity, JW Bennett, KM Rabe and D Vanderbilt, Comput. Mater. Sci. 81, 446 (2014)

   DFT-D3 dispersion correction:
      S. Grimme, J. Antony, S. Ehrlich and H. Krieg, J. Chem. Phys. 132, 154104 (2010)

   Total energy minimization with Auxiliary Hamiltonian:
      C. Freysoldt, S. Boeck, and J. Neugebauer, Phys. Rev. B 79, 241103(R) (2009)

   Linear-tetrahedron sampling for density of states:
      G. Lehmann and M. Taut, Phys. status solidi (b) 54, 469 (1972)

This list may not be complete. Please suggest additional citations or
report any other bugs at https://github.com/shankar1729/jdftx/issues

Initialization completed successfully at t[s]:   1116.64


Computing DFT-D3 correction:
# coordination-number Ag 6.912 9.173 9.203 9.209 9.210 9.208 9.182 8.416 6.135 4.627 8.416 9.182 9.208 9.210 9.209 9.203 9.173 6.912 4.627 6.135
# diagonal-C6 Ag 268.61 268.61 268.61 268.61 268.61 268.61 268.61 268.61 268.61 268.61 268.61 268.61 268.61 268.61 268.61 268.61 268.61 268.61 268.61 268.61
EvdW_6 =   -0.125728
EvdW_8 =   -0.172998

-------- Electronic minimization -----------
	FillingsUpdate:  mu: +0.114224054  nElectrons: 380.000000  magneticMoment: [ Abs: 0.00053  Tot: -0.00003 ]
ElecMinimize: Iter:   0  F: -2952.102904947166735  |grad|_K:  1.800e-05  alpha:  1.000e+00
	FillingsUpdate:  mu: +0.122816495  nElectrons: 380.000000  magneticMoment: [ Abs: 0.00041  Tot: -0.00003 ]
	SubspaceRotationAdjust: set factor to 0.999
ElecMinimize: Iter:   1  F: -2952.185813502260771  |grad|_K:  1.240e-05  alpha:  4.318e-01  linmin:  2.110e-05  t[s]:   1286.87
	FillingsUpdate:  mu: +0.104742172  nElectrons: 380.000000  magneticMoment: [ Abs: 0.00032  Tot: -0.00004 ]
	SubspaceRotationAdjust: set factor to 0.877
ElecMinimize: Iter:   2  F: -2952.210364370583648  |grad|_K:  7.623e-06  alpha:  2.678e-01  linmin: -1.629e-05  t[s]:   1394.23
	FillingsUpdate:  mu: +0.118442217  nElectrons: 380.000000  magneticMoment: [ Abs: 0.00029  Tot: -0.00003 ]
	SubspaceRotationAdjust: set factor to 0.615
ElecMinimize: Iter:   3  F: -2952.213217291052842  |grad|_K:  7.892e-06  alpha:  8.321e-02  linmin:  3.227e-05  t[s]:   1501.62
	FillingsUpdate:  mu: +0.130440741  nElectrons: 380.000000  magneticMoment: [ Abs: 0.00025  Tot: -0.00003 ]
	SubspaceRotationAdjust: set factor to 0.457
ElecMinimize: Iter:   4  F: -2952.216335490506026  |grad|_K:  5.852e-06  alpha:  8.473e-02  linmin: -1.027e-05  t[s]:   1609.24
	FillingsUpdate:  mu: +0.119717316  nElectrons: 380.000000  magneticMoment: [ Abs: 0.00019  Tot: -0.00003 ]
	SubspaceRotationAdjust: set factor to 0.773
ElecMinimize: Iter:   5  F: -2952.219923723636839  |grad|_K:  3.014e-06  alpha:  1.762e-01  linmin:  2.611e-05  t[s]:   1716.94
	FillingsUpdate:  mu: +0.115496732  nElectrons: 380.000000  magneticMoment: [ Abs: 0.00017  Tot: -0.00003 ]
	SubspaceRotationAdjust: set factor to 0.527
ElecMinimize: Iter:   6  F: -2952.220692465125921  |grad|_K:  3.873e-06  alpha:  1.426e-01  linmin:  4.622e-06  t[s]:   1824.47
	FillingsUpdate:  mu: +0.114043198  nElectrons: 380.000000  magneticMoment: [ Abs: 0.00013  Tot: -0.00003 ]
	SubspaceRotationAdjust: set factor to 0.33
ElecMinimize: Iter:   7  F: -2952.221710302016618  |grad|_K:  2.182e-06  alpha:  1.141e-01  linmin:  4.342e-06  t[s]:   1932.24
	FillingsUpdate:  mu: +0.119826229  nElectrons: 380.000000  magneticMoment: [ Abs: 0.00011  Tot: -0.00002 ]
	SubspaceRotationAdjust: set factor to 0.195
ElecMinimize: Iter:   8  F: -2952.222155161585306  |grad|_K:  1.513e-06  alpha:  1.570e-01  linmin: -1.353e-05  t[s]:   2040.51
	FillingsUpdate:  mu: +0.122303086  nElectrons: 380.000000  magneticMoment: [ Abs: 0.00009  Tot: -0.00002 ]
	SubspaceRotationAdjust: set factor to 0.161
ElecMinimize: Iter:   9  F: -2952.222483909094080  |grad|_K:  1.101e-06  alpha:  2.412e-01  linmin: -3.079e-06  t[s]:   2148.35
	FillingsUpdate:  mu: +0.119863047  nElectrons: 380.000000  magneticMoment: [ Abs: 0.00007  Tot: -0.00002 ]
	SubspaceRotationAdjust: set factor to 0.181
ElecMinimize: Iter:  10  F: -2952.222702177705287  |grad|_K:  6.937e-07  alpha:  3.030e-01  linmin:  2.573e-05  t[s]:   2256.16
	FillingsUpdate:  mu: +0.118442169  nElectrons: 380.000000  magneticMoment: [ Abs: 0.00006  Tot: -0.00002 ]
	SubspaceRotationAdjust: set factor to 0.183
ElecMinimize: Iter:  11  F: -2952.222801228634580  |grad|_K:  5.519e-07  alpha:  3.471e-01  linmin:  1.788e-05  t[s]:   2363.71
	FillingsUpdate:  mu: +0.119258140  nElectrons: 380.000000  magneticMoment: [ Abs: 0.00006  Tot: -0.00001 ]
	SubspaceRotationAdjust: set factor to 0.17
ElecMinimize: Iter:  12  F: -2952.222855945534775  |grad|_K:  3.931e-07  alpha:  3.025e-01  linmin:  3.000e-06  t[s]:   2471.08
	FillingsUpdate:  mu: +0.120082910  nElectrons: 380.000000  magneticMoment: [ Abs: 0.00005  Tot: -0.00001 ]
	SubspaceRotationAdjust: set factor to 0.161
ElecMinimize: Iter:  13  F: -2952.222882851528993  |grad|_K:  2.977e-07  alpha:  2.929e-01  linmin:  1.966e-06  t[s]:   2578.62
	FillingsUpdate:  mu: +0.119987568  nElectrons: 380.000000  magneticMoment: [ Abs: 0.00005  Tot: -0.00001 ]
	SubspaceRotationAdjust: set factor to 0.204
ElecMinimize: Iter:  14  F: -2952.222902126500230  |grad|_K:  2.200e-07  alpha:  3.661e-01  linmin:  8.802e-06  t[s]:   2686.36
	FillingsUpdate:  mu: +0.119666379  nElectrons: 380.000000  magneticMoment: [ Abs: 0.00005  Tot: -0.00001 ]
	SubspaceRotationAdjust: set factor to 0.199
ElecMinimize: Iter:  15  F: -2952.222912586536040  |grad|_K:  2.028e-07  alpha:  3.642e-01  linmin:  4.092e-06  t[s]:   2794.08
	FillingsUpdate:  mu: +0.119749882  nElectrons: 380.000000  magneticMoment: [ Abs: 0.00004  Tot: -0.00001 ]
	SubspaceRotationAdjust: set factor to 0.198
ElecMinimize: Iter:  16  F: -2952.222919713537067  |grad|_K:  1.614e-07  alpha:  2.916e-01  linmin:  9.924e-07  t[s]:   2901.70
	FillingsUpdate:  mu: +0.120180647  nElectrons: 380.000000  magneticMoment: [ Abs: 0.00004  Tot: -0.00001 ]
	SubspaceRotationAdjust: set factor to 0.219
ElecMinimize: Iter:  17  F: -2952.222926254567483  |grad|_K:  1.411e-07  alpha:  4.230e-01  linmin:  3.712e-06  t[s]:   3009.91
	FillingsUpdate:  mu: +0.120140618  nElectrons: 380.000000  magneticMoment: [ Abs: 0.00003  Tot: -0.00000 ]
	SubspaceRotationAdjust: set factor to 0.245
ElecMinimize: Iter:  18  F: -2952.222930650536455  |grad|_K:  1.194e-07  alpha:  3.721e-01  linmin:  2.879e-06  t[s]:   3117.52
	FillingsUpdate:  mu: +0.119982815  nElectrons: 380.000000  magneticMoment: [ Abs: 0.00003  Tot: -0.00000 ]
	SubspaceRotationAdjust: set factor to 0.207
ElecMinimize: Iter:  19  F: -2952.222933134037703  |grad|_K:  1.016e-07  alpha:  2.932e-01  linmin:  9.473e-07  t[s]:   3225.16
	FillingsUpdate:  mu: +0.120015926  nElectrons: 380.000000  magneticMoment: [ Abs: 0.00002  Tot: -0.00000 ]
	SubspaceRotationAdjust: set factor to 0.183
ElecMinimize: Iter:  20  F: -2952.222934712063307  |grad|_K:  7.645e-08  alpha:  2.573e-01  linmin:  6.551e-07  t[s]:   3332.86
	FillingsUpdate:  mu: +0.120181620  nElectrons: 380.000000  magneticMoment: [ Abs: 0.00002  Tot: -0.00000 ]
	SubspaceRotationAdjust: set factor to 0.189
ElecMinimize: Iter:  21  F: -2952.222935877465261  |grad|_K:  5.313e-08  alpha:  3.358e-01  linmin:  1.085e-06  t[s]:   3440.56
	FillingsUpdate:  mu: +0.120177405  nElectrons: 380.000000  magneticMoment: [ Abs: 0.00001  Tot: -0.00000 ]
	SubspaceRotationAdjust: set factor to 0.193
ElecMinimize: Iter:  22  F: -2952.222936457365449  |grad|_K:  4.378e-08  alpha:  3.462e-01  linmin: -5.040e-07  t[s]:   3548.51
	FillingsUpdate:  mu: +0.120117733  nElectrons: 380.000000  magneticMoment: [ Abs: 0.00001  Tot: -0.00000 ]
	SubspaceRotationAdjust: set factor to 0.164
ElecMinimize: Iter:  23  F: -2952.222936777686755  |grad|_K:  3.161e-08  alpha:  2.808e-01  linmin:  6.896e-08  t[s]:   3655.89
	FillingsUpdate:  mu: +0.120102098  nElectrons: 380.000000  magneticMoment: [ Abs: 0.00001  Tot: -0.00000 ]
	SubspaceRotationAdjust: set factor to 0.171
ElecMinimize: Iter:  24  F: -2952.222936968872091  |grad|_K:  2.407e-08  alpha:  3.217e-01  linmin:  2.558e-07  t[s]:   3763.77
	FillingsUpdate:  mu: +0.120129110  nElectrons: 380.000000  magneticMoment: [ Abs: 0.00001  Tot: -0.00000 ]
	SubspaceRotationAdjust: set factor to 0.193
ElecMinimize: Iter:  25  F: -2952.222937083776287  |grad|_K:  1.779e-08  alpha:  3.337e-01  linmin:  1.567e-06  t[s]:   3871.47
	FillingsUpdate:  mu: +0.120140583  nElectrons: 380.000000  magneticMoment: [ Abs: 0.00000  Tot: -0.00000 ]
	SubspaceRotationAdjust: set factor to 0.197
ElecMinimize: Iter:  26  F: -2952.222937148770598  |grad|_K:  1.546e-08  alpha:  3.461e-01  linmin: -2.088e-06  t[s]:   3979.40
	FillingsUpdate:  mu: +0.120124836  nElectrons: 380.000000  magneticMoment: [ Abs: 0.00000  Tot: -0.00000 ]
	SubspaceRotationAdjust: set factor to 0.214
ElecMinimize: Iter:  27  F: -2952.222937193028429  |grad|_K:  1.238e-08  alpha:  3.089e-01  linmin: -3.675e-07  t[s]:   4087.12
ElecMinimize: Converged (|Delta F|<1.000000e-07 for 2 iters).
Setting wave functions to eigenvectors of Hamiltonian
Converging empty states (this may take a while): |deigs|: 1.309e-02

Computing DFT-D3 correction:
# coordination-number Ag 6.912 9.173 9.203 9.209 9.210 9.208 9.182 8.416 6.135 4.627 8.416 9.182 9.208 9.210 9.209 9.203 9.173 6.912 4.627 6.135
# diagonal-C6 Ag 268.61 268.61 268.61 268.61 268.61 268.61 268.61 268.61 268.61 268.61 268.61 268.61 268.61 268.61 268.61 268.61 268.61 268.61 268.61 268.61
EvdW_6 =   -0.125728
EvdW_8 =   -0.172998

# Ionic positions in cartesian coordinates:
ion Ag   0.000000000000000   4.848194000000000  21.210875000000005 1
ion Ag   0.000000000000000   9.696389000000000  18.786729000000005 1
ion Ag   0.000000000000000   2.424097000000000  16.362656000000001 1
ion Ag   0.000000000000000   7.272292000000000  13.938583000000000 1
ion Ag   0.000000000000000  12.120486000000000  11.514438000000002 1
ion Ag   0.000000000000000   4.848194000000000   9.090365000000000 1
ion Ag   0.000000000000000   9.696389000000000   6.666292000000000 1
ion Ag   0.000000000000000   2.424097000000000   4.242146000000000 1
ion Ag   0.000000000000000   7.272292000000000   1.818073000000000 1
ion Ag   0.000000000000000   0.000000000000000  23.634948000000001 1
ion Ag   3.832834000000000   1.212049000000000  19.998802000000001 1
ion Ag   3.832834000000000   6.060243000000000  17.574729000000001 1
ion Ag   3.832834000000000  10.908436999999999  15.150583000000001 1
ion Ag   3.832834000000000   3.636146000000000  12.726509999999999 1
ion Ag   3.832834000000000   8.484340000000000  10.302436999999999 1
ion Ag   3.832834000000000   1.212049000000000   7.878292000000001 1
ion Ag   3.832834000000000   6.060243000000000   5.454219000000000 1
ion Ag   3.832834000000000  10.908436999999999   3.030146000000000 1
ion Ag   3.832834000000000   3.636146000000000   0.606000000000000 1
ion Ag   3.832834000000000   8.484340000000000  22.422875000000005 1

# Forces in Cartesian coordinates:
force Ag   0.000002641279500  -0.000011002509004   0.004911137833598 1
force Ag  -0.000001296998803  -0.000772095791912   0.000480339567586 1
force Ag   0.000000305660849  -0.000412150088688  -0.001774746365210 1
force Ag  -0.000002747397929   0.000439881920116   0.000361557081768 1
force Ag   0.000001507591639  -0.000586942658365  -0.000588908879199 1
force Ag   0.000006550749567   0.000063913771381   0.000844029064028 1
force Ag  -0.000002720163561   0.000303328945651   0.000662766740772 1
force Ag  -0.000001531398211  -0.003313977602519  -0.004990232900155 1
force Ag   0.000001329167645   0.002281805644312  -0.002170558326194 1
force Ag  -0.000002331972324  -0.000407410711517  -0.003509472826728 1
force Ag   0.000000769835605   0.003334113286527   0.004961343885850 1
force Ag   0.000002581607179  -0.000371415324752  -0.000722463964043 1
force Ag  -0.000006328459308   0.000016721674307  -0.000905477447348 1
force Ag  -0.000000406313641   0.000523108535335   0.000505626669726 1
force Ag   0.000003711829099  -0.000411595960696  -0.000441389236937 1
force Ag  -0.000000510654911   0.000438542784758   0.001710271248399 1
force Ag  -0.000000097586335   0.000707441255722  -0.000511057387118 1
force Ag  -0.000001106216240   0.000100159415719  -0.004949336556709 1
force Ag   0.000004857658819   0.000266499087426   0.003490311779440 1
force Ag   0.000002208151863  -0.002219451975948   0.002141358804743 1

# Energy components:
   Eewald =    24221.6625686443767336
       EH =    26886.3281838692018937
     Eloc =   -54524.0013170446036384
      Enl =       78.8961101470883222
     EvdW =       -0.2987257164288569
      Exc =     -289.8361025194689091
 Exc_core =        4.1634126338420181
       KE =      670.8635254591060857
-------------------------------------
     Etot =    -2952.2223445268864452
       TS =        0.0005926661418165
-------------------------------------
        F =    -2952.2229371930284287


Dumping 'jdft.fillings' ... done
Dumping 'jdft.wfns' ... done
Dumping 'jdft.ionpos' ... done
Dumping 'jdft.lattice' ... done
Dumping 'jdft.eigenvals' ... done
Dumping 'jdft.eigStats' ... 
	eMin: -3.264605 at state 0 ( [ +0.000000 +0.000000 +0.000000 ] spin 1 )
	HOMO: +0.119091 at state 22 ( [ +0.444444 +0.400000 +0.000000 ] spin 1 )
	mu  : +0.120125
	LUMO: +0.120379 at state 87 ( [ -0.111111 +0.400000 +0.000000 ] spin -1 )
	eMax: +0.418520 at state 0 ( [ +0.000000 +0.000000 +0.000000 ] spin 1 )
	HOMO-LUMO gap: +0.001288
	Optical gap  : +0.008065 at state 62 ( [ +0.333333 +0.400000 +0.000000 ] spin -1 )
Dumping 'jdft.Ecomponents' ... done
IonicMinimize: Iter:   0  F: -2952.222937193028429  |grad|_K:  1.718e-03  t[s]:   4495.69

#--- Lowdin population analysis ---
# oxidation-state Ag +0.001 -0.050 -0.002 +0.001 +0.005 +0.000 -0.024 -0.065 +0.029 +0.155 -0.065 -0.025 -0.000 +0.005 +0.001 -0.002 -0.049 +0.001 +0.155 +0.029
# magnetic-moments Ag +0.000 -0.000 -0.000 -0.000 -0.000 -0.000 -0.000 +0.000 -0.000 -0.000 -0.000 -0.000 -0.000 -0.000 -0.000 -0.000 -0.000 +0.000 -0.000 -0.000


Computing DFT-D3 correction:
# coordination-number Ag 6.910 9.166 9.197 9.211 9.212 9.204 9.178 8.410 6.133 4.637 8.410 9.178 9.204 9.212 9.211 9.197 9.166 6.910 4.637 6.133
# diagonal-C6 Ag 268.61 268.61 268.61 268.61 268.61 268.61 268.61 268.61 268.61 268.61 268.61 268.61 268.61 268.61 268.61 268.61 268.61 268.61 268.61 268.61
EvdW_6 =   -0.125713
EvdW_8 =   -0.172978

-------- Electronic minimization -----------
	FillingsUpdate:  mu: +0.120074193  nElectrons: 380.000000  magneticMoment: [ Abs: 0.00000  Tot: -0.00000 ]
ElecMinimize: Iter:   0  F: -2952.223075255786625  |grad|_K:  1.868e-07  alpha:  1.000e+00
	FillingsUpdate:  mu: +0.120068096  nElectrons: 380.000000  magneticMoment: [ Abs: 0.00000  Tot: -0.00000 ]
	SubspaceRotationAdjust: set factor to 0.13
ElecMinimize: Iter:   1  F: -2952.223079786640483  |grad|_K:  1.681e-07  alpha:  2.185e-01  linmin: -1.469e-06  t[s]:   4694.65
	FillingsUpdate:  mu: +0.120063630  nElectrons: 380.000000  magneticMoment: [ Abs: 0.00000  Tot: -0.00000 ]
	SubspaceRotationAdjust: set factor to 0.158
ElecMinimize: Iter:   2  F: -2952.223090238764598  |grad|_K:  1.526e-07  alpha:  6.219e-01  linmin:  4.042e-09  t[s]:   4802.92
	FillingsUpdate:  mu: +0.120127285  nElectrons: 380.000000  magneticMoment: [ Abs: 0.00000  Tot: -0.00000 ]
	SubspaceRotationAdjust: set factor to 0.177
ElecMinimize: Iter:   3  F: -2952.223100113140845  |grad|_K:  1.529e-07  alpha:  7.128e-01  linmin:  2.562e-08  t[s]:   4911.17
	FillingsUpdate:  mu: +0.120109835  nElectrons: 380.000000  magneticMoment: [ Abs: 0.00000  Tot: -0.00000 ]
	SubspaceRotationAdjust: set factor to 0.169
ElecMinimize: Iter:   4  F: -2952.223105379851859  |grad|_K:  1.095e-07  alpha:  3.788e-01  linmin: -5.368e-07  t[s]:   5019.33
	FillingsUpdate:  mu: +0.120077882  nElectrons: 380.000000  magneticMoment: [ Abs: 0.00000  Tot: -0.00000 ]
	SubspaceRotationAdjust: set factor to 0.127
ElecMinimize: Iter:   5  F: -2952.223107922916370  |grad|_K:  7.706e-08  alpha:  3.566e-01  linmin:  1.538e-06  t[s]:   5127.58
	FillingsUpdate:  mu: +0.120091490  nElectrons: 380.000000  magneticMoment: [ Abs: 0.00000  Tot: -0.00000 ]
	SubspaceRotationAdjust: set factor to 0.0942
ElecMinimize: Iter:   6  F: -2952.223108923408745  |grad|_K:  4.711e-08  alpha:  2.834e-01  linmin: -1.530e-06  t[s]:   5235.66
	FillingsUpdate:  mu: +0.120109417  nElectrons: 380.000000  magneticMoment: [ Abs: 0.00000  Tot: -0.00000 ]
	SubspaceRotationAdjust: set factor to 0.113
ElecMinimize: Iter:   7  F: -2952.223109433130048  |grad|_K:  3.005e-08  alpha:  3.863e-01  linmin:  4.196e-05  t[s]:   5344.56
	FillingsUpdate:  mu: +0.120096458  nElectrons: 380.000000  magneticMoment: [ Abs: 0.00000  Tot: -0.00000 ]
	SubspaceRotationAdjust: set factor to 0.108
ElecMinimize: Iter:   8  F: -2952.223109624751032  |grad|_K:  1.902e-08  alpha:  3.579e-01  linmin: -3.876e-05  t[s]:   5452.73
	FillingsUpdate:  mu: +0.120084242  nElectrons: 380.000000  magneticMoment: [ Abs: 0.00000  Tot: -0.00000 ]
	SubspaceRotationAdjust: set factor to 0.104
ElecMinimize: Iter:   9  F: -2952.223109717825537  |grad|_K:  1.236e-08  alpha:  4.324e-01  linmin: -7.117e-06  t[s]:   5560.74
	FillingsUpdate:  mu: +0.120085836  nElectrons: 380.000000  magneticMoment: [ Abs: 0.00000  Tot: -0.00000 ]
	SubspaceRotationAdjust: set factor to 0.118
ElecMinimize: Iter:  10  F: -2952.223109755522273  |grad|_K:  9.619e-09  alpha:  4.136e-01  linmin:  1.368e-04  t[s]:   5669.03
ElecMinimize: Converged (|Delta F|<1.000000e-07 for 2 iters).
Setting wave functions to eigenvectors of Hamiltonian
Converging empty states (this may take a while): |deigs|: 6.882e-09

Computing DFT-D3 correction:
# coordination-number Ag 6.910 9.166 9.197 9.211 9.212 9.204 9.178 8.410 6.133 4.637 8.410 9.178 9.204 9.212 9.211 9.197 9.166 6.910 4.637 6.133
# diagonal-C6 Ag 268.61 268.61 268.61 268.61 268.61 268.61 268.61 268.61 268.61 268.61 268.61 268.61 268.61 268.61 268.61 268.61 268.61 268.61 268.61 268.61
EvdW_6 =   -0.125713
EvdW_8 =   -0.172978
IonicMinimize: 	Wolfe criterion not satisfied: alpha: 1  (E-E0)/|gdotd0|: -0.974617  gdotd/gdotd0: 0.948685 (taking cubic step)

Computing DFT-D3 correction:
# coordination-number Ag 6.906 9.152 9.185 9.214 9.217 9.197 9.170 8.397 6.128 4.657 8.397 9.170 9.197 9.217 9.215 9.185 9.153 6.907 4.657 6.128
# diagonal-C6 Ag 268.61 268.61 268.61 268.61 268.61 268.61 268.61 268.61 268.61 268.61 268.61 268.61 268.61 268.61 268.61 268.61 268.61 268.61 268.61 268.61
EvdW_6 =   -0.125684
EvdW_8 =   -0.172938

-------- Electronic minimization -----------
	FillingsUpdate:  mu: +0.120110319  nElectrons: 380.000000  magneticMoment: [ Abs: 0.00000  Tot: -0.00000 ]
ElecMinimize: Iter:   0  F: -2952.223292467716419  |grad|_K:  2.503e-07  alpha:  1.000e+00
	FillingsUpdate:  mu: +0.119927721  nElectrons: 380.000000  magneticMoment: [ Abs: 0.00000  Tot: -0.00000 ]
	SubspaceRotationAdjust: set factor to 0.154
ElecMinimize: Iter:   1  F: -2952.223316608629375  |grad|_K:  2.492e-07  alpha:  6.483e-01  linmin:  1.515e-07  t[s]:   5978.73
	FillingsUpdate:  mu: +0.120026897  nElectrons: 380.000000  magneticMoment: [ Abs: 0.00000  Tot: -0.00000 ]
	SubspaceRotationAdjust: set factor to 0.175
ElecMinimize: Iter:   2  F: -2952.223341047836584  |grad|_K:  3.148e-07  alpha:  6.619e-01  linmin: -1.490e-07  t[s]:   6086.80
	FillingsUpdate:  mu: +0.120216593  nElectrons: 380.000000  magneticMoment: [ Abs: 0.00000  Tot: -0.00000 ]
	SubspaceRotationAdjust: set factor to 0.181
ElecMinimize: Iter:   3  F: -2952.223378017616596  |grad|_K:  2.988e-07  alpha:  6.274e-01  linmin:  8.594e-09  t[s]:   6195.31
	FillingsUpdate:  mu: +0.119971404  nElectrons: 380.000000  magneticMoment: [ Abs: 0.00000  Tot: -0.00000 ]
	SubspaceRotationAdjust: set factor to 0.157
ElecMinimize: Iter:   4  F: -2952.223404261343148  |grad|_K:  2.528e-07  alpha:  4.944e-01  linmin: -1.411e-08  t[s]:   6303.62
	FillingsUpdate:  mu: +0.120010561  nElectrons: 380.000000  magneticMoment: [ Abs: 0.00000  Tot: -0.00000 ]
	SubspaceRotationAdjust: set factor to 0.109
ElecMinimize: Iter:   5  F: -2952.223415921179821  |grad|_K:  1.744e-07  alpha:  3.069e-01  linmin:  1.374e-07  t[s]:   6411.46
	FillingsUpdate:  mu: +0.120145710  nElectrons: 380.000000  magneticMoment: [ Abs: 0.00000  Tot: -0.00000 ]
	SubspaceRotationAdjust: set factor to 0.0911
ElecMinimize: Iter:   6  F: -2952.223422509418924  |grad|_K:  1.085e-07  alpha:  3.643e-01  linmin:  1.343e-06  t[s]:   6519.89
	FillingsUpdate:  mu: +0.120106194  nElectrons: 380.000000  magneticMoment: [ Abs: 0.00000  Tot: -0.00000 ]
	SubspaceRotationAdjust: set factor to 0.0992
ElecMinimize: Iter:   7  F: -2952.223425289296301  |grad|_K:  6.744e-08  alpha:  3.973e-01  linmin: -5.454e-07  t[s]:   6628.61
	FillingsUpdate:  mu: +0.120054779  nElectrons: 380.000000  magneticMoment: [ Abs: 0.00000  Tot: -0.00000 ]
	SubspaceRotationAdjust: set factor to 0.0889
ElecMinimize: Iter:   8  F: -2952.223426401686993  |grad|_K:  4.268e-08  alpha:  4.112e-01  linmin:  1.116e-05  t[s]:   6737.11
	FillingsUpdate:  mu: +0.120052492  nElectrons: 380.000000  magneticMoment: [ Abs: 0.00000  Tot: -0.00000 ]
	SubspaceRotationAdjust: set factor to 0.0852
ElecMinimize: Iter:   9  F: -2952.223426816140091  |grad|_K:  2.700e-08  alpha:  3.826e-01  linmin: -1.771e-05  t[s]:   6846.28
	FillingsUpdate:  mu: +0.120053964  nElectrons: 380.000000  magneticMoment: [ Abs: 0.00000  Tot: -0.00000 ]
	SubspaceRotationAdjust: set factor to 0.0983
ElecMinimize: Iter:  10  F: -2952.223426990145072  |grad|_K:  1.779e-08  alpha:  4.008e-01  linmin: -1.144e-04  t[s]:   6954.49
	FillingsUpdate:  mu: +0.120049770  nElectrons: 380.000000  magneticMoment: [ Abs: 0.00000  Tot: -0.00000 ]
	SubspaceRotationAdjust: set factor to 0.107
ElecMinimize: Iter:  11  F: -2952.223427070615344  |grad|_K:  1.200e-08  alpha:  4.264e-01  linmin: -2.781e-04  t[s]:   7062.91
	FillingsUpdate:  mu: +0.120044337  nElectrons: 380.000000  magneticMoment: [ Abs: 0.00000  Tot: -0.00000 ]
	SubspaceRotationAdjust: set factor to 0.128
ElecMinimize: Iter:  12  F: -2952.223427113995513  |grad|_K:  1.011e-08  alpha:  5.108e-01  linmin:  1.723e-04  t[s]:   7171.08
ElecMinimize: Converged (|Delta F|<1.000000e-07 for 2 iters).
Setting wave functions to eigenvectors of Hamiltonian
Converging empty states (this may take a while): |deigs|: 3.842e-08

Computing DFT-D3 correction:
# coordination-number Ag 6.906 9.152 9.185 9.214 9.217 9.197 9.170 8.397 6.128 4.657 8.397 9.170 9.197 9.217 9.215 9.185 9.153 6.907 4.657 6.128
# diagonal-C6 Ag 268.61 268.61 268.61 268.61 268.61 268.61 268.61 268.61 268.61 268.61 268.61 268.61 268.61 268.61 268.61 268.61 268.61 268.61 268.61 268.61
EvdW_6 =   -0.125684
EvdW_8 =   -0.172938

# Ionic positions in cartesian coordinates:
ion Ag   0.000006815882924   4.848165571418311  21.225682648682859 1
ion Ag  -0.000004998951985   9.694077291569586  18.788244253884823 1
ion Ag  -0.000000190973027   2.422865128679257  16.357405996086431 1
ion Ag  -0.000009350149364   7.273616224705671  13.939741906427365 1
ion Ag   0.000003414819343  12.118729750970227  11.512745508544462 1
ion Ag   0.000018544293126   4.848390320259464   9.092971322374144 1
ion Ag  -0.000009268446258   9.697303565782274   6.668354535404375 1
ion Ag  -0.000005702150207   2.414159646137764   4.227249536481594 1
ion Ag   0.000002879547360   7.279141995878257   1.811635560203479 1
ion Ag  -0.000008103872548  -0.001217653189230  23.624493816701875 1
ion Ag   3.832835201551240   1.222055918804904  20.013760266839615 1
ion Ag   3.832840636865960   6.059133332971068  17.572635843289930 1
ion Ag   3.832813906666499  10.908491743968241  15.147940802840017 1
ion Ag   3.832831673103502   3.637719904551328  12.728101115191238 1
ion Ag   3.832844027531721   8.483109791063237  10.301187067471247 1
ion Ag   3.832831360079693   1.213369207299595   7.883497048927257 1
ion Ag   3.832832599285421   6.062369902712488   5.452760063020707 1
ion Ag   3.832829573395703  10.908742057192477   3.015372225511931 1
ion Ag   3.832847465020880   3.636950076207601   0.616545170520381 1
ion Ag   3.832839516500012   8.477686223017477  22.429373311596290 1

# Forces in Cartesian coordinates:
force Ag   0.000002940449366   0.000175138009672   0.004341428811633 1
force Ag  -0.000001077928208  -0.000597704709614   0.000447132568139 1
force Ag   0.000000343314724  -0.000430765451816  -0.001086475915272 1
force Ag  -0.000002158721442   0.000446805256911   0.000398007399856 1
force Ag   0.000000753726281  -0.000498759319917  -0.000532179564215 1
force Ag   0.000005633846997  -0.000047612443356   0.000315000593193 1
force Ag  -0.000002287341281   0.000321387677254   0.000270585347254 1
force Ag  -0.000000607190261  -0.002854163219224  -0.004169332478717 1
force Ag   0.000001869524173   0.002103068203570  -0.001912435553814 1
force Ag  -0.000003355942566  -0.000547026380776  -0.002958510038268 1
force Ag   0.000000590399160   0.002893986554405   0.004132342891518 1
force Ag   0.000002029322923  -0.000374530674738  -0.000355449811911 1
force Ag  -0.000005530278683   0.000110309673566  -0.000400864128859 1
force Ag  -0.000000144732406   0.000452024039419   0.000410344125730 1
force Ag   0.000003126216460  -0.000420032099625  -0.000505604705340 1
force Ag  -0.000000060605986   0.000454082459956   0.000998793532917 1
force Ag  -0.000000077098290   0.000543194013259  -0.000503134081453 1
force Ag  -0.000001799511481  -0.000106183849445  -0.004375927917759 1
force Ag   0.000004241078247   0.000426667350559   0.002943481709102 1
force Ag   0.000001341660956  -0.002024255168665   0.001888273185815 1

# Energy components:
   Eewald =    24211.9558341448355350
       EH =    26876.6012140833081503
     Eloc =   -54504.5645715569116874
      Enl =       78.8957601925338281
     EvdW =       -0.2986226041735853
      Exc =     -289.8338884657119934
 Exc_core =        4.1634125372472548
       KE =      670.8580233835922400
-------------------------------------
     Etot =    -2952.2228382852763389
       TS =        0.0005888287190969
-------------------------------------
        F =    -2952.2234271139955126


Dumping 'jdft.fillings' ... done
Dumping 'jdft.wfns' ... done
Dumping 'jdft.ionpos' ... done
Dumping 'jdft.lattice' ... done
Dumping 'jdft.eigenvals' ... done
Dumping 'jdft.eigStats' ... 
	eMin: -3.264702 at state 45 ( [ +0.000000 +0.000000 +0.000000 ] spin -1 )
	HOMO: +0.118850 at state 33 ( [ -0.333333 -0.400000 +0.000000 ] spin 1 )
	mu  : +0.120044
	LUMO: +0.120341 at state 87 ( [ -0.111111 +0.400000 +0.000000 ] spin -1 )
	eMax: +0.418468 at state 45 ( [ +0.000000 +0.000000 +0.000000 ] spin -1 )
	HOMO-LUMO gap: +0.001491
	Optical gap  : +0.007972 at state 78 ( [ -0.333333 -0.400000 +0.000000 ] spin -1 )
Dumping 'jdft.Ecomponents' ... done
IonicMinimize: Iter:   1  F: -2952.223427113995513  |grad|_K:  1.465e-03  alpha:  3.000e+00  linmin: -9.952e-01  t[s]:   7283.89

#--- Lowdin population analysis ---
# oxidation-state Ag +0.001 -0.049 -0.002 +0.001 +0.005 +0.000 -0.024 -0.065 +0.030 +0.153 -0.065 -0.024 +0.000 +0.005 +0.001 -0.002 -0.049 +0.001 +0.154 +0.029
# magnetic-moments Ag -0.000 -0.000 +0.000 +0.000 -0.000 +0.000 -0.000 -0.000 +0.000 +0.000 -0.000 +0.000 -0.000 -0.000 -0.000 -0.000 -0.000 -0.000 +0.000 +0.000


Computing DFT-D3 correction:
# coordination-number Ag 6.876 9.066 9.078 9.167 9.171 9.120 9.105 8.308 6.100 4.801 8.300 9.099 9.114 9.169 9.170 9.084 9.074 6.883 4.801 6.100
# diagonal-C6 Ag 268.61 268.61 268.61 268.61 268.61 268.61 268.61 268.61 268.61 268.61 268.61 268.61 268.61 268.61 268.61 268.61 268.61 268.61 268.61 268.61
EvdW_6 =   -0.125290
EvdW_8 =   -0.172518

-------- Electronic minimization -----------
	FillingsUpdate:  mu: +0.289427431  nElectrons: 380.000000  magneticMoment: [ Abs: 0.00000  Tot: -0.00000 ]
ElecMinimize: Iter:   0  F: -2949.987653250598669  |grad|_K:  1.145e-04  alpha:  1.000e+00
	FillingsUpdate:  mu: +0.061190675  nElectrons: 380.000000  magneticMoment: [ Abs: 0.00000  Tot: +0.00000 ]
	SubspaceRotationAdjust: set factor to 0.115
ElecMinimize: Iter:   1  F: -2951.971802007288261  |grad|_K:  3.470e-05  alpha:  2.741e-01  linmin:  1.013e-02  t[s]:   7478.00
	FillingsUpdate:  mu: +0.082927018  nElectrons: 380.000000  magneticMoment: [ Abs: 0.00000  Tot: +0.00000 ]
	SubspaceRotationAdjust: set factor to 0.159
ElecMinimize: Iter:   2  F: -2952.146429604936202  |grad|_K:  1.102e-05  alpha:  2.610e-01  linmin: -1.023e-04  t[s]:   7585.65
	FillingsUpdate:  mu: +0.114541731  nElectrons: 380.000000  magneticMoment: [ Abs: 0.00000  Tot: +0.00000 ]
	SubspaceRotationAdjust: set factor to 0.209
ElecMinimize: Iter:   3  F: -2952.170672921035475  |grad|_K:  6.287e-06  alpha:  3.349e-01  linmin: -6.705e-05  t[s]:   7694.02
	FillingsUpdate:  mu: +0.122900792  nElectrons: 380.000000  magneticMoment: [ Abs: 0.00000  Tot: +0.00000 ]
	SubspaceRotationAdjust: set factor to 0.27
ElecMinimize: Iter:   4  F: -2952.183182887673411  |grad|_K:  6.501e-06  alpha:  5.309e-01  linmin: -5.061e-07  t[s]:   7802.46
	FillingsUpdate:  mu: +0.118044557  nElectrons: 380.000000  magneticMoment: [ Abs: 0.00000  Tot: +0.00000 ]
	SubspaceRotationAdjust: set factor to 0.34
ElecMinimize: Iter:   5  F: -2952.198094505824429  |grad|_K:  6.090e-06  alpha:  5.924e-01  linmin: -3.903e-05  t[s]:   7910.79
	FillingsUpdate:  mu: +0.130892122  nElectrons: 380.000000  magneticMoment: [ Abs: 0.00000  Tot: +0.00000 ]
	SubspaceRotationAdjust: set factor to 0.364
ElecMinimize: Iter:   6  F: -2952.210307567666405  |grad|_K:  6.200e-06  alpha:  5.482e-01  linmin:  2.462e-06  t[s]:   8019.27
	FillingsUpdate:  mu: +0.123780937  nElectrons: 380.000000  magneticMoment: [ Abs: 0.00000  Tot: +0.00000 ]
	SubspaceRotationAdjust: set factor to 0.285
ElecMinimize: Iter:   7  F: -2952.216402657205435  |grad|_K:  6.636e-06  alpha:  2.657e-01  linmin: -9.421e-06  t[s]:   8127.34
	FillingsUpdate:  mu: +0.117225918  nElectrons: 380.000000  magneticMoment: [ Abs: 0.00000  Tot: +0.00000 ]
	SubspaceRotationAdjust: set factor to 0.18
ElecMinimize: Iter:   8  F: -2952.220207797934563  |grad|_K:  3.719e-06  alpha:  1.444e-01  linmin: -4.437e-06  t[s]:   8235.77
	FillingsUpdate:  mu: +0.119069023  nElectrons: 380.000000  magneticMoment: [ Abs: 0.00000  Tot: +0.00000 ]
	SubspaceRotationAdjust: set factor to 0.211
ElecMinimize: Iter:   9  F: -2952.222991412357260  |grad|_K:  2.166e-06  alpha:  3.382e-01  linmin:  4.312e-06  t[s]:   8344.71
	FillingsUpdate:  mu: +0.120987921  nElectrons: 380.000000  magneticMoment: [ Abs: 0.00000  Tot: +0.00000 ]
	SubspaceRotationAdjust: set factor to 0.183
ElecMinimize: Iter:  10  F: -2952.223907077000604  |grad|_K:  1.677e-06  alpha:  3.284e-01  linmin:  3.700e-06  t[s]:   8453.02
	FillingsUpdate:  mu: +0.120486256  nElectrons: 380.000000  magneticMoment: [ Abs: 0.00000  Tot: +0.00000 ]
	SubspaceRotationAdjust: set factor to 0.139
ElecMinimize: Iter:  11  F: -2952.224313890700614  |grad|_K:  1.140e-06  alpha:  2.432e-01  linmin:  9.217e-07  t[s]:   8561.35
	FillingsUpdate:  mu: +0.119204771  nElectrons: 380.000000  magneticMoment: [ Abs: 0.00000  Tot: +0.00000 ]
	SubspaceRotationAdjust: set factor to 0.175
ElecMinimize: Iter:  12  F: -2952.224556736161958  |grad|_K:  7.099e-07  alpha:  3.145e-01  linmin: -1.066e-06  t[s]:   8669.37
	FillingsUpdate:  mu: +0.119257066  nElectrons: 380.000000  magneticMoment: [ Abs: 0.00000  Tot: +0.00000 ]
	SubspaceRotationAdjust: set factor to 0.188
ElecMinimize: Iter:  13  F: -2952.224676269542670  |grad|_K:  5.846e-07  alpha:  3.989e-01  linmin: -5.914e-07  t[s]:   8777.71
	FillingsUpdate:  mu: +0.119531163  nElectrons: 380.000000  magneticMoment: [ Abs: 0.00000  Tot: +0.00000 ]
	SubspaceRotationAdjust: set factor to 0.187
ElecMinimize: Iter:  14  F: -2952.224742433716983  |grad|_K:  5.388e-07  alpha:  3.256e-01  linmin: -2.965e-08  t[s]:   8885.89
	FillingsUpdate:  mu: +0.119545117  nElectrons: 380.000000  magneticMoment: [ Abs: 0.00000  Tot: +0.00000 ]
	SubspaceRotationAdjust: set factor to 0.233
ElecMinimize: Iter:  15  F: -2952.224810182237434  |grad|_K:  4.526e-07  alpha:  3.925e-01  linmin: -9.916e-07  t[s]:   8993.85
	FillingsUpdate:  mu: +0.119244087  nElectrons: 380.000000  magneticMoment: [ Abs: 0.00000  Tot: +0.00000 ]
	SubspaceRotationAdjust: set factor to 0.281
ElecMinimize: Iter:  16  F: -2952.224877951538019  |grad|_K:  4.601e-07  alpha:  5.561e-01  linmin: -3.450e-06  t[s]:   9101.94
	FillingsUpdate:  mu: +0.119572266  nElectrons: 380.000000  magneticMoment: [ Abs: 0.00000  Tot: +0.00000 ]
	SubspaceRotationAdjust: set factor to 0.245
ElecMinimize: Iter:  17  F: -2952.224917808132886  |grad|_K:  4.996e-07  alpha:  3.165e-01  linmin:  4.496e-07  t[s]:   9209.84
	FillingsUpdate:  mu: +0.119930891  nElectrons: 380.000000  magneticMoment: [ Abs: 0.00000  Tot: +0.00000 ]
	SubspaceRotationAdjust: set factor to 0.184
ElecMinimize: Iter:  18  F: -2952.224951272044109  |grad|_K:  3.526e-07  alpha:  2.256e-01  linmin: -1.429e-07  t[s]:   9318.08
	FillingsUpdate:  mu: +0.119716921  nElectrons: 380.000000  magneticMoment: [ Abs: 0.00000  Tot: +0.00000 ]
	SubspaceRotationAdjust: set factor to 0.194
ElecMinimize: Iter:  19  F: -2952.224979564709884  |grad|_K:  2.442e-07  alpha:  3.825e-01  linmin: -2.403e-06  t[s]:   9426.51
	FillingsUpdate:  mu: +0.119522573  nElectrons: 380.000000  magneticMoment: [ Abs: 0.00000  Tot: +0.00000 ]
	SubspaceRotationAdjust: set factor to 0.189
ElecMinimize: Iter:  20  F: -2952.224993651873319  |grad|_K:  1.839e-07  alpha:  3.970e-01  linmin: -1.870e-07  t[s]:   9534.98
	FillingsUpdate:  mu: +0.119578020  nElectrons: 380.000000  magneticMoment: [ Abs: 0.00000  Tot: -0.00000 ]
	SubspaceRotationAdjust: set factor to 0.154
ElecMinimize: Iter:  21  F: -2952.224999799361285  |grad|_K:  1.483e-07  alpha:  3.056e-01  linmin: -6.749e-07  t[s]:   9643.26
	FillingsUpdate:  mu: +0.119652439  nElectrons: 380.000000  magneticMoment: [ Abs: 0.00000  Tot: -0.00000 ]
	SubspaceRotationAdjust: set factor to 0.146
ElecMinimize: Iter:  22  F: -2952.225003596290662  |grad|_K:  9.531e-08  alpha:  2.901e-01  linmin: -2.152e-06  t[s]:   9751.40
	FillingsUpdate:  mu: +0.119627946  nElectrons: 380.000000  magneticMoment: [ Abs: 0.00000  Tot: -0.00000 ]
	SubspaceRotationAdjust: set factor to 0.191
ElecMinimize: Iter:  23  F: -2952.225005797928134  |grad|_K:  7.099e-08  alpha:  4.075e-01  linmin:  2.475e-06  t[s]:   9859.75
	FillingsUpdate:  mu: +0.119605158  nElectrons: 380.000000  magneticMoment: [ Abs: 0.00000  Tot: -0.00000 ]
	SubspaceRotationAdjust: set factor to 0.191
ElecMinimize: Iter:  24  F: -2952.225006944508550  |grad|_K:  6.462e-08  alpha:  3.827e-01  linmin:  1.856e-06  t[s]:   9968.15
	FillingsUpdate:  mu: +0.119604898  nElectrons: 380.000000  magneticMoment: [ Abs: 0.00000  Tot: -0.00000 ]
	SubspaceRotationAdjust: set factor to 0.206
ElecMinimize: Iter:  25  F: -2952.225007797443595  |grad|_K:  5.869e-08  alpha:  3.436e-01  linmin: -8.014e-07  t[s]:  10076.21
	FillingsUpdate:  mu: +0.119610726  nElectrons: 380.000000  magneticMoment: [ Abs: 0.00000  Tot: -0.00000 ]
	SubspaceRotationAdjust: set factor to 0.253
ElecMinimize: Iter:  26  F: -2952.225008692186748  |grad|_K:  5.160e-08  alpha:  4.369e-01  linmin:  1.671e-06  t[s]:  10185.31
	FillingsUpdate:  mu: +0.119586874  nElectrons: 380.000000  magneticMoment: [ Abs: 0.00000  Tot: -0.00000 ]
	SubspaceRotationAdjust: set factor to 0.297
ElecMinimize: Iter:  27  F: -2952.225009484600378  |grad|_K:  4.891e-08  alpha:  5.007e-01  linmin:  5.166e-07  t[s]:  10293.22
	FillingsUpdate:  mu: +0.119579666  nElectrons: 380.000000  magneticMoment: [ Abs: 0.00000  Tot: -0.00000 ]
	SubspaceRotationAdjust: set factor to 0.279
ElecMinimize: Iter:  28  F: -2952.225010039468998  |grad|_K:  5.168e-08  alpha:  3.904e-01  linmin: -2.446e-07  t[s]:  10401.16
	FillingsUpdate:  mu: +0.119589869  nElectrons: 380.000000  magneticMoment: [ Abs: 0.00000  Tot: -0.00000 ]
	SubspaceRotationAdjust: set factor to 0.195
ElecMinimize: Iter:  29  F: -2952.225010333242608  |grad|_K:  3.988e-08  alpha:  1.850e-01  linmin: -1.273e-07  t[s]:  10509.34
	FillingsUpdate:  mu: +0.119609098  nElectrons: 380.000000  magneticMoment: [ Abs: 0.00000  Tot: -0.00000 ]
	SubspaceRotationAdjust: set factor to 0.196
ElecMinimize: Iter:  30  F: -2952.225010631864279  |grad|_K:  2.698e-08  alpha:  3.166e-01  linmin:  4.078e-06  t[s]:  10617.24
	FillingsUpdate:  mu: +0.119600379  nElectrons: 380.000000  magneticMoment: [ Abs: 0.00000  Tot: -0.00000 ]
	SubspaceRotationAdjust: set factor to 0.21
ElecMinimize: Iter:  31  F: -2952.225010808649131  |grad|_K:  2.164e-08  alpha:  4.094e-01  linmin:  1.186e-05  t[s]:  10725.27
	FillingsUpdate:  mu: +0.119595242  nElectrons: 380.000000  magneticMoment: [ Abs: 0.00000  Tot: -0.00000 ]
	SubspaceRotationAdjust: set factor to 0.187
ElecMinimize: Iter:  32  F: -2952.225010890897465  |grad|_K:  1.786e-08  alpha:  2.969e-01  linmin: -2.818e-06  t[s]:  10833.73
	FillingsUpdate:  mu: +0.119600342  nElectrons: 380.000000  magneticMoment: [ Abs: 0.00000  Tot: -0.00000 ]
	SubspaceRotationAdjust: set factor to 0.192
ElecMinimize: Iter:  33  F: -2952.225010945629037  |grad|_K:  1.337e-08  alpha:  2.892e-01  linmin:  8.514e-06  t[s]:  10941.83
ElecMinimize: Converged (|Delta F|<1.000000e-07 for 2 iters).
Setting wave functions to eigenvectors of Hamiltonian
Converging empty states (this may take a while): |deigs|: 1.390e-05

Computing DFT-D3 correction:
# coordination-number Ag 6.876 9.066 9.078 9.167 9.171 9.120 9.105 8.308 6.100 4.801 8.300 9.099 9.114 9.169 9.170 9.084 9.074 6.883 4.801 6.100
# diagonal-C6 Ag 268.61 268.61 268.61 268.61 268.61 268.61 268.61 268.61 268.61 268.61 268.61 268.61 268.61 268.61 268.61 268.61 268.61 268.61 268.61 268.61
EvdW_6 =   -0.125290
EvdW_8 =   -0.172518

# Ionic positions in cartesian coordinates:
ion Ag   0.000103090087866   4.862547473961095  21.323935814095918 1
ion Ag  -0.000029354858742   9.685444995036368  18.800877101290180 1
ion Ag   0.000007433351990   2.409242627147226  16.362311329321042 1
ion Ag  -0.000046225090792   7.286747923304899  13.954498404034323 1
ion Ag  -0.000017378802511  12.108575686017561  11.501555761611490 1
ion Ag   0.000130989060062   4.841147785558585   9.076513642480979 1
ion Ag  -0.000057813427759   9.707364891557717   6.657579895465886 1
ion Ag   0.000019516429192   2.354620691776006   4.149495623523752 1
ion Ag   0.000080378996345   7.330854285095090   1.770672028984742 1
ion Ag  -0.000161854703969  -0.024376206620613  23.568107630075755 1
ion Ag   3.832838933334076   1.283392435999604  20.092740211410991 1
ion Ag   3.832867109811076   6.047931476330536  17.582378533276863 1
ion Ag   3.832689915081950  10.916278541948776  15.163375868497820 1
ion Ag   3.832836549341334   3.647029092672508  12.736504690579732 1
ion Ag   3.832900617144459   8.470317151753758  10.284606930069593 1
ion Ag   3.832848277259860   1.227150908829447   7.877577879523731 1
ion Ag   3.832827155419227   6.069577501040222   5.439926479192863 1
ion Ag   3.832737810804841  10.894970535176157   2.919018451600819 1
ion Ag   3.832934812701435   3.657304298388471   0.675417545356303 1
ion Ag   3.832830038060057   8.428737905026585  22.472604179607238 1

# Forces in Cartesian coordinates:
force Ag   0.000001859166933   0.000341962446487   0.001659332591008 1
force Ag  -0.000001665889265  -0.000363654474591   0.000485036108216 1
force Ag  -0.000001421510018   0.000361895294654   0.000399932121715 1
force Ag  -0.000000176207434  -0.000172697734674  -0.000107088720750 1
force Ag   0.000001411431541   0.000035154390054   0.000162469821190 1
force Ag   0.000000728362866  -0.000037763061387   0.000180909927984 1
force Ag   0.000000301529941   0.000100687761712  -0.000236685537128 1
force Ag  -0.000000438832238  -0.000479074812831  -0.000832489818441 1
force Ag  -0.000002120768484   0.000242935490473  -0.000872953599037 1
force Ag  -0.000000293396554  -0.001048077879277   0.000204126657831 1
force Ag  -0.000001478598832   0.000488334954645   0.000849825862932 1
force Ag   0.000000923067943  -0.000074105042276   0.000338295658244 1
force Ag  -0.000000149016812   0.000075398795662  -0.000035684736910 1
force Ag   0.000000053620286  -0.000024422153259   0.000034265794036 1
force Ag  -0.000000766133066   0.000199074606185   0.000261654128930 1
force Ag   0.000000096026904  -0.000348095184960  -0.000295213412004 1
force Ag   0.000003454616609   0.000378977192432  -0.000461314641268 1
force Ag   0.000000585722436  -0.000267418390630  -0.001627411024623 1
force Ag   0.000003690699735   0.001145132106376  -0.000293397917581 1
force Ag  -0.000000471924705  -0.000239630743751   0.000779924239386 1

# Energy components:
   Eewald =    24127.0088001903168333
       EH =    26791.5667558102140902
     Eloc =   -54334.5691157416513306
      Enl =       78.8968431092780520
     EvdW =       -0.2978080352399974
      Exc =     -289.8213149138620111
 Exc_core =        4.1634135868197077
       KE =      670.8279685082643482
-------------------------------------
     Etot =    -2952.2244574858564192
       TS =        0.0005534597727028
-------------------------------------
        F =    -2952.2250109456290375


Dumping 'jdft.fillings' ... done
Dumping 'jdft.wfns' ... done
Dumping 'jdft.ionpos' ... done
Dumping 'jdft.lattice' ... done
Dumping 'jdft.eigenvals' ... done
Dumping 'jdft.eigStats' ... 
	eMin: -3.264831 at state 0 ( [ +0.000000 +0.000000 +0.000000 ] spin 1 )
	HOMO: +0.118700 at state 63 ( [ +0.333333 -0.400000 +0.000000 ] spin -1 )
	mu  : +0.119600
	LUMO: +0.120000 at state 43 ( [ -0.111111 -0.400000 +0.000000 ] spin 1 )
	eMax: +0.418579 at state 0 ( [ +0.000000 +0.000000 +0.000000 ] spin 1 )
	HOMO-LUMO gap: +0.001300
	Optical gap  : +0.007751 at state 77 ( [ -0.333333 +0.400000 +0.000000 ] spin -1 )
Dumping 'jdft.Ecomponents' ... done
IonicMinimize: Iter:   2  F: -2952.225010945629037  |grad|_K:  4.673e-04  alpha:  7.914e-01  linmin: -7.263e-01  t[s]:  11240.06

#--- Lowdin population analysis ---
# oxidation-state Ag +0.001 -0.047 +0.001 +0.000 +0.004 +0.000 -0.022 -0.064 +0.032 +0.146 -0.064 -0.022 +0.000 +0.005 +0.000 +0.001 -0.048 +0.000 +0.145 +0.032
# magnetic-moments Ag -0.000 +0.000 -0.000 +0.000 -0.000 -0.000 +0.000 +0.000 +0.000 -0.000 +0.000 +0.000 -0.000 -0.000 +0.000 -0.000 -0.000 -0.000 -0.000 +0.000


Computing DFT-D3 correction:
# coordination-number Ag 6.823 9.007 9.013 9.147 9.146 9.056 9.051 8.227 6.108 4.836 8.226 9.054 9.058 9.146 9.146 9.012 9.005 6.825 4.834 6.115
# diagonal-C6 Ag 268.61 268.61 268.61 268.61 268.61 268.61 268.61 268.61 268.61 268.61 268.61 268.61 268.61 268.61 268.61 268.61 268.61 268.61 268.61 268.61
EvdW_6 =   -0.124955
EvdW_8 =   -0.172103

-------- Electronic minimization -----------
	FillingsUpdate:  mu: +0.242344360  nElectrons: 380.000000  magneticMoment: [ Abs: 0.00000  Tot: +0.00000 ]
ElecMinimize: Iter:   0  F: -2951.517965425290640  |grad|_K:  6.627e-05  alpha:  1.000e+00
	FillingsUpdate:  mu: +0.072514511  nElectrons: 380.000000  magneticMoment: [ Abs: 0.00000  Tot: -0.00000 ]
	SubspaceRotationAdjust: set factor to 0.126
ElecMinimize: Iter:   1  F: -2952.147280793473328  |grad|_K:  1.772e-05  alpha:  2.433e-01  linmin:  1.189e-03  t[s]:  11434.27
	FillingsUpdate:  mu: +0.103156703  nElectrons: 380.000000  magneticMoment: [ Abs: 0.00000  Tot: -0.00000 ]
	SubspaceRotationAdjust: set factor to 0.199
ElecMinimize: Iter:   2  F: -2952.202648157060594  |grad|_K:  5.982e-06  alpha:  3.001e-01  linmin:  2.255e-05  t[s]:  11542.21
	FillingsUpdate:  mu: +0.114072313  nElectrons: 380.000000  magneticMoment: [ Abs: 0.00000  Tot: -0.00000 ]
	SubspaceRotationAdjust: set factor to 0.217
ElecMinimize: Iter:   3  F: -2952.209624185614302  |grad|_K:  3.892e-06  alpha:  3.279e-01  linmin: -3.048e-05  t[s]:  11650.35
	FillingsUpdate:  mu: +0.120407514  nElectrons: 380.000000  magneticMoment: [ Abs: 0.00000  Tot: -0.00000 ]
	SubspaceRotationAdjust: set factor to 0.179
ElecMinimize: Iter:   4  F: -2952.213457516754715  |grad|_K:  3.972e-06  alpha:  4.247e-01  linmin: -1.526e-05  t[s]:  11758.45
	FillingsUpdate:  mu: +0.121342975  nElectrons: 380.000000  magneticMoment: [ Abs: 0.00000  Tot: -0.00000 ]
	SubspaceRotationAdjust: set factor to 0.151
ElecMinimize: Iter:   5  F: -2952.216793136236902  |grad|_K:  3.698e-06  alpha:  3.551e-01  linmin: -5.139e-06  t[s]:  11866.82
	FillingsUpdate:  mu: +0.121348681  nElectrons: 380.000000  magneticMoment: [ Abs: 0.00000  Tot: -0.00000 ]
	SubspaceRotationAdjust: set factor to 0.163
ElecMinimize: Iter:   6  F: -2952.220122052889110  |grad|_K:  2.814e-06  alpha:  4.087e-01  linmin: -1.106e-05  t[s]:  11975.41
	FillingsUpdate:  mu: +0.124283534  nElectrons: 380.000000  magneticMoment: [ Abs: 0.00000  Tot: -0.00000 ]
	SubspaceRotationAdjust: set factor to 0.187
ElecMinimize: Iter:   7  F: -2952.222596240200346  |grad|_K:  2.407e-06  alpha:  5.242e-01  linmin:  7.100e-06  t[s]:  12083.78
	FillingsUpdate:  mu: +0.121747917  nElectrons: 380.000000  magneticMoment: [ Abs: 0.00000  Tot: -0.00000 ]
	SubspaceRotationAdjust: set factor to 0.174
ElecMinimize: Iter:   8  F: -2952.224082091913260  |grad|_K:  1.948e-06  alpha:  4.324e-01  linmin: -1.565e-06  t[s]:  12191.92
	FillingsUpdate:  mu: +0.119711739  nElectrons: 380.000000  magneticMoment: [ Abs: 0.00000  Tot: -0.00000 ]
	SubspaceRotationAdjust: set factor to 0.114
ElecMinimize: Iter:   9  F: -2952.224659196787798  |grad|_K:  1.317e-06  alpha:  2.556e-01  linmin: -3.530e-07  t[s]:  12300.12
	FillingsUpdate:  mu: +0.119372024  nElectrons: 380.000000  magneticMoment: [ Abs: 0.00000  Tot: -0.00000 ]
	SubspaceRotationAdjust: set factor to 0.113
ElecMinimize: Iter:  10  F: -2952.225038945706729  |grad|_K:  8.223e-07  alpha:  3.681e-01  linmin:  2.949e-06  t[s]:  12408.49
	FillingsUpdate:  mu: +0.120139991  nElectrons: 380.000000  magneticMoment: [ Abs: 0.00000  Tot: -0.00000 ]
	SubspaceRotationAdjust: set factor to 0.117
ElecMinimize: Iter:  11  F: -2952.225196328204675  |grad|_K:  5.216e-07  alpha:  3.916e-01  linmin:  3.548e-07  t[s]:  12516.78
	FillingsUpdate:  mu: +0.120087208  nElectrons: 380.000000  magneticMoment: [ Abs: 0.00000  Tot: -0.00000 ]
	SubspaceRotationAdjust: set factor to 0.0974
ElecMinimize: Iter:  12  F: -2952.225254499064249  |grad|_K:  3.176e-07  alpha:  3.596e-01  linmin:  5.407e-07  t[s]:  12624.86
	FillingsUpdate:  mu: +0.119523323  nElectrons: 380.000000  magneticMoment: [ Abs: 0.00000  Tot: -0.00000 ]
	SubspaceRotationAdjust: set factor to 0.0901
ElecMinimize: Iter:  13  F: -2952.225278534469453  |grad|_K:  2.029e-07  alpha:  4.009e-01  linmin:  1.325e-06  t[s]:  12733.19
	FillingsUpdate:  mu: +0.119432835  nElectrons: 380.000000  magneticMoment: [ Abs: 0.00000  Tot: -0.00000 ]
	SubspaceRotationAdjust: set factor to 0.0969
ElecMinimize: Iter:  14  F: -2952.225287635431414  |grad|_K:  1.284e-07  alpha:  3.720e-01  linmin:  1.351e-06  t[s]:  12842.97
	FillingsUpdate:  mu: +0.119524242  nElectrons: 380.000000  magneticMoment: [ Abs: 0.00000  Tot: -0.00000 ]
	SubspaceRotationAdjust: set factor to 0.0935
ElecMinimize: Iter:  15  F: -2952.225291508332248  |grad|_K:  8.153e-08  alpha:  3.950e-01  linmin: -8.092e-07  t[s]:  12951.66
	FillingsUpdate:  mu: +0.119469131  nElectrons: 380.000000  magneticMoment: [ Abs: 0.00000  Tot: -0.00000 ]
	SubspaceRotationAdjust: set factor to 0.0968
ElecMinimize: Iter:  16  F: -2952.225293171935391  |grad|_K:  5.301e-08  alpha:  4.208e-01  linmin: -1.122e-05  t[s]:  13059.67
	FillingsUpdate:  mu: +0.119419159  nElectrons: 380.000000  magneticMoment: [ Abs: 0.00000  Tot: -0.00000 ]
	SubspaceRotationAdjust: set factor to 0.113
ElecMinimize: Iter:  17  F: -2952.225293848329784  |grad|_K:  3.810e-08  alpha:  4.044e-01  linmin:  4.208e-06  t[s]:  13167.98
	FillingsUpdate:  mu: +0.119413506  nElectrons: 380.000000  magneticMoment: [ Abs: 0.00000  Tot: -0.00000 ]
	SubspaceRotationAdjust: set factor to 0.133
ElecMinimize: Iter:  18  F: -2952.225294225430844  |grad|_K:  2.756e-08  alpha:  4.370e-01  linmin: -2.253e-05  t[s]:  13276.46
	FillingsUpdate:  mu: +0.119402881  nElectrons: 380.000000  magneticMoment: [ Abs: 0.00000  Tot: -0.00000 ]
	SubspaceRotationAdjust: set factor to 0.154
ElecMinimize: Iter:  19  F: -2952.225294453797233  |grad|_K:  2.535e-08  alpha:  5.053e-01  linmin: -1.106e-08  t[s]:  13384.84
	FillingsUpdate:  mu: +0.119371907  nElectrons: 380.000000  magneticMoment: [ Abs: 0.00000  Tot: -0.00000 ]
	SubspaceRotationAdjust: set factor to 0.181
ElecMinimize: Iter:  20  F: -2952.225294653630954  |grad|_K:  2.309e-08  alpha:  5.228e-01  linmin:  2.674e-06  t[s]:  13493.06
	FillingsUpdate:  mu: +0.119354457  nElectrons: 380.000000  magneticMoment: [ Abs: 0.00000  Tot: -0.00000 ]
	SubspaceRotationAdjust: set factor to 0.21
ElecMinimize: Iter:  21  F: -2952.225294823751938  |grad|_K:  2.081e-08  alpha:  5.378e-01  linmin:  1.159e-06  t[s]:  13601.12
	FillingsUpdate:  mu: +0.119364327  nElectrons: 380.000000  magneticMoment: [ Abs: 0.00000  Tot: -0.00000 ]
	SubspaceRotationAdjust: set factor to 0.228
ElecMinimize: Iter:  22  F: -2952.225294941430548  |grad|_K:  1.688e-08  alpha:  4.556e-01  linmin:  5.393e-08  t[s]:  13709.57
	FillingsUpdate:  mu: +0.119359789  nElectrons: 380.000000  magneticMoment: [ Abs: 0.00000  Tot: -0.00000 ]
	SubspaceRotationAdjust: set factor to 0.215
ElecMinimize: Iter:  23  F: -2952.225295011377511  |grad|_K:  1.400e-08  alpha:  4.134e-01  linmin: -2.425e-05  t[s]:  13818.02
	FillingsUpdate:  mu: +0.119352547  nElectrons: 380.000000  magneticMoment: [ Abs: 0.00000  Tot: -0.00000 ]
	SubspaceRotationAdjust: set factor to 0.156
ElecMinimize: Iter:  24  F: -2952.225295041933350  |grad|_K:  1.129e-08  alpha:  2.622e-01  linmin: -4.528e-06  t[s]:  13926.52
ElecMinimize: Converged (|Delta F|<1.000000e-07 for 2 iters).
Setting wave functions to eigenvectors of Hamiltonian
Converging empty states (this may take a while): |deigs|: 1.853e-06

Computing DFT-D3 correction:
# coordination-number Ag 6.823 9.007 9.013 9.147 9.146 9.056 9.051 8.227 6.108 4.836 8.226 9.054 9.058 9.146 9.146 9.012 9.005 6.825 4.834 6.115
# diagonal-C6 Ag 268.61 268.61 268.61 268.61 268.61 268.61 268.61 268.61 268.61 268.61 268.61 268.61 268.61 268.61 268.61 268.61 268.61 268.61 268.61 268.61
EvdW_6 =   -0.124955
EvdW_8 =   -0.172103

# Ionic positions in cartesian coordinates:
ion Ag   0.000169987772811   4.875633384005808  21.385244858238860 1
ion Ag  -0.000088015891094   9.673596070331479  18.816445064150887 1
ion Ag  -0.000039906059591   2.417478540662007  16.378088997262516 1
ion Ag  -0.000059780936795   7.283106022179778  13.952890174507719 1
ion Ag   0.000012115608779  12.108064756017507  11.504195914738514 1
ion Ag   0.000159524577535   4.837783641175404   9.075671036262049 1
ion Ag  -0.000059597568952   9.711569045285895   6.645753254680080 1
ion Ag   0.000009463233569   2.332996237695982   4.116008972987383 1
ion Ag   0.000025474146071   7.344703333255168   1.738544258846477 1
ion Ag  -0.000205880900798  -0.060873877490788  23.567749362773927 1
ion Ag   3.832788072484747   1.304701285951828  20.125190162869767 1
ion Ag   3.832890260080680   6.043455201510873  17.595271678118294 1
ion Ag   3.832664882308038  10.919783519674992  15.166608152291030 1
ion Ag   3.832834581922166   3.646846592800774  12.737460122933745 1
ion Ag   3.832877204452251   8.473818546167120  10.288744856567261 1
ion Ag   3.832850488334597   1.218358169178448   7.862974217209073 1
ion Ag   3.832925008847381   6.080743829379131   5.423199755318590 1
ion Ag   3.832731735759571  10.883138176913096   2.857282303653603 1
ion Ag   3.833050617692674   3.695432733582891   0.671780531280445 1
ion Ag   3.832803764136358   8.414524791722602  22.500594325309798 1

# Forces in Cartesian coordinates:
force Ag  -0.000003575294195  -0.000620239793854   0.000885843361963 1
force Ag   0.000000590722466   0.000177915055215  -0.000346415542441 1
force Ag   0.000000843431763  -0.000182512817607   0.000789859905778 1
force Ag  -0.000000526203476   0.000075834076488   0.000429755502882 1
force Ag  -0.000000991668408   0.000207635751128   0.000123449803346 1
force Ag  -0.000000695520576  -0.000023225447724  -0.000744062040175 1
force Ag   0.000002107097294  -0.000251094893685  -0.000278263788412 1
force Ag   0.000003453737230   0.000370683951854   0.000037915234408 1
force Ag   0.000000293839323  -0.000149985815574  -0.000300729967808 1
force Ag   0.000000393023503  -0.000242486926415   0.000872881365190 1
force Ag   0.000001096001431  -0.000343435936267   0.000031893394579 1
force Ag  -0.000002011964318   0.000249792010801   0.000383001898586 1
force Ag   0.000001755610697   0.000020315872207   0.000867505771210 1
force Ag   0.000000308074445  -0.000168975978540  -0.000003369319556 1
force Ag   0.000000963621622  -0.000091225770982  -0.000299695768373 1
force Ag   0.000000320570558   0.000220774716928  -0.000608831383699 1
force Ag  -0.000002321865975  -0.000144437881522   0.000438797273849 1
force Ag   0.000000674011805   0.000602151400118  -0.000814065317084 1
force Ag  -0.000001270566912   0.000450812638303  -0.000823801686300 1
force Ag   0.000002127790791   0.000181065462738   0.000369859513362 1

# Energy components:
   Eewald =    24052.7600058569914836
       EH =    26717.2991876844425860
     Eloc =   -54186.0430747089703800
      Enl =       78.9004027938281638
     EvdW =       -0.2970576930586509
      Exc =     -289.8100699154134077
 Exc_core =        4.1634138422074694
       KE =      670.8024481350087171
-------------------------------------
     Etot =    -2952.2247440049641227
       TS =        0.0005510369690817
-------------------------------------
        F =    -2952.2252950419333501


Dumping 'jdft.fillings' ... done
Dumping 'jdft.wfns' ... done
Dumping 'jdft.ionpos' ... done
Dumping 'jdft.lattice' ... done
Dumping 'jdft.eigenvals' ... done
Dumping 'jdft.eigStats' ... 
	eMin: -3.264889 at state 0 ( [ +0.000000 +0.000000 +0.000000 ] spin 1 )
	HOMO: +0.118639 at state 77 ( [ -0.333333 +0.400000 +0.000000 ] spin -1 )
	mu  : +0.119353
	LUMO: +0.119545 at state 42 ( [ -0.111111 +0.400000 +0.000000 ] spin 1 )
	eMax: +0.418527 at state 45 ( [ +0.000000 +0.000000 +0.000000 ] spin -1 )
	HOMO-LUMO gap: +0.000906
	Optical gap  : +0.007512 at state 18 ( [ +0.333333 -0.400000 +0.000000 ] spin 1 )
Dumping 'jdft.Ecomponents' ... done
IonicMinimize: Iter:   3  F: -2952.225295041933350  |grad|_K:  3.618e-04  alpha:  1.000e+00  linmin: -3.374e-01  t[s]:  14174.84

#--- Lowdin population analysis ---
# oxidation-state Ag +0.003 -0.046 +0.002 -0.000 +0.004 +0.000 -0.022 -0.063 +0.030 +0.143 -0.062 -0.021 +0.001 +0.004 -0.000 +0.001 -0.047 +0.002 +0.142 +0.030
# magnetic-moments Ag +0.000 +0.000 +0.000 +0.000 +0.000 -0.000 -0.000 -0.000 -0.000 -0.000 -0.000 -0.000 -0.000 -0.000 -0.000 -0.000 +0.000 +0.000 +0.000 -0.000


Computing DFT-D3 correction:
# coordination-number Ag 6.723 8.974 8.957 9.091 9.072 9.026 8.975 8.181 6.086 4.853 8.193 8.987 9.032 9.074 9.087 8.947 8.964 6.715 4.848 6.093
# diagonal-C6 Ag 268.61 268.61 268.61 268.61 268.61 268.61 268.61 268.61 268.61 268.61 268.61 268.61 268.61 268.61 268.61 268.61 268.61 268.61 268.61 268.61
EvdW_6 =   -0.124549
EvdW_8 =   -0.171645

-------- Electronic minimization -----------
	FillingsUpdate:  mu: +0.287256191  nElectrons: 380.000000  magneticMoment: [ Abs: 0.00000  Tot: +0.00000 ]
ElecMinimize: Iter:   0  F: -2951.339742643347108  |grad|_K:  7.415e-05  alpha:  1.000e+00
	FillingsUpdate:  mu: +0.081312555  nElectrons: 380.000000  magneticMoment: [ Abs: 0.00000  Tot: +0.00000 ]
	SubspaceRotationAdjust: set factor to 0.11
ElecMinimize: Iter:   1  F: -2952.136826628735889  |grad|_K:  1.859e-05  alpha:  2.486e-01  linmin:  2.426e-03  t[s]:  14368.74
	FillingsUpdate:  mu: +0.095099032  nElectrons: 380.000000  magneticMoment: [ Abs: 0.00000  Tot: -0.00000 ]
	SubspaceRotationAdjust: set factor to 0.18
ElecMinimize: Iter:   2  F: -2952.195784577478662  |grad|_K:  6.636e-06  alpha:  2.929e-01  linmin: -7.131e-06  t[s]:  14477.10
	FillingsUpdate:  mu: +0.112201575  nElectrons: 380.000000  magneticMoment: [ Abs: 0.00000  Tot: -0.00000 ]
	SubspaceRotationAdjust: set factor to 0.229
ElecMinimize: Iter:   3  F: -2952.204827553112409  |grad|_K:  4.066e-06  alpha:  3.453e-01  linmin: -1.599e-05  t[s]:  14585.26
	FillingsUpdate:  mu: +0.123581028  nElectrons: 380.000000  magneticMoment: [ Abs: 0.00000  Tot: -0.00000 ]
	SubspaceRotationAdjust: set factor to 0.268
ElecMinimize: Iter:   4  F: -2952.210049129504114  |grad|_K:  4.300e-06  alpha:  5.303e-01  linmin: -1.340e-05  t[s]:  14693.49
	FillingsUpdate:  mu: +0.120167399  nElectrons: 380.000000  magneticMoment: [ Abs: 0.00000  Tot: -0.00000 ]
	SubspaceRotationAdjust: set factor to 0.237
ElecMinimize: Iter:   5  F: -2952.215173546058395  |grad|_K:  4.619e-06  alpha:  4.654e-01  linmin: -9.991e-06  t[s]:  14801.73
	FillingsUpdate:  mu: +0.119164734  nElectrons: 380.000000  magneticMoment: [ Abs: 0.00000  Tot: -0.00000 ]
	SubspaceRotationAdjust: set factor to 0.179
ElecMinimize: Iter:   6  F: -2952.218150693626740  |grad|_K:  4.079e-06  alpha:  2.354e-01  linmin:  7.647e-06  t[s]:  14909.75
	FillingsUpdate:  mu: +0.123189971  nElectrons: 380.000000  magneticMoment: [ Abs: 0.00000  Tot: -0.00000 ]
	SubspaceRotationAdjust: set factor to 0.183
ElecMinimize: Iter:   7  F: -2952.221894425020309  |grad|_K:  2.777e-06  alpha:  3.797e-01  linmin:  7.412e-06  t[s]:  15018.99
	FillingsUpdate:  mu: +0.121889483  nElectrons: 380.000000  magneticMoment: [ Abs: 0.00000  Tot: -0.00000 ]
	SubspaceRotationAdjust: set factor to 0.208
ElecMinimize: Iter:   8  F: -2952.223937916558498  |grad|_K:  2.112e-06  alpha:  4.470e-01  linmin:  4.437e-06  t[s]:  15127.22
	FillingsUpdate:  mu: +0.119477224  nElectrons: 380.000000  magneticMoment: [ Abs: 0.00000  Tot: -0.00000 ]
	SubspaceRotationAdjust: set factor to 0.174
ElecMinimize: Iter:   9  F: -2952.224748602777709  |grad|_K:  1.403e-06  alpha:  3.062e-01  linmin: -1.928e-07  t[s]:  15235.29
	FillingsUpdate:  mu: +0.119071687  nElectrons: 380.000000  magneticMoment: [ Abs: 0.00000  Tot: -0.00000 ]
	SubspaceRotationAdjust: set factor to 0.12
ElecMinimize: Iter:  10  F: -2952.225060147623481  |grad|_K:  1.029e-06  alpha:  2.663e-01  linmin:  1.414e-06  t[s]:  15343.48
	FillingsUpdate:  mu: +0.119540441  nElectrons: 380.000000  magneticMoment: [ Abs: 0.00000  Tot: -0.00000 ]
	SubspaceRotationAdjust: set factor to 0.124
ElecMinimize: Iter:  11  F: -2952.225257169670840  |grad|_K:  5.952e-07  alpha:  3.129e-01  linmin:  3.425e-06  t[s]:  15451.49
	FillingsUpdate:  mu: +0.119567857  nElectrons: 380.000000  magneticMoment: [ Abs: 0.00000  Tot: -0.00000 ]
	SubspaceRotationAdjust: set factor to 0.132
ElecMinimize: Iter:  12  F: -2952.225329263282674  |grad|_K:  4.058e-07  alpha:  3.424e-01  linmin: -1.553e-06  t[s]:  15559.71
	FillingsUpdate:  mu: +0.119211206  nElectrons: 380.000000  magneticMoment: [ Abs: 0.00000  Tot: -0.00000 ]
	SubspaceRotationAdjust: set factor to 0.124
ElecMinimize: Iter:  13  F: -2952.225362235419652  |grad|_K:  2.640e-07  alpha:  3.366e-01  linmin:  1.969e-06  t[s]:  15668.02
	FillingsUpdate:  mu: +0.118900327  nElectrons: 380.000000  magneticMoment: [ Abs: 0.00000  Tot: -0.00000 ]
	SubspaceRotationAdjust: set factor to 0.142
ElecMinimize: Iter:  14  F: -2952.225377758743434  |grad|_K:  1.930e-07  alpha:  3.745e-01  linmin:  1.626e-06  t[s]:  15776.24
	FillingsUpdate:  mu: +0.118868738  nElectrons: 380.000000  magneticMoment: [ Abs: 0.00000  Tot: -0.00000 ]
	SubspaceRotationAdjust: set factor to 0.173
ElecMinimize: Iter:  15  F: -2952.225385836521127  |grad|_K:  1.480e-07  alpha:  3.646e-01  linmin: -7.281e-07  t[s]:  15885.44
	FillingsUpdate:  mu: +0.118956413  nElectrons: 380.000000  magneticMoment: [ Abs: 0.00000  Tot: -0.00000 ]
	SubspaceRotationAdjust: set factor to 0.188
ElecMinimize: Iter:  16  F: -2952.225391644218689  |grad|_K:  1.392e-07  alpha:  4.456e-01  linmin: -7.297e-07  t[s]:  15993.73
	FillingsUpdate:  mu: +0.118945772  nElectrons: 380.000000  magneticMoment: [ Abs: 0.00000  Tot: -0.00000 ]
	SubspaceRotationAdjust: set factor to 0.204
[...]
	SubspaceRotationAdjust: set factor to 0.233
ElecMinimize: Iter:  18  F: -2952.225618387198210  |grad|_K:  1.276e-07  alpha:  5.236e-01  linmin: -2.547e-07  t[s]:  34268.94
	FillingsUpdate:  mu: +0.118979453  nElectrons: 380.000000  magneticMoment: [ Abs: 0.00000  Tot: +0.00000 ]
	SubspaceRotationAdjust: set factor to 0.199
ElecMinimize: Iter:  19  F: -2952.225622017412206  |grad|_K:  1.291e-07  alpha:  3.752e-01  linmin:  3.936e-10  t[s]:  34377.38
	FillingsUpdate:  mu: +0.118933122  nElectrons: 380.000000  magneticMoment: [ Abs: 0.00000  Tot: +0.00000 ]
	SubspaceRotationAdjust: set factor to 0.144
ElecMinimize: Iter:  20  F: -2952.225624581518787  |grad|_K:  9.301e-08  alpha:  2.586e-01  linmin:  4.765e-08  t[s]:  34485.74
	FillingsUpdate:  mu: +0.118899777  nElectrons: 380.000000  magneticMoment: [ Abs: 0.00000  Tot: +0.00000 ]
	SubspaceRotationAdjust: set factor to 0.151
ElecMinimize: Iter:  21  F: -2952.225626432390982  |grad|_K:  6.110e-08  alpha:  3.598e-01  linmin: -1.354e-06  t[s]:  34594.09
	FillingsUpdate:  mu: +0.118944238  nElectrons: 380.000000  magneticMoment: [ Abs: 0.00000  Tot: +0.00000 ]
	SubspaceRotationAdjust: set factor to 0.152
ElecMinimize: Iter:  22  F: -2952.225627280072786  |grad|_K:  4.398e-08  alpha:  3.818e-01  linmin:  6.008e-06  t[s]:  34702.23
	FillingsUpdate:  mu: +0.118965170  nElectrons: 380.000000  magneticMoment: [ Abs: 0.00000  Tot: +0.00000 ]
	SubspaceRotationAdjust: set factor to 0.132
ElecMinimize: Iter:  23  F: -2952.225627656189772  |grad|_K:  3.156e-08  alpha:  3.276e-01  linmin: -4.266e-06  t[s]:  34811.34
	FillingsUpdate:  mu: +0.118951734  nElectrons: 380.000000  magneticMoment: [ Abs: 0.00000  Tot: -0.00000 ]
	SubspaceRotationAdjust: set factor to 0.143
ElecMinimize: Iter:  24  F: -2952.225627868738229  |grad|_K:  2.264e-08  alpha:  3.580e-01  linmin:  1.046e-05  t[s]:  34919.84
	FillingsUpdate:  mu: +0.118940832  nElectrons: 380.000000  magneticMoment: [ Abs: 0.00000  Tot: -0.00000 ]
	SubspaceRotationAdjust: set factor to 0.187
ElecMinimize: Iter:  25  F: -2952.225627995175273  |grad|_K:  1.767e-08  alpha:  4.163e-01  linmin:  1.974e-05  t[s]:  35028.71
	FillingsUpdate:  mu: +0.118950502  nElectrons: 380.000000  magneticMoment: [ Abs: 0.00000  Tot: +0.00000 ]
	SubspaceRotationAdjust: set factor to 0.188
ElecMinimize: Iter:  26  F: -2952.225628072036216  |grad|_K:  1.715e-08  alpha:  4.154e-01  linmin: -1.274e-05  t[s]:  35137.60
	FillingsUpdate:  mu: +0.118956180  nElectrons: 380.000000  magneticMoment: [ Abs: 0.00000  Tot: +0.00000 ]
	SubspaceRotationAdjust: set factor to 0.202
ElecMinimize: Iter:  27  F: -2952.225628136149680  |grad|_K:  1.582e-08  alpha:  3.665e-01  linmin:  2.784e-05  t[s]:  35246.23
ElecMinimize: Converged (|Delta F|<1.000000e-07 for 2 iters).
Setting wave functions to eigenvectors of Hamiltonian
Converging empty states (this may take a while): |deigs|: 5.150e-07

Computing DFT-D3 correction:
# coordination-number Ag 6.760 8.900 8.873 8.969 8.957 8.924 8.930 8.167 6.054 4.802 8.149 8.913 8.912 8.958 8.974 8.888 8.919 6.767 4.807 6.033
# diagonal-C6 Ag 268.61 268.61 268.61 268.61 268.61 268.61 268.61 268.61 268.61 268.61 268.61 268.61 268.61 268.61 268.61 268.61 268.61 268.61 268.61 268.61
EvdW_6 =   -0.123873
EvdW_8 =   -0.170593

# Ionic positions in cartesian coordinates:
ion Ag  -0.000581378371303   4.754810248738764  21.460895647957418 1
ion Ag  -0.000281574513341   9.597803863960666  18.880673716619363 1
ion Ag  -0.000091076328971   2.359443569646251  16.434316953972537 1
ion Ag   0.000034097649041   7.254820282257596  13.974358750008605 1
ion Ag   0.000054458616669  12.117443197937106  11.498739050715221 1
ion Ag   0.000294039796999   4.877056942749650   9.023427279694607 1
ion Ag   0.000154073574086   9.781369362660332   6.584226273355220 1
ion Ag   0.000614791464563   2.438855996876102   4.030827496533806 1
ion Ag   0.000576604245088   7.455585172707733   1.641754659021031 1
ion Ag  -0.001016809589714  -0.190393731694706  23.675900074783442 1
ion Ag   3.832077652415697   1.199535014792958  20.212846664301480 1
ion Ag   3.832618268527976   5.980194918268507  17.653452335197809 1
ion Ag   3.832607824479421  10.877744656968662  15.215161419640584 1
ion Ag   3.832939823848172   3.632841966845048  12.735369865114787 1
ion Ag   3.832987263044806   8.496724422797016  10.262296713149434 1
ion Ag   3.833084535837299   1.278301199013674   7.801311171023858 1
ion Ag   3.833217809739109   6.163176362962138   5.364413570517097 1
ion Ag   3.833259152941412  11.003472111953695   2.780098357932113 1
ion Ag   3.833693123462809   3.827816017091827   0.569539184344456 1
ion Ag   3.832097319160178   8.298258423466974  22.610088816117148 1

# Forces in Cartesian coordinates:
force Ag   0.000000878615028   0.000140767697677   0.000236235430563 1
force Ag  -0.000007540965206  -0.000128174392290  -0.000140478010321 1
force Ag  -0.000007198328382   0.000153593342007  -0.000128839183990 1
force Ag  -0.000004912637528   0.000037530337280  -0.000320481579127 1
force Ag  -0.000001822944661  -0.000017805252267  -0.000023355006017 1
force Ag   0.000000247746700  -0.000041006312387   0.000269280941764 1
force Ag   0.000003127071565   0.000114516883974   0.000067131689376 1
force Ag  -0.000008008524615   0.000069085154709   0.000141008748229 1
force Ag  -0.000004080904874  -0.000173723539925   0.000303470332568 1
force Ag   0.000002692395883  -0.000051620683421  -0.000474539900771 1
force Ag   0.000014665392096  -0.000112022204222  -0.000336697041882 1
force Ag   0.000006636480870  -0.000184886315415  -0.000032101955883 1
force Ag   0.000006928701138   0.000138597233330  -0.000390170142581 1
force Ag   0.000001368155487   0.000045011522702   0.000037270829005 1
force Ag  -0.000002105596376   0.000179014569465   0.000301592368174 1
force Ag  -0.000001849953741  -0.000205898312238   0.000128517679486 1
force Ag  -0.000003332203000   0.000063074701072  -0.000078791887480 1
force Ag  -0.000003190195927  -0.000236089204778  -0.000409970345076 1
force Ag  -0.000005878211362  -0.000088881706358   0.000363213349962 1
force Ag   0.000005099547651   0.000180083821638  -0.000613968416018 1

# Energy components:
   Eewald =    23800.6087688979459926
       EH =    26465.2965897312606103
     Eloc =   -53681.8613914235975244
      Enl =       78.9222058949331995
     EvdW =       -0.2944666593976332
      Exc =     -289.7716115326692261
 Exc_core =        4.1634153171685639
       KE =      670.7114322998064608
-------------------------------------
     Etot =    -2952.2250574745498852
       TS =        0.0005706615995766
-------------------------------------
        F =    -2952.2256281361496804


Dumping 'jdft.fillings' ... done
Dumping 'jdft.wfns' ... done
Dumping 'jdft.ionpos' ... done
Dumping 'jdft.lattice' ... done
Dumping 'jdft.eigenvals' ... done
Dumping 'jdft.eigStats' ... 
	eMin: -3.264215 at state 0 ( [ +0.000000 +0.000000 +0.000000 ] spin 1 )
	HOMO: +0.118688 at state 77 ( [ -0.333333 +0.400000 +0.000000 ] spin -1 )
	mu  : +0.118956
	LUMO: +0.119738 at state 4 ( [ +0.000000 -0.200000 +0.000000 ] spin 1 )
	eMax: +0.419926 at state 45 ( [ +0.000000 +0.000000 +0.000000 ] spin -1 )
	HOMO-LUMO gap: +0.001050
	Optical gap  : +0.006601 at state 77 ( [ -0.333333 +0.400000 +0.000000 ] spin -1 )
Dumping 'jdft.Ecomponents' ... done
IonicMinimize: Iter:  10  F: -2952.225628136149680  |grad|_K:  1.809e-04  alpha:  1.000e+00  linmin:  3.546e-01  t[s]:  35410.06

#--- Lowdin population analysis ---
# oxidation-state Ag +0.001 -0.045 +0.002 +0.000 +0.005 +0.000 -0.020 -0.062 +0.029 +0.140 -0.063 -0.020 -0.000 +0.005 +0.000 +0.002 -0.045 +0.003 +0.141 +0.029
# magnetic-moments Ag -0.000 -0.000 -0.000 +0.000 -0.000 -0.000 -0.000 +0.000 -0.000 +0.000 +0.000 +0.000 +0.000 +0.000 -0.000 -0.000 -0.000 -0.000 +0.000 +0.000


Computing DFT-D3 correction:
# coordination-number Ag 6.748 8.921 8.893 9.002 8.993 8.942 8.938 8.170 6.072 4.810 8.162 8.931 8.943 8.989 9.005 8.898 8.928 6.750 4.814 6.063
# diagonal-C6 Ag 268.61 268.61 268.61 268.61 268.61 268.61 268.61 268.61 268.61 268.61 268.61 268.61 268.61 268.61 268.61 268.61 268.61 268.61 268.61 268.61
EvdW_6 =   -0.124041
EvdW_8 =   -0.170835

-------- Electronic minimization -----------
	FillingsUpdate:  mu: +0.046983027  nElectrons: 380.000000  magneticMoment: [ Abs: 0.00000  Tot: +0.00000 ]
ElecMinimize: Iter:   0  F: -2951.994816415483456  |grad|_K:  3.702e-05  alpha:  1.000e+00
	FillingsUpdate:  mu: +0.141995630  nElectrons: 380.000000  magneticMoment: [ Abs: 0.00000  Tot: +0.00000 ]
	SubspaceRotationAdjust: set factor to 0.141
ElecMinimize: Iter:   1  F: -2952.196224554390483  |grad|_K:  1.082e-05  alpha:  2.511e-01  linmin:  1.231e-03  t[s]:  35604.25
	FillingsUpdate:  mu: +0.125179236  nElectrons: 380.000000  magneticMoment: [ Abs: 0.00000  Tot: +0.00000 ]
	SubspaceRotationAdjust: set factor to 0.192
ElecMinimize: Iter:   2  F: -2952.217117363908983  |grad|_K:  3.736e-06  alpha:  3.041e-01  linmin:  9.090e-05  t[s]:  35712.62
	FillingsUpdate:  mu: +0.120116302  nElectrons: 380.000000  magneticMoment: [ Abs: 0.00000  Tot: +0.00000 ]
	SubspaceRotationAdjust: set factor to 0.167
ElecMinimize: Iter:   3  F: -2952.219779035287957  |grad|_K:  2.601e-06  alpha:  3.212e-01  linmin:  2.023e-05  t[s]:  35820.93
	FillingsUpdate:  mu: +0.118547049  nElectrons: 380.000000  magneticMoment: [ Abs: 0.00000  Tot: +0.00000 ]
	SubspaceRotationAdjust: set factor to 0.146
ElecMinimize: Iter:   4  F: -2952.221172898206078  |grad|_K:  2.202e-06  alpha:  3.468e-01  linmin:  4.027e-06  t[s]:  35929.53
	FillingsUpdate:  mu: +0.119413076  nElectrons: 380.000000  magneticMoment: [ Abs: 0.00000  Tot: +0.00000 ]
	SubspaceRotationAdjust: set factor to 0.152
ElecMinimize: Iter:   5  F: -2952.222600310004054  |grad|_K:  1.857e-06  alpha:  4.954e-01  linmin:  1.646e-06  t[s]:  36038.69
	FillingsUpdate:  mu: +0.118145507  nElectrons: 380.000000  magneticMoment: [ Abs: 0.00000  Tot: +0.00000 ]
	SubspaceRotationAdjust: set factor to 0.174
ElecMinimize: Iter:   6  F: -2952.223680524255542  |grad|_K:  1.644e-06  alpha:  5.271e-01  linmin: -4.160e-07  t[s]:  36146.82
	FillingsUpdate:  mu: +0.116485780  nElectrons: 380.000000  magneticMoment: [ Abs: 0.00000  Tot: +0.00000 ]
	SubspaceRotationAdjust: set factor to 0.198
ElecMinimize: Iter:   7  F: -2952.224585998504153  |grad|_K:  1.498e-06  alpha:  5.636e-01  linmin: -4.784e-07  t[s]:  36255.75
	FillingsUpdate:  mu: +0.119153605  nElectrons: 380.000000  magneticMoment: [ Abs: 0.00000  Tot: +0.00000 ]
	SubspaceRotationAdjust: set factor to 0.197
ElecMinimize: Iter:   8  F: -2952.225189045777370  |grad|_K:  1.053e-06  alpha:  4.515e-01  linmin:  1.455e-06  t[s]:  36363.95
	FillingsUpdate:  mu: +0.118943889  nElectrons: 380.000000  magneticMoment: [ Abs: 0.00000  Tot: +0.00000 ]
	SubspaceRotationAdjust: set factor to 0.149
ElecMinimize: Iter:   9  F: -2952.225420457691143  |grad|_K:  9.010e-07  alpha:  3.512e-01  linmin:  3.167e-07  t[s]:  36472.13
	FillingsUpdate:  mu: +0.118406114  nElectrons: 380.000000  magneticMoment: [ Abs: 0.00000  Tot: +0.00000 ]
	SubspaceRotationAdjust: set factor to 0.0967
ElecMinimize: Iter:  10  F: -2952.225546061827572  |grad|_K:  5.434e-07  alpha:  2.602e-01  linmin: -3.032e-08  t[s]:  36580.32
	FillingsUpdate:  mu: +0.118519349  nElectrons: 380.000000  magneticMoment: [ Abs: 0.00000  Tot: +0.00000 ]
	SubspaceRotationAdjust: set factor to 0.119
ElecMinimize: Iter:  11  F: -2952.225611160042718  |grad|_K:  3.351e-07  alpha:  3.708e-01  linmin:  3.855e-07  t[s]:  36688.37
	FillingsUpdate:  mu: +0.118690851  nElectrons: 380.000000  magneticMoment: [ Abs: 0.00000  Tot: +0.00000 ]
	SubspaceRotationAdjust: set factor to 0.11
ElecMinimize: Iter:  12  F: -2952.225634672829983  |grad|_K:  1.995e-07  alpha:  3.521e-01  linmin: -1.330e-07  t[s]:  36796.69
	FillingsUpdate:  mu: +0.118892666  nElectrons: 380.000000  magneticMoment: [ Abs: 0.00000  Tot: +0.00000 ]
	SubspaceRotationAdjust: set factor to 0.0877
ElecMinimize: Iter:  13  F: -2952.225644503444073  |grad|_K:  1.260e-07  alpha:  4.153e-01  linmin: -1.058e-07  t[s]:  36905.98
	FillingsUpdate:  mu: +0.118914866  nElectrons: 380.000000  magneticMoment: [ Abs: 0.00000  Tot: +0.00000 ]
	SubspaceRotationAdjust: set factor to 0.084
ElecMinimize: Iter:  14  F: -2952.225647949434460  |grad|_K:  7.968e-08  alpha:  3.651e-01  linmin:  2.197e-06  t[s]:  37014.16
	FillingsUpdate:  mu: +0.118892268  nElectrons: 380.000000  magneticMoment: [ Abs: 0.00000  Tot: +0.00000 ]
	SubspaceRotationAdjust: set factor to 0.0912
ElecMinimize: Iter:  15  F: -2952.225649432632963  |grad|_K:  5.172e-08  alpha:  3.928e-01  linmin: -1.017e-05  t[s]:  37122.64
	FillingsUpdate:  mu: +0.118929321  nElectrons: 380.000000  magneticMoment: [ Abs: 0.00000  Tot: +0.00000 ]
	SubspaceRotationAdjust: set factor to 0.0873
ElecMinimize: Iter:  16  F: -2952.225650061599481  |grad|_K:  3.101e-08  alpha:  3.952e-01  linmin: -8.909e-08  t[s]:  37231.67
	FillingsUpdate:  mu: +0.118952329  nElectrons: 380.000000  magneticMoment: [ Abs: 0.00000  Tot: +0.00000 ]
	SubspaceRotationAdjust: set factor to 0.0972
ElecMinimize: Iter:  17  F: -2952.225650316944211  |grad|_K:  2.150e-08  alpha:  4.475e-01  linmin:  2.993e-05  t[s]:  37340.10
	FillingsUpdate:  mu: +0.118955864  nElectrons: 380.000000  magneticMoment: [ Abs: 0.00000  Tot: +0.00000 ]
	SubspaceRotationAdjust: set factor to 0.117
ElecMinimize: Iter:  18  F: -2952.225650428237259  |grad|_K:  1.533e-08  alpha:  4.060e-01  linmin:  2.951e-05  t[s]:  37449.39
	FillingsUpdate:  mu: +0.118966449  nElectrons: 380.000000  magneticMoment: [ Abs: 0.00000  Tot: +0.00000 ]
	SubspaceRotationAdjust: set factor to 0.137
ElecMinimize: Iter:  19  F: -2952.225650497810875  |grad|_K:  1.318e-08  alpha:  4.958e-01  linmin: -9.386e-05  t[s]:  37557.78
	FillingsUpdate:  mu: +0.118979256  nElectrons: 380.000000  magneticMoment: [ Abs: 0.00000  Tot: +0.00000 ]
	SubspaceRotationAdjust: set factor to 0.164
ElecMinimize: Iter:  20  F: -2952.225650554723416  |grad|_K:  1.248e-08  alpha:  5.441e-01  linmin:  3.402e-05  t[s]:  37666.41
ElecMinimize: Converged (|Delta F|<1.000000e-07 for 2 iters).
Setting wave functions to eigenvectors of Hamiltonian
Converging empty states (this may take a while): |deigs|: 2.534e-07

Computing DFT-D3 correction:
# coordination-number Ag 6.748 8.921 8.893 9.002 8.993 8.942 8.938 8.170 6.072 4.810 8.162 8.931 8.943 8.989 9.005 8.898 8.928 6.750 4.814 6.063
# diagonal-C6 Ag 268.61 268.61 268.61 268.61 268.61 268.61 268.61 268.61 268.61 268.61 268.61 268.61 268.61 268.61 268.61 268.61 268.61 268.61 268.61 268.61
EvdW_6 =   -0.124041
EvdW_8 =   -0.170835

# Ionic positions in cartesian coordinates:
ion Ag  -0.000368159036681   4.774568814629226  21.464149235035929 1
ion Ag  -0.000406067339637   9.604537287263357  18.864297433052617 1
ion Ag  -0.000231353416374   2.368850924367603  16.427842530225497 1
ion Ag  -0.000085885558323   7.261600020125050  13.970883753047033 1
ion Ag  -0.000031434364892  12.117242685902786  11.500460826370174 1
ion Ag   0.000263108957305   4.871094933902397   9.033668255510127 1
ion Ag   0.000235517197478   9.774100818506938   6.595590181718142 1
ion Ag   0.000369037854588   2.424904994920945   4.045739228573007 1
ion Ag   0.000447029121725   7.439628496661092   1.659556739893114 1
ion Ag  -0.000837190441594  -0.174297363002551  23.655738416797337 1
ion Ag   3.832528597757007   1.212853148173505  20.195756567066255 1
ion Ag   3.832774341524486   5.985156255305894  17.645485050379161 1
ion Ag   3.832792498851222  10.886071962737050  15.205836087269370 1
ion Ag   3.832993042323338   3.635577987197025  12.737756506740123 1
ion Ag   3.832929575012196   8.495074456460069  10.269280716851981 1
ion Ag   3.833027887401354   1.267366003801437   7.810736307548459 1
ion Ag   3.833109803561613   6.154098360699066   5.376833963451879 1
ion Ag   3.833060022612908  10.981452903703648   2.775867677947514 1
ion Ag   3.833501598152197   3.808777836565687   0.588464232394218 1
ion Ag   3.832268029830077   8.316199472079774  22.585754290128072 1

# Forces in Cartesian coordinates:
force Ag   0.000002730534815  -0.000261835688440   0.000069481381472 1
force Ag   0.000010554285825  -0.000042122262931   0.000077610750813 1
force Ag   0.000012090337959   0.000115478101043   0.000079279705342 1
force Ag   0.000007260568024  -0.000136030590843  -0.000170063915367 1
force Ag   0.000004888812572   0.000074864284410   0.000010780923547 1
force Ag  -0.000000226327478   0.000026116086258   0.000067323217157 1
force Ag  -0.000005736689595   0.000066968559795  -0.000152547305900 1
force Ag  -0.000001644279352  -0.000005988604155   0.000086337270325 1
force Ag  -0.000004963102251  -0.000218161064017   0.000096946240947 1
force Ag   0.000004941420861  -0.000170344922927  -0.000256748448873 1
force Ag  -0.000009547310670  -0.000060466521791  -0.000099416514235 1
force Ag  -0.000007518646319  -0.000074217817387   0.000085164499982 1
force Ag  -0.000011759916064   0.000021043727119  -0.000053546945871 1
force Ag  -0.000007275188774   0.000059330104842   0.000002508224192 1
force Ag  -0.000000661605662   0.000059261157274   0.000137674590173 1
force Ag  -0.000001303918433   0.000012960211748  -0.000080602491893 1
force Ag  -0.000000181185287   0.000044198148701  -0.000036575243915 1
force Ag   0.000000141913331   0.000256591750970  -0.000080927490231 1
force Ag  -0.000004003074685   0.000106243672055   0.000148556121049 1
force Ag   0.000001172620660   0.000086973073904  -0.000218998883334 1

# Energy components:
   Eewald =    23839.6231711134932993
       EH =    26504.2751773887430318
     Eloc =   -53759.8573109466742608
      Enl =       78.9181521714309184
     EvdW =       -0.2948755966172583
      Exc =     -289.7769566346642591
 Exc_core =        4.1634148443464483
       KE =      670.7241487847870758
-------------------------------------
     Etot =    -2952.2250788751589425
       TS =        0.0005716795644972
-------------------------------------
        F =    -2952.2256505547234156


Dumping 'jdft.fillings' ... done
Dumping 'jdft.wfns' ... done
Dumping 'jdft.ionpos' ... done
Dumping 'jdft.lattice' ... done
Dumping 'jdft.eigenvals' ... done
Dumping 'jdft.eigStats' ... 
	eMin: -3.264379 at state 0 ( [ +0.000000 +0.000000 +0.000000 ] spin 1 )
	HOMO: +0.118618 at state 18 ( [ +0.333333 -0.400000 +0.000000 ] spin 1 )
	mu  : +0.118979
	LUMO: +0.119971 at state 4 ( [ +0.000000 -0.200000 +0.000000 ] spin 1 )
	eMax: +0.419687 at state 0 ( [ +0.000000 +0.000000 +0.000000 ] spin 1 )
	HOMO-LUMO gap: +0.001353
	Optical gap  : +0.006788 at state 18 ( [ +0.333333 -0.400000 +0.000000 ] spin 1 )
Dumping 'jdft.Ecomponents' ... done
IonicMinimize: Iter:  11  F: -2952.225650554723416  |grad|_K:  9.745e-05  alpha:  1.000e+00  linmin: -5.391e-02  t[s]:  37825.10
IonicMinimize: Converged (|grad|_K<1.000000e-04).

#--- Lowdin population analysis ---
# oxidation-state Ag +0.003 -0.045 +0.002 -0.000 +0.005 +0.000 -0.020 -0.063 +0.028 +0.141 -0.063 -0.020 -0.000 +0.005 -0.000 +0.002 -0.045 +0.003 +0.141 +0.028
# magnetic-moments Ag -0.000 -0.000 +0.000 +0.000 +0.000 +0.000 +0.000 -0.000 +0.000 -0.000 +0.000 -0.000 +0.000 -0.000 +0.000 -0.000 +0.000 +0.000 +0.000 +0.000


Dumping 'jdft.n_up' ... done
Dumping 'jdft.n_dn' ... done
Dumping 'jdft.tau_up' ... done
Dumping 'jdft.tau_dn' ... done
Dumping 'jdft.eigenvals' ... done
Dumping 'jdft.eigStats' ... 
	eMin: -3.264379 at state 0 ( [ +0.000000 +0.000000 +0.000000 ] spin 1 )
	HOMO: +0.118618 at state 18 ( [ +0.333333 -0.400000 +0.000000 ] spin 1 )
	mu  : +0.118979
	LUMO: +0.119971 at state 4 ( [ +0.000000 -0.200000 +0.000000 ] spin 1 )
	eMax: +0.419687 at state 0 ( [ +0.000000 +0.000000 +0.000000 ] spin 1 )
	HOMO-LUMO gap: +0.001353
	Optical gap  : +0.006788 at state 18 ( [ +0.333333 -0.400000 +0.000000 ] spin 1 )
Dumping 'jdft.kPts' ... done
Dumping 'jdft.dosUp' ... done.
Dumping 'jdft.dosDn' ... done.
End date and time: Tue Dec  7 03:39:31 2021  (Duration: 0-10:31:33.37)
Done!
