
*************** JDFTx 1.6.0  ***************

Start date and time: Mon Dec  6 15:59:53 2021
Executable /projects/musgravc/apps/jdftx-1.6.1/build/jdftx with command-line: -i in
Running on hosts (process indices):  shas0619.rc.int.colorado.edu (0-23)
Divided in process groups (process indices):  0 (0)  1 (1)  2 (2)  3 (3)  4 (4)  5 (5)  6 (6)  7 (7)  8 (8)  9 (9)  10 (10)  11 (11)  12 (12)  13 (13)  14 (14)  15 (15)  16 (16)  17 (17)  18 (18)  19 (19)  20 (20)  21 (21)  22 (22)  23 (23)
Resource initialization completed at t[s]:      0.00
Run totals: 24 processes, 24 threads, 0 GPUs


Input parsed successfully to the following command list (including defaults):

basis kpoint-dependent
converge-empty-states yes
coords-type Cartesian
core-overlap-check none
coulomb-interaction Periodic
davidson-band-ratio 1.1
density-of-states Etol 1.000000e-06 Esigma 1.000000e-03 \
		Complete \
	Total \
	OrthoOrbital Cu 1   s \
	OrthoOrbital Cu 1   p \
	OrthoOrbital Cu 1   px \
	OrthoOrbital Cu 1   py \
	OrthoOrbital Cu 1   pz \
	OrthoOrbital Cu 1   d \
	OrthoOrbital Cu 1   dxy \
	OrthoOrbital Cu 1   dyz \
	OrthoOrbital Cu 1   dz2 \
	OrthoOrbital Cu 1   dxz \
	OrthoOrbital Cu 1   dx2-y2 \
	OrthoOrbital Cu 2   s \
	OrthoOrbital Cu 2   p \
	OrthoOrbital Cu 2   px \
	OrthoOrbital Cu 2   py \
	OrthoOrbital Cu 2   pz \
	OrthoOrbital Cu 2   d \
	OrthoOrbital Cu 2   dxy \
	OrthoOrbital Cu 2   dyz \
	OrthoOrbital Cu 2   dz2 \
	OrthoOrbital Cu 2   dxz \
	OrthoOrbital Cu 2   dx2-y2 \
	OrthoOrbital Cu 3   s \
	OrthoOrbital Cu 3   p \
	OrthoOrbital Cu 3   px \
	OrthoOrbital Cu 3   py \
	OrthoOrbital Cu 3   pz \
	OrthoOrbital Cu 3   d \
	OrthoOrbital Cu 3   dxy \
	OrthoOrbital Cu 3   dyz \
	OrthoOrbital Cu 3   dz2 \
	OrthoOrbital Cu 3   dxz \
	OrthoOrbital Cu 3   dx2-y2 \
	OrthoOrbital Cu 4   s \
	OrthoOrbital Cu 4   p \
	OrthoOrbital Cu 4   px \
	OrthoOrbital Cu 4   py \
	OrthoOrbital Cu 4   pz \
	OrthoOrbital Cu 4   d \
	OrthoOrbital Cu 4   dxy \
	OrthoOrbital Cu 4   dyz \
	OrthoOrbital Cu 4   dz2 \
	OrthoOrbital Cu 4   dxz \
	OrthoOrbital Cu 4   dx2-y2 \
	OrthoOrbital Cu 5   s \
	OrthoOrbital Cu 5   p \
	OrthoOrbital Cu 5   px \
	OrthoOrbital Cu 5   py \
	OrthoOrbital Cu 5   pz \
	OrthoOrbital Cu 5   d \
	OrthoOrbital Cu 5   dxy \
	OrthoOrbital Cu 5   dyz \
	OrthoOrbital Cu 5   dz2 \
	OrthoOrbital Cu 5   dxz \
	OrthoOrbital Cu 5   dx2-y2 \
	OrthoOrbital Cu 6   s \
	OrthoOrbital Cu 6   p \
	OrthoOrbital Cu 6   px \
	OrthoOrbital Cu 6   py \
	OrthoOrbital Cu 6   pz \
	OrthoOrbital Cu 6   d \
	OrthoOrbital Cu 6   dxy \
	OrthoOrbital Cu 6   dyz \
	OrthoOrbital Cu 6   dz2 \
	OrthoOrbital Cu 6   dxz \
	OrthoOrbital Cu 6   dx2-y2 \
	OrthoOrbital Cu 7   s \
	OrthoOrbital Cu 7   p \
	OrthoOrbital Cu 7   px \
	OrthoOrbital Cu 7   py \
	OrthoOrbital Cu 7   pz \
	OrthoOrbital Cu 7   d \
	OrthoOrbital Cu 7   dxy \
	OrthoOrbital Cu 7   dyz \
	OrthoOrbital Cu 7   dz2 \
	OrthoOrbital Cu 7   dxz \
	OrthoOrbital Cu 7   dx2-y2 \
	OrthoOrbital Cu 8   s \
	OrthoOrbital Cu 8   p \
	OrthoOrbital Cu 8   px \
	OrthoOrbital Cu 8   py \
	OrthoOrbital Cu 8   pz \
	OrthoOrbital Cu 8   d \
	OrthoOrbital Cu 8   dxy \
	OrthoOrbital Cu 8   dyz \
	OrthoOrbital Cu 8   dz2 \
	OrthoOrbital Cu 8   dxz \
	OrthoOrbital Cu 8   dx2-y2 \
	OrthoOrbital Cu 9   s \
	OrthoOrbital Cu 9   p \
	OrthoOrbital Cu 9   px \
	OrthoOrbital Cu 9   py \
	OrthoOrbital Cu 9   pz \
	OrthoOrbital Cu 9   d \
	OrthoOrbital Cu 9   dxy \
	OrthoOrbital Cu 9   dyz \
	OrthoOrbital Cu 9   dz2 \
	OrthoOrbital Cu 9   dxz \
	OrthoOrbital Cu 9   dx2-y2 \
	OrthoOrbital Cu 10   s \
	OrthoOrbital Cu 10   p \
	OrthoOrbital Cu 10   px \
	OrthoOrbital Cu 10   py \
	OrthoOrbital Cu 10   pz \
	OrthoOrbital Cu 10   d \
	OrthoOrbital Cu 10   dxy \
	OrthoOrbital Cu 10   dyz \
	OrthoOrbital Cu 10   dz2 \
	OrthoOrbital Cu 10   dxz \
	OrthoOrbital Cu 10   dx2-y2 \
	OrthoOrbital Cu 11   s \
	OrthoOrbital Cu 11   p \
	OrthoOrbital Cu 11   px \
	OrthoOrbital Cu 11   py \
	OrthoOrbital Cu 11   pz \
	OrthoOrbital Cu 11   d \
	OrthoOrbital Cu 11   dxy \
	OrthoOrbital Cu 11   dyz \
	OrthoOrbital Cu 11   dz2 \
	OrthoOrbital Cu 11   dxz \
	OrthoOrbital Cu 11   dx2-y2 \
	OrthoOrbital Cu 12   s \
	OrthoOrbital Cu 12   p \
	OrthoOrbital Cu 12   px \
	OrthoOrbital Cu 12   py \
	OrthoOrbital Cu 12   pz \
	OrthoOrbital Cu 12   d \
	OrthoOrbital Cu 12   dxy \
	OrthoOrbital Cu 12   dyz \
	OrthoOrbital Cu 12   dz2 \
	OrthoOrbital Cu 12   dxz \
	OrthoOrbital Cu 12   dx2-y2 \
	OrthoOrbital Cu 13   s \
	OrthoOrbital Cu 13   p \
	OrthoOrbital Cu 13   px \
	OrthoOrbital Cu 13   py \
	OrthoOrbital Cu 13   pz \
	OrthoOrbital Cu 13   d \
	OrthoOrbital Cu 13   dxy \
	OrthoOrbital Cu 13   dyz \
	OrthoOrbital Cu 13   dz2 \
	OrthoOrbital Cu 13   dxz \
	OrthoOrbital Cu 13   dx2-y2 \
	OrthoOrbital Cu 14   s \
	OrthoOrbital Cu 14   p \
	OrthoOrbital Cu 14   px \
	OrthoOrbital Cu 14   py \
	OrthoOrbital Cu 14   pz \
	OrthoOrbital Cu 14   d \
	OrthoOrbital Cu 14   dxy \
	OrthoOrbital Cu 14   dyz \
	OrthoOrbital Cu 14   dz2 \
	OrthoOrbital Cu 14   dxz \
	OrthoOrbital Cu 14   dx2-y2 \
	OrthoOrbital Cu 15   s \
	OrthoOrbital Cu 15   p \
	OrthoOrbital Cu 15   px \
	OrthoOrbital Cu 15   py \
	OrthoOrbital Cu 15   pz \
	OrthoOrbital Cu 15   d \
	OrthoOrbital Cu 15   dxy \
	OrthoOrbital Cu 15   dyz \
	OrthoOrbital Cu 15   dz2 \
	OrthoOrbital Cu 15   dxz \
	OrthoOrbital Cu 15   dx2-y2 \
	OrthoOrbital Cu 16   s \
	OrthoOrbital Cu 16   p \
	OrthoOrbital Cu 16   px \
	OrthoOrbital Cu 16   py \
	OrthoOrbital Cu 16   pz \
	OrthoOrbital Cu 16   d \
	OrthoOrbital Cu 16   dxy \
	OrthoOrbital Cu 16   dyz \
	OrthoOrbital Cu 16   dz2 \
	OrthoOrbital Cu 16   dxz \
	OrthoOrbital Cu 16   dx2-y2 \
	OrthoOrbital Cu 17   s \
	OrthoOrbital Cu 17   p \
	OrthoOrbital Cu 17   px \
	OrthoOrbital Cu 17   py \
	OrthoOrbital Cu 17   pz \
	OrthoOrbital Cu 17   d \
	OrthoOrbital Cu 17   dxy \
	OrthoOrbital Cu 17   dyz \
	OrthoOrbital Cu 17   dz2 \
	OrthoOrbital Cu 17   dxz \
	OrthoOrbital Cu 17   dx2-y2 \
	OrthoOrbital Cu 18   s \
	OrthoOrbital Cu 18   p \
	OrthoOrbital Cu 18   px \
	OrthoOrbital Cu 18   py \
	OrthoOrbital Cu 18   pz \
	OrthoOrbital Cu 18   d \
	OrthoOrbital Cu 18   dxy \
	OrthoOrbital Cu 18   dyz \
	OrthoOrbital Cu 18   dz2 \
	OrthoOrbital Cu 18   dxz \
	OrthoOrbital Cu 18   dx2-y2 \
	OrthoOrbital Cu 19   s \
	OrthoOrbital Cu 19   p \
	OrthoOrbital Cu 19   px \
	OrthoOrbital Cu 19   py \
	OrthoOrbital Cu 19   pz \
	OrthoOrbital Cu 19   d \
	OrthoOrbital Cu 19   dxy \
	OrthoOrbital Cu 19   dyz \
	OrthoOrbital Cu 19   dz2 \
	OrthoOrbital Cu 19   dxz \
	OrthoOrbital Cu 19   dx2-y2 \
	OrthoOrbital Cu 20   s \
	OrthoOrbital Cu 20   p \
	OrthoOrbital Cu 20   px \
	OrthoOrbital Cu 20   py \
	OrthoOrbital Cu 20   pz \
	OrthoOrbital Cu 20   d \
	OrthoOrbital Cu 20   dxy \
	OrthoOrbital Cu 20   dyz \
	OrthoOrbital Cu 20   dz2 \
	OrthoOrbital Cu 20   dxz \
	OrthoOrbital Cu 20   dx2-y2 \
	OrthoOrbital Cu 21   s \
	OrthoOrbital Cu 21   p \
	OrthoOrbital Cu 21   px \
	OrthoOrbital Cu 21   py \
	OrthoOrbital Cu 21   pz \
	OrthoOrbital Cu 21   d \
	OrthoOrbital Cu 21   dxy \
	OrthoOrbital Cu 21   dyz \
	OrthoOrbital Cu 21   dz2 \
	OrthoOrbital Cu 21   dxz \
	OrthoOrbital Cu 21   dx2-y2 \
	OrthoOrbital Cu 22   s \
	OrthoOrbital Cu 22   p \
	OrthoOrbital Cu 22   px \
	OrthoOrbital Cu 22   py \
	OrthoOrbital Cu 22   pz \
	OrthoOrbital Cu 22   d \
	OrthoOrbital Cu 22   dxy \
	OrthoOrbital Cu 22   dyz \
	OrthoOrbital Cu 22   dz2 \
	OrthoOrbital Cu 22   dxz \
	OrthoOrbital Cu 22   dx2-y2 \
	OrthoOrbital Cu 23   s \
	OrthoOrbital Cu 23   p \
	OrthoOrbital Cu 23   px \
	OrthoOrbital Cu 23   py \
	OrthoOrbital Cu 23   pz \
	OrthoOrbital Cu 23   d \
	OrthoOrbital Cu 23   dxy \
	OrthoOrbital Cu 23   dyz \
	OrthoOrbital Cu 23   dz2 \
	OrthoOrbital Cu 23   dxz \
	OrthoOrbital Cu 23   dx2-y2 \
	OrthoOrbital Cu 24   s \
	OrthoOrbital Cu 24   p \
	OrthoOrbital Cu 24   px \
	OrthoOrbital Cu 24   py \
	OrthoOrbital Cu 24   pz \
	OrthoOrbital Cu 24   d \
	OrthoOrbital Cu 24   dxy \
	OrthoOrbital Cu 24   dyz \
	OrthoOrbital Cu 24   dz2 \
	OrthoOrbital Cu 24   dxz \
	OrthoOrbital Cu 24   dx2-y2 \
	OrthoOrbital Cu 25   s \
	OrthoOrbital Cu 25   p \
	OrthoOrbital Cu 25   px \
	OrthoOrbital Cu 25   py \
	OrthoOrbital Cu 25   pz \
	OrthoOrbital Cu 25   d \
	OrthoOrbital Cu 25   dxy \
	OrthoOrbital Cu 25   dyz \
	OrthoOrbital Cu 25   dz2 \
	OrthoOrbital Cu 25   dxz \
	OrthoOrbital Cu 25   dx2-y2 \
	OrthoOrbital Cu 26   s \
	OrthoOrbital Cu 26   p \
	OrthoOrbital Cu 26   px \
	OrthoOrbital Cu 26   py \
	OrthoOrbital Cu 26   pz \
	OrthoOrbital Cu 26   d \
	OrthoOrbital Cu 26   dxy \
	OrthoOrbital Cu 26   dyz \
	OrthoOrbital Cu 26   dz2 \
	OrthoOrbital Cu 26   dxz \
	OrthoOrbital Cu 26   dx2-y2 \
	OrthoOrbital Cu 27   s \
	OrthoOrbital Cu 27   p \
	OrthoOrbital Cu 27   px \
	OrthoOrbital Cu 27   py \
	OrthoOrbital Cu 27   pz \
	OrthoOrbital Cu 27   d \
	OrthoOrbital Cu 27   dxy \
	OrthoOrbital Cu 27   dyz \
	OrthoOrbital Cu 27   dz2 \
	OrthoOrbital Cu 27   dxz \
	OrthoOrbital Cu 27   dx2-y2 \
	OrthoOrbital Cu 28   s \
	OrthoOrbital Cu 28   p \
	OrthoOrbital Cu 28   px \
	OrthoOrbital Cu 28   py \
	OrthoOrbital Cu 28   pz \
	OrthoOrbital Cu 28   d \
	OrthoOrbital Cu 28   dxy \
	OrthoOrbital Cu 28   dyz \
	OrthoOrbital Cu 28   dz2 \
	OrthoOrbital Cu 28   dxz \
	OrthoOrbital Cu 28   dx2-y2 \
	OrthoOrbital Cu 29   s \
	OrthoOrbital Cu 29   p \
	OrthoOrbital Cu 29   px \
	OrthoOrbital Cu 29   py \
	OrthoOrbital Cu 29   pz \
	OrthoOrbital Cu 29   d \
	OrthoOrbital Cu 29   dxy \
	OrthoOrbital Cu 29   dyz \
	OrthoOrbital Cu 29   dz2 \
	OrthoOrbital Cu 29   dxz \
	OrthoOrbital Cu 29   dx2-y2 \
	OrthoOrbital Cu 30   s \
	OrthoOrbital Cu 30   p \
	OrthoOrbital Cu 30   px \
	OrthoOrbital Cu 30   py \
	OrthoOrbital Cu 30   pz \
	OrthoOrbital Cu 30   d \
	OrthoOrbital Cu 30   dxy \
	OrthoOrbital Cu 30   dyz \
	OrthoOrbital Cu 30   dz2 \
	OrthoOrbital Cu 30   dxz \
	OrthoOrbital Cu 30   dx2-y2 \
	OrthoOrbital Cu 31   s \
	OrthoOrbital Cu 31   p \
	OrthoOrbital Cu 31   px \
	OrthoOrbital Cu 31   py \
	OrthoOrbital Cu 31   pz \
	OrthoOrbital Cu 31   d \
	OrthoOrbital Cu 31   dxy \
	OrthoOrbital Cu 31   dyz \
	OrthoOrbital Cu 31   dz2 \
	OrthoOrbital Cu 31   dxz \
	OrthoOrbital Cu 31   dx2-y2 \
	OrthoOrbital Cu 32   s \
	OrthoOrbital Cu 32   p \
	OrthoOrbital Cu 32   px \
	OrthoOrbital Cu 32   py \
	OrthoOrbital Cu 32   pz \
	OrthoOrbital Cu 32   d \
	OrthoOrbital Cu 32   dxy \
	OrthoOrbital Cu 32   dyz \
	OrthoOrbital Cu 32   dz2 \
	OrthoOrbital Cu 32   dxz \
	OrthoOrbital Cu 32   dx2-y2 \
	OrthoOrbital Cu 33   s \
	OrthoOrbital Cu 33   p \
	OrthoOrbital Cu 33   px \
	OrthoOrbital Cu 33   py \
	OrthoOrbital Cu 33   pz \
	OrthoOrbital Cu 33   d \
	OrthoOrbital Cu 33   dxy \
	OrthoOrbital Cu 33   dyz \
	OrthoOrbital Cu 33   dz2 \
	OrthoOrbital Cu 33   dxz \
	OrthoOrbital Cu 33   dx2-y2 \
	OrthoOrbital Cu 34   s \
	OrthoOrbital Cu 34   p \
	OrthoOrbital Cu 34   px \
	OrthoOrbital Cu 34   py \
	OrthoOrbital Cu 34   pz \
	OrthoOrbital Cu 34   d \
	OrthoOrbital Cu 34   dxy \
	OrthoOrbital Cu 34   dyz \
	OrthoOrbital Cu 34   dz2 \
	OrthoOrbital Cu 34   dxz \
	OrthoOrbital Cu 34   dx2-y2 \
	OrthoOrbital Cu 35   s \
	OrthoOrbital Cu 35   p \
	OrthoOrbital Cu 35   px \
	OrthoOrbital Cu 35   py \
	OrthoOrbital Cu 35   pz \
	OrthoOrbital Cu 35   d \
	OrthoOrbital Cu 35   dxy \
	OrthoOrbital Cu 35   dyz \
	OrthoOrbital Cu 35   dz2 \
	OrthoOrbital Cu 35   dxz \
	OrthoOrbital Cu 35   dx2-y2 \
	OrthoOrbital Cu 36   s \
	OrthoOrbital Cu 36   p \
	OrthoOrbital Cu 36   px \
	OrthoOrbital Cu 36   py \
	OrthoOrbital Cu 36   pz \
	OrthoOrbital Cu 36   d \
	OrthoOrbital Cu 36   dxy \
	OrthoOrbital Cu 36   dyz \
	OrthoOrbital Cu 36   dz2 \
	OrthoOrbital Cu 36   dxz \
	OrthoOrbital Cu 36   dx2-y2 \
	OrthoOrbital Cu 37   s \
	OrthoOrbital Cu 37   p \
	OrthoOrbital Cu 37   px \
	OrthoOrbital Cu 37   py \
	OrthoOrbital Cu 37   pz \
	OrthoOrbital Cu 37   d \
	OrthoOrbital Cu 37   dxy \
	OrthoOrbital Cu 37   dyz \
	OrthoOrbital Cu 37   dz2 \
	OrthoOrbital Cu 37   dxz \
	OrthoOrbital Cu 37   dx2-y2 \
	OrthoOrbital Cu 38   s \
	OrthoOrbital Cu 38   p \
	OrthoOrbital Cu 38   px \
	OrthoOrbital Cu 38   py \
	OrthoOrbital Cu 38   pz \
	OrthoOrbital Cu 38   d \
	OrthoOrbital Cu 38   dxy \
	OrthoOrbital Cu 38   dyz \
	OrthoOrbital Cu 38   dz2 \
	OrthoOrbital Cu 38   dxz \
	OrthoOrbital Cu 38   dx2-y2 \
	OrthoOrbital Cu 39   s \
	OrthoOrbital Cu 39   p \
	OrthoOrbital Cu 39   px \
	OrthoOrbital Cu 39   py \
	OrthoOrbital Cu 39   pz \
	OrthoOrbital Cu 39   d \
	OrthoOrbital Cu 39   dxy \
	OrthoOrbital Cu 39   dyz \
	OrthoOrbital Cu 39   dz2 \
	OrthoOrbital Cu 39   dxz \
	OrthoOrbital Cu 39   dx2-y2 \
	OrthoOrbital Cu 40   s \
	OrthoOrbital Cu 40   p \
	OrthoOrbital Cu 40   px \
	OrthoOrbital Cu 40   py \
	OrthoOrbital Cu 40   pz \
	OrthoOrbital Cu 40   d \
	OrthoOrbital Cu 40   dxy \
	OrthoOrbital Cu 40   dyz \
	OrthoOrbital Cu 40   dz2 \
	OrthoOrbital Cu 40   dxz \
	OrthoOrbital Cu 40   dx2-y2 \
	OrthoOrbital Cu 41   s \
	OrthoOrbital Cu 41   p \
	OrthoOrbital Cu 41   px \
	OrthoOrbital Cu 41   py \
	OrthoOrbital Cu 41   pz \
	OrthoOrbital Cu 41   d \
	OrthoOrbital Cu 41   dxy \
	OrthoOrbital Cu 41   dyz \
	OrthoOrbital Cu 41   dz2 \
	OrthoOrbital Cu 41   dxz \
	OrthoOrbital Cu 41   dx2-y2 \
	OrthoOrbital Cu 42   s \
	OrthoOrbital Cu 42   p \
	OrthoOrbital Cu 42   px \
	OrthoOrbital Cu 42   py \
	OrthoOrbital Cu 42   pz \
	OrthoOrbital Cu 42   d \
	OrthoOrbital Cu 42   dxy \
	OrthoOrbital Cu 42   dyz \
	OrthoOrbital Cu 42   dz2 \
	OrthoOrbital Cu 42   dxz \
	OrthoOrbital Cu 42   dx2-y2 \
	OrthoOrbital Cu 43   s \
	OrthoOrbital Cu 43   p \
	OrthoOrbital Cu 43   px \
	OrthoOrbital Cu 43   py \
	OrthoOrbital Cu 43   pz \
	OrthoOrbital Cu 43   d \
	OrthoOrbital Cu 43   dxy \
	OrthoOrbital Cu 43   dyz \
	OrthoOrbital Cu 43   dz2 \
	OrthoOrbital Cu 43   dxz \
	OrthoOrbital Cu 43   dx2-y2 \
	OrthoOrbital Cu 44   s \
	OrthoOrbital Cu 44   p \
	OrthoOrbital Cu 44   px \
	OrthoOrbital Cu 44   py \
	OrthoOrbital Cu 44   pz \
	OrthoOrbital Cu 44   d \
	OrthoOrbital Cu 44   dxy \
	OrthoOrbital Cu 44   dyz \
	OrthoOrbital Cu 44   dz2 \
	OrthoOrbital Cu 44   dxz \
	OrthoOrbital Cu 44   dx2-y2
dump End ElecDensity KEdensity BandEigs EigStats RhoAtom DOS Kpoints
dump Ionic State IonicPositions Lattice EigStats Ecomponents
dump 
dump 
dump 
dump 
dump 
dump 
dump 
dump 
dump-name jdft.$VAR
elec-cutoff 20
elec-eigen-algo Davidson
elec-ex-corr gga-PBE
elec-initial-magnetization 0.000000 no
elec-n-bands 502
elec-smearing Fermi 0.001
electronic-minimize  \
	dirUpdateScheme      FletcherReeves \
	linminMethod         DirUpdateRecommended \
	nIterations          100 \
	history              15 \
	knormThreshold       0 \
	energyDiffThreshold  1e-07 \
	nEnergyDiff          2 \
	alphaTstart          1 \
	alphaTmin            1e-10 \
	updateTestStepSize   yes \
	alphaTreduceFactor   0.1 \
	alphaTincreaseFactor 3 \
	nAlphaAdjustMax      3 \
	wolfeEnergy          0.0001 \
	wolfeGradient        0.9 \
	fdTest               no
exchange-regularization WignerSeitzTruncated
fluid LinearPCM 298.000000 1.013250
fluid-anion F- 0.5 MeanFieldLJ \
	epsBulk 1 \
	pMol 0 \
	epsInf 1 \
	Pvap 0 \
	sigmaBulk 0 \
	Rvdw 2.24877 \
	Res 0 \
	tauNuc 343133
fluid-cation Na+ 0.5 MeanFieldLJ \
	epsBulk 1 \
	pMol 0 \
	epsInf 1 \
	Pvap 0 \
	sigmaBulk 0 \
	Rvdw 2.19208 \
	Res 0 \
	tauNuc 343133
fluid-ex-corr lda-TF lda-PZ
fluid-gummel-loop 10 1.000000e-05
fluid-minimize  \
	dirUpdateScheme      PolakRibiere \
	linminMethod         DirUpdateRecommended \
	nIterations          400 \
	history              15 \
	knormThreshold       1e-11 \
	energyDiffThreshold  0 \
	nEnergyDiff          2 \
	alphaTstart          1 \
	alphaTmin            1e-10 \
	updateTestStepSize   yes \
	alphaTreduceFactor   0.1 \
	alphaTincreaseFactor 3 \
	nAlphaAdjustMax      6 \
	wolfeEnergy          0.0001 \
	wolfeGradient        0.9 \
	fdTest               no
fluid-solvent H2O 55.338 ScalarEOS \
	epsBulk 78.4 \
	pMol 0.92466 \
	epsInf 1.77 \
	Pvap 1.06736e-10 \
	sigmaBulk 4.62e-05 \
	Rvdw 2.61727 \
	Res 1.42 \
	tauNuc 343133 \
	poleEl 15 7 1
forces-output-coords Positions
ion Cu   0.000000000000000  14.227474000000003  62.158542000000004 1
ion Cu   0.000000000000000  20.324953000000001  59.284131000000009 1
ion Cu   0.000000000000000   6.097479000000000  60.721305000000008 1
ion Cu   0.000000000000000  12.194981000000000  57.846957000000010 1
ion Cu   0.000000000000000  18.292459999999998  54.972546000000008 1
ion Cu   0.000000000000000  16.259967000000000  50.660961000000007 1
ion Cu   0.000000000000000  22.357445999999999  31.977512000000004 1
ion Cu   0.000000000000000   4.064986000000000  56.409720000000007 1
ion Cu   4.766622999999999  10.162464999999999  53.535372000000010 1
ion Cu   0.000000000000000   2.032493000000000  52.098198000000004 1
ion Cu   0.000000000000000   8.129972000000000  49.223788000000006 1
ion Cu   0.000000000000000  14.227474000000003  46.349440000000008 1
ion Cu   0.000000000000000  20.324953000000001  43.475029000000006 1
ion Cu   0.000000000000000  12.194981000000000  42.037855000000008 1
ion Cu   0.000000000000000  18.292459999999998  39.163445000000010 1
ion Cu   0.000000000000000  22.357445999999999  47.786614000000007 1
ion Cu   0.000000000000000   6.097479000000000  44.912202999999998 1
ion Cu   0.000000000000000   4.064986000000000  40.600618000000004 1
ion Cu   0.000000000000000  10.162464999999999  37.726271000000004 1
ion Cu   0.000000000000000  16.259967000000000  34.851860000000009 1
ion Cu   0.000000000000000   2.032493000000000  36.289096999999998 1
ion Cu   0.000000000000000   8.129972000000000  33.414686000000003 1
ion Cu   2.383311000000000  16.259967000000000  58.565512000000005 1
ion Cu   2.383311000000000  22.357445999999999  55.691165000000005 1
ion Cu   2.383311000000000   8.129972000000000  57.128338000000007 1
ion Cu   2.383311000000000  14.227474000000003  54.253991000000006 1
ion Cu   2.383311000000000  20.324953000000001  51.379580000000004 1
ion Cu   2.383311000000000  18.292459999999998  47.067995000000003 1
ion Cu   2.383311000000000   2.032493000000000  60.002749000000009 1
ion Cu   2.383311000000000   6.097479000000000  52.816754000000010 1
ion Cu   2.383311000000000  12.194981000000000  49.942406000000005 1
ion Cu   2.383311000000000   4.064986000000000  48.505169000000009 1
ion Cu   2.383311000000000  10.162464999999999  45.630822000000009 1
ion Cu   2.383311000000000  16.259967000000000  42.756411000000000 1
ion Cu   2.383311000000000   0.000000000000000  39.882063000000009 1
ion Cu   2.383311000000000  14.227474000000003  38.444889000000003 1
ion Cu   2.383311000000000  20.324953000000001  35.570478000000008 1
ion Cu   2.383311000000000   2.032493000000000  44.193648000000003 1
ion Cu   2.383311000000000   8.129972000000000  41.319237000000008 1
ion Cu   2.383311000000000   6.097479000000000  37.007652000000000 1
ion Cu   2.383311000000000  12.194981000000000  34.133305000000000 1
ion Cu   2.383311000000000  18.292459999999998  62.877097000000006 1
ion Cu   2.383311000000000   4.064986000000000  32.696068000000004 1
ion Cu   2.383311000000000  10.162464999999999  61.439923000000007 1
ion-species /projects/musgravc/apps/jdftx-1.6.0/build/pseudopotentials/GBRV_v1.5/$ID_pbe_v1.uspp
ion-species /projects/musgravc/apps/jdftx-1.6.0/build/pseudopotentials/GBRV_v1.5/$ID_pbe_v1.2.uspp
ion-species /projects/musgravc/apps/jdftx-1.6.0/build/pseudopotentials/GBRV_v1.5/$ID_pbe_v1.4.uspp
ion-species /projects/musgravc/apps/jdftx-1.6.0/build/pseudopotentials/GBRV_v1.5/$ID_pbe_v1.5.uspp
ion-width Ecut
ionic-minimize  \
	dirUpdateScheme      L-BFGS \
	linminMethod         DirUpdateRecommended \
	nIterations          100 \
	history              15 \
	knormThreshold       0.0001 \
	energyDiffThreshold  1e-06 \
	nEnergyDiff          2 \
	alphaTstart          1 \
	alphaTmin            1e-10 \
	updateTestStepSize   yes \
	alphaTreduceFactor   0.1 \
	alphaTincreaseFactor 3 \
	nAlphaAdjustMax      3 \
	wolfeEnergy          0.0001 \
	wolfeGradient        0.9 \
	fdTest               no
kpoint   0.000000000000   0.000000000000   0.000000000000  1.00000000000000
kpoint-folding 11 2 1 
latt-move-scale 0 0 0
latt-scale 1 1 1 
lattice  \
	   4.766623000000000    0.000000000000000    0.000000000000000  \
	   0.000000000000000   22.357445999999999    0.000000000000000  \
	   0.000000000000000    0.000000000000000   63.236406000000002 
lattice-minimize  \
	dirUpdateScheme      L-BFGS \
	linminMethod         DirUpdateRecommended \
	nIterations          0 \
	history              15 \
	knormThreshold       0 \
	energyDiffThreshold  1e-06 \
	nEnergyDiff          2 \
	alphaTstart          1 \
	alphaTmin            1e-10 \
	updateTestStepSize   yes \
	alphaTreduceFactor   0.1 \
	alphaTincreaseFactor 3 \
	nAlphaAdjustMax      3 \
	wolfeEnergy          0.0001 \
	wolfeGradient        0.9 \
	fdTest               no
lcao-params 30 1e-06 0.001
pcm-variant CANDLE
spintype z-spin
subspace-rotation-factor 1 yes
symmetries none
symmetry-threshold 0.0001
target-mu -0.1713 no

van-der-waals D3


Applied RMS atom displacement 0 bohrs to make symmetries exact.

---------- Initializing the Grid ----------
R = 
[      4.76662            0            0  ]
[            0      22.3574            0  ]
[            0            0      63.2364  ]
unit cell volume = 6739.07
G =
[    1.31816          0          0  ]
[          0   0.281033          0  ]
[          0          0  0.0993603  ]
Minimum fftbox size, Smin = [  20  92  256  ]
Chosen fftbox size, S = [  20  96  256  ]

---------- Exchange Correlation functional ----------
Initalized PBE GGA exchange.
Initalized PBE GGA correlation.

---------- Setting up pseudopotentials ----------
Width of ionic core gaussian charges (only for fluid interactions / plotting) set to 0.397384

Reading pseudopotential file '/projects/musgravc/apps/jdftx-1.6.0/build/pseudopotentials/GBRV_v1.5/cu_pbe_v1.2.uspp':
  Title: Cu.  Created by USPP 7.3.6 on 3-2-2014
  Reference state energy: -201.059491.  19 valence electrons in orbitals:
    |300>  occupation: 2  eigenvalue: -5.020764
    |310>  occupation: 6  eigenvalue: -3.445588
    |320>  occupation: 8  eigenvalue: -0.925168
    |400>  occupation: 2  eigenvalue: -0.567638
    |410>  occupation: 0  eigenvalue: -0.326154
  lMax: 2  lLocal: 3  QijEcut: 6
  6 projectors sampled on a log grid with 613 points:
    l: 0  eig: -5.020767  rCut: 1.4
    l: 0  eig: -0.567640  rCut: 1.4
    l: 1  eig: -3.445589  rCut: 1.55
    l: 1  eig: -0.326157  rCut: 1.55
    l: 2  eig: -0.925170  rCut: 1.5
    l: 2  eig: 1.500000  rCut: 1.5
  Partial core density with radius 0.8
  Transforming core density to a uniform radial grid of dG=0.02 with 1143 points.
  Transforming local potential to a uniform radial grid of dG=0.02 with 1143 points.
  Transforming nonlocal projectors to a uniform radial grid of dG=0.02 with 432 points.
  Transforming density augmentations to a uniform radial grid of dG=0.02 with 1143 points.
  Transforming atomic orbitals to a uniform radial grid of dG=0.02 with 432 points.
  Core radius for overlap checks: 1.55 bohrs.

Initialized 1 species with 44 total atoms.

Folded 1 k-points by 11x2x1 to 22 k-points.

---------- Setting up k-points, bands, fillings ----------
No reducable k-points. 
Computing the number of bands and number of electrons
Calculating initial fillings.
nElectrons: 836.000000   nBands: 502   nStates: 44

----- Setting up reduced wavefunction bases (one per k-point) -----
average nbasis = 28786.227 , ideal nbasis = 28789.834

----- Initializing Supercell corresponding to k-point mesh -----
Lattice vector linear combinations in supercell:
[  11   0   0  ]
[   0   2   0  ]
[   0   0   1  ]
Supercell lattice vectors:
[  52.4329  0  0  ]
[  0  44.7149  0  ]
[  0  0  63.2364  ]

Initializing DFT-D3 calculator:
	Parameters set for gga-PBE functional
	s6:  1.000  s_r6:  1.217
	s8:  0.722  s_r8:  1.000
	Per-atom parameters loaded for:
	Cu:  sqrtQ[a0]:  5.226  Rcov[a0]:  1.909  CN: [ 0.00 0.96 ]

Initializing DFT-D2 calculator for fluid / solvation:
	Cu:  C6:  187.33 Eh-a0^6  R0: 2.952 a0

---------- Setting up ewald sum ----------
Optimum gaussian width for ewald sums = 4.010526 bohr.
Real space sum over 665 unit cells with max indices [  9  3  2  ]
Reciprocal space sum over 7497 terms with max indices [  3  10  25  ]

Computing DFT-D3 correction:
# coordination-number Cu 6.830 8.358 6.835 9.149 9.159 9.162 5.331 9.151 9.161 9.161 9.162 9.162 9.161 9.161 9.154 9.162 9.162 9.160 9.150 6.859 9.145 6.834 9.145 9.154 9.150 9.160 9.161 9.162 6.859 9.161 9.162 9.162 9.162 9.161 9.159 9.151 8.358 9.162 9.161 9.150 6.835 5.331 6.830 6.834
# diagonal-C6 Cu 175.00 175.00 175.00 175.00 175.00 175.00 175.00 175.00 175.00 175.00 175.00 175.00 175.00 175.00 175.00 175.00 175.00 175.00 175.00 175.00 175.00 175.00 175.00 175.00 175.00 175.00 175.00 175.00 175.00 175.00 175.00 175.00 175.00 175.00 175.00 175.00 175.00 175.00 175.00 175.00 175.00 175.00 175.00 175.00
EvdW_6 =   -0.293753
EvdW_8 =   -0.422416

---------- Allocating electronic variables ----------
Initializing wave functions:  linear combination of atomic orbitals
Cu pseudo-atom occupations:   s ( 2 1 )  p ( 6 0 )  d ( 10 )
	FillingsUpdate:  mu: -0.171300000  nElectrons: 836.000000  magneticMoment: [ Abs: 0.26343  Tot: -0.01217 ]
LCAOMinimize: Iter:   0  G: -8552.2118723312414659  |grad|_K:  3.628e-02  alpha:  1.000e+00
LCAOMinimize: 	Step increased G by 4.918381e+03, reducing alpha to 3.789525e-02.
LCAOMinimize: 	Step increased G by 7.796062e+02, reducing alpha to 3.789525e-03.
	FillingsUpdate:  mu: -0.171300000  nElectrons: 836.000000  magneticMoment: [ Abs: 0.26770  Tot: -0.01207 ]
LCAOMinimize: Iter:   1  G: -8587.4716621303632564  |grad|_K:  1.151e-02  alpha:  3.790e-03  linmin:  3.192e-02  cgtest: -1.816e-01  t[s]:    364.10
LCAOMinimize: 	Predicted alpha/alphaT>3.000000, increasing alphaT to 1.136858e-02.
	FillingsUpdate:  mu: -0.171300000  nElectrons: 836.000000  magneticMoment: [ Abs: 0.29121  Tot: -0.03036 ]
LCAOMinimize: Iter:   2  G: -8603.8798882595365285  |grad|_K:  1.370e-02  alpha:  1.855e-02  linmin: -3.407e-03  cgtest:  3.009e-01  t[s]:    472.49
	FillingsUpdate:  mu: -0.171300000  nElectrons: 836.000000  magneticMoment: [ Abs: 0.31002  Tot: -0.06121 ]
LCAOMinimize: Iter:   3  G: -8615.9589882905129343  |grad|_K:  2.194e-02  alpha:  1.028e-02  linmin:  1.779e-03  cgtest: -2.477e-01  t[s]:    558.89
	FillingsUpdate:  mu: -0.171300000  nElectrons: 836.000000  magneticMoment: [ Abs: 0.01503  Tot: -0.00113 ]
LCAOMinimize: Iter:   4  G: -8681.9212147032339999  |grad|_K:  2.751e-02  alpha:  1.676e-02  linmin: -1.140e-02  cgtest:  8.633e-01  t[s]:    645.25
	FillingsUpdate:  mu: -0.171300000  nElectrons: 836.000000  magneticMoment: [ Abs: 0.01275  Tot: -0.00155 ]
LCAOMinimize: Iter:   5  G: -8708.3716274962171155  |grad|_K:  1.616e-02  alpha:  5.795e-03  linmin:  2.279e-02  cgtest: -5.571e-01  t[s]:    732.47
	FillingsUpdate:  mu: -0.171300000  nElectrons: 836.000000  magneticMoment: [ Abs: 0.01200  Tot: -0.00167 ]
LCAOMinimize: Iter:   6  G: -8711.8079119640606223  |grad|_K:  1.299e-02  alpha:  3.572e-03  linmin:  8.209e-04  cgtest:  5.732e-01  t[s]:    819.24
	FillingsUpdate:  mu: -0.171300000  nElectrons: 836.000000  magneticMoment: [ Abs: 0.01043  Tot: -0.00056 ]
LCAOMinimize: Iter:   7  G: -8718.9952262809292733  |grad|_K:  3.795e-03  alpha:  5.662e-03  linmin: -5.352e-02  cgtest:  2.770e-01  t[s]:    905.92
	FillingsUpdate:  mu: -0.171300000  nElectrons: 836.000000  magneticMoment: [ Abs: 0.01040  Tot: -0.00097 ]
LCAOMinimize: Iter:   8  G: -8719.9846398615081853  |grad|_K:  5.086e-03  alpha:  9.186e-03  linmin: -5.042e-03  cgtest:  1.000e-02  t[s]:    992.52
	FillingsUpdate:  mu: -0.171300000  nElectrons: 836.000000  magneticMoment: [ Abs: 0.00999  Tot: -0.00110 ]
LCAOMinimize: Iter:   9  G: -8723.0559349133327487  |grad|_K:  2.825e-03  alpha:  1.536e-02  linmin:  6.631e-03  cgtest: -6.234e-02  t[s]:   1078.72
LCAOMinimize: 	Predicted alpha/alphaT>3.000000, increasing alphaT to 4.609301e-02.
	FillingsUpdate:  mu: -0.171300000  nElectrons: 836.000000  magneticMoment: [ Abs: 0.00849  Tot: -0.00090 ]
LCAOMinimize: Iter:  10  G: -8726.1742033785958483  |grad|_K:  5.427e-03  alpha:  5.448e-02  linmin: -5.002e-03  cgtest: -2.775e-02  t[s]:   1187.38
	FillingsUpdate:  mu: -0.171300000  nElectrons: 836.000000  magneticMoment: [ Abs: 0.00623  Tot: -0.00052 ]
LCAOMinimize: Iter:  11  G: -8728.4558818555615289  |grad|_K:  7.637e-03  alpha:  2.352e-02  linmin:  5.887e-03  cgtest: -7.618e-01  t[s]:   1273.59
	FillingsUpdate:  mu: -0.171300000  nElectrons: 836.000000  magneticMoment: [ Abs: 0.00511  Tot: -0.00029 ]
LCAOMinimize: Iter:  12  G: -8728.8834773468443018  |grad|_K:  4.845e-03  alpha:  3.987e-03  linmin:  4.544e-03  cgtest:  1.135e+00  t[s]:   1359.83
LCAOMinimize: Encountered beta<0, resetting CG.
	FillingsUpdate:  mu: -0.171300000  nElectrons: 836.000000  magneticMoment: [ Abs: 0.00511  Tot: -0.00019 ]
LCAOMinimize: Iter:  13  G: -8730.2233599358860374  |grad|_K:  1.221e-03  alpha:  8.036e-03  linmin:  1.710e-02  cgtest: -1.037e-01  t[s]:   1446.04
LCAOMinimize: 	Predicted alpha/alphaT>3.000000, increasing alphaT to 2.410882e-02.
LCAOMinimize: 	Predicted alpha/alphaT>3.000000, increasing alphaT to 7.232646e-02.
	FillingsUpdate:  mu: -0.171300000  nElectrons: 836.000000  magneticMoment: [ Abs: 0.00558  Tot: -0.00033 ]
LCAOMinimize: Iter:  14  G: -8731.0453427324391669  |grad|_K:  1.151e-03  alpha:  8.286e-02  linmin:  2.984e-02  cgtest: -3.886e-02  t[s]:   1576.55
	FillingsUpdate:  mu: -0.171300000  nElectrons: 836.000000  magneticMoment: [ Abs: 0.00572  Tot: -0.00034 ]
LCAOMinimize: Iter:  15  G: -8731.2025702271293994  |grad|_K:  9.806e-04  alpha:  1.310e-02  linmin: -6.413e-02  cgtest:  8.362e-01  t[s]:   1662.71
	FillingsUpdate:  mu: -0.171300000  nElectrons: 836.000000  magneticMoment: [ Abs: 0.00581  Tot: -0.00034 ]
LCAOMinimize: Iter:  16  G: -8731.4707286624288827  |grad|_K:  6.739e-04  alpha:  3.778e-02  linmin: -1.001e-03  cgtest: -4.442e-02  t[s]:   1749.19
	FillingsUpdate:  mu: -0.171300000  nElectrons: 836.000000  magneticMoment: [ Abs: 0.00589  Tot: -0.00039 ]
LCAOMinimize: Iter:  17  G: -8731.5216268925742042  |grad|_K:  6.437e-04  alpha:  1.474e-02  linmin: -4.383e-03  cgtest:  8.648e-02  t[s]:   1835.49
	FillingsUpdate:  mu: -0.171300000  nElectrons: 836.000000  magneticMoment: [ Abs: 0.00620  Tot: -0.00059 ]
LCAOMinimize: Iter:  18  G: -8731.6344405913059745  |grad|_K:  6.700e-04  alpha:  3.638e-02  linmin:  2.573e-04  cgtest: -5.977e-02  t[s]:   1922.50
	FillingsUpdate:  mu: -0.171300000  nElectrons: 836.000000  magneticMoment: [ Abs: 0.00657  Tot: -0.00069 ]
LCAOMinimize: Iter:  19  G: -8731.7262336472358584  |grad|_K:  4.108e-04  alpha:  2.685e-02  linmin:  2.470e-03  cgtest:  1.898e-01  t[s]:   2009.25
	FillingsUpdate:  mu: -0.171300000  nElectrons: 836.000000  magneticMoment: [ Abs: 0.00668  Tot: -0.00069 ]
LCAOMinimize: Iter:  20  G: -8731.7580430860762135  |grad|_K:  5.015e-04  alpha:  2.640e-02  linmin:  3.634e-03  cgtest:  2.207e-02  t[s]:   2096.03
	FillingsUpdate:  mu: -0.171300000  nElectrons: 836.000000  magneticMoment: [ Abs: 0.00674  Tot: -0.00069 ]
LCAOMinimize: Iter:  21  G: -8731.7749202195700491  |grad|_K:  1.827e-04  alpha:  9.956e-03  linmin:  1.674e-03  cgtest:  1.807e-01  t[s]:   2182.39
LCAOMinimize: 	Predicted alpha/alphaT>3.000000, increasing alphaT to 2.986883e-02.
	FillingsUpdate:  mu: -0.171300000  nElectrons: 836.000000  magneticMoment: [ Abs: 0.00675  Tot: -0.00068 ]
LCAOMinimize: Iter:  22  G: -8731.7837452307285275  |grad|_K:  1.477e-04  alpha:  3.657e-02  linmin: -2.396e-03  cgtest:  9.697e-03  t[s]:   2292.09
	FillingsUpdate:  mu: -0.171300000  nElectrons: 836.000000  magneticMoment: [ Abs: 0.00676  Tot: -0.00069 ]
LCAOMinimize: Iter:  23  G: -8731.7853844097007823  |grad|_K:  9.778e-05  alpha:  9.989e-03  linmin: -2.635e-03  cgtest:  2.042e-02  t[s]:   2378.55
	FillingsUpdate:  mu: -0.171300000  nElectrons: 836.000000  magneticMoment: [ Abs: 0.00677  Tot: -0.00070 ]
LCAOMinimize: Iter:  24  G: -8731.7867145628442813  |grad|_K:  8.904e-05  alpha:  1.906e-02  linmin:  1.823e-03  cgtest: -3.758e-02  t[s]:   2465.92
	FillingsUpdate:  mu: -0.171300000  nElectrons: 836.000000  magneticMoment: [ Abs: 0.00678  Tot: -0.00070 ]
LCAOMinimize: Iter:  25  G: -8731.7895168508093775  |grad|_K:  6.564e-05  alpha:  5.014e-02  linmin:  1.748e-03  cgtest:  9.104e-02  t[s]:   2552.50
	FillingsUpdate:  mu: -0.171300000  nElectrons: 836.000000  magneticMoment: [ Abs: 0.00679  Tot: -0.00068 ]
LCAOMinimize: Iter:  26  G: -8731.7908821899545728  |grad|_K:  8.690e-05  alpha:  4.434e-02  linmin:  1.540e-04  cgtest:  8.600e-03  t[s]:   2639.07
	FillingsUpdate:  mu: -0.171300000  nElectrons: 836.000000  magneticMoment: [ Abs: 0.00680  Tot: -0.00068 ]
LCAOMinimize: Iter:  27  G: -8731.7914199454262416  |grad|_K:  4.344e-05  alpha:  9.787e-03  linmin: -2.888e-04  cgtest: -9.047e-03  t[s]:   2725.86
	FillingsUpdate:  mu: -0.171300000  nElectrons: 836.000000  magneticMoment: [ Abs: 0.00681  Tot: -0.00069 ]
LCAOMinimize: Iter:  28  G: -8731.7916432659003476  |grad|_K:  2.694e-05  alpha:  1.646e-02  linmin:  2.477e-03  cgtest: -3.047e-02  t[s]:   2812.40
	FillingsUpdate:  mu: -0.171300000  nElectrons: 836.000000  magneticMoment: [ Abs: 0.00683  Tot: -0.00069 ]
LCAOMinimize: Iter:  29  G: -8731.7917950555256539  |grad|_K:  1.081e-05  alpha:  2.917e-02  linmin: -6.850e-03  cgtest:  1.490e-01  t[s]:   2898.86
	FillingsUpdate:  mu: -0.171300000  nElectrons: 836.000000  magneticMoment: [ Abs: 0.00684  Tot: -0.00069 ]
LCAOMinimize: Iter:  30  G: -8731.7918264121653920  |grad|_K:  1.197e-05  alpha:  3.617e-02  linmin: -6.289e-03  cgtest:  4.429e-02  t[s]:   2986.01
LCAOMinimize: None of the convergence criteria satisfied after 30 iterations.
----- createFluidSolver() ----- (Fluid-side solver setup)
   Initializing fluid molecule 'H2O'
     Initializing site 'O'
       Electron density: proportional to exp(-r/0.36935)*erfc((r-0.51523)/0.36823) with norm 6.826
       Charge density: gaussian nuclear width 0.478731 with net site charge 0.826
       Polarizability: cuspless exponential with width 0.32 and norm 3.73
       Hard sphere radius: 2.57003 bohrs
       Positions in reference frame:
         [ +0.000000 +0.000000 +0.000000 ]
     Initializing site 'H'
       Electron density: proportional to exp(-r/0.34641)*erfc((r-0)/0.390882) with norm 0.587
       Charge density: gaussian nuclear width 0.377945 with net site charge -0.413
       Polarizability: cuspless exponential with width 0.39 and norm 3.3
       Positions in reference frame:
         [ +0.000000 -1.441945 +1.122523 ]
         [ +0.000000 +1.441945 +1.122523 ]
     Net charge: 0   dipole magnitude: 0.927204
     Initializing spherical shell mfKernel with radius 2.61727 Bohr
     deltaS corrections:
       site 'O': -7.54299
       site 'H': -6.83917
   Initializing fluid molecule 'Na+'
     Initializing site 'Na'
       Electron density: proportional to exp(-r/0.19682)*erfc((r-0.71491)/0.41314) with norm 8.1383
       Charge density: gaussian nuclear width 0.365347 with net site charge -1
       Hard sphere radius: 1.86327 bohrs
       Positions in reference frame:
         [ +0.000000 +0.000000 +0.000000 ]
     Net charge: -1   dipole magnitude: 0
     Initializing gaussian mfKernel with width: 1.55004 Bohr
     deltaS corrections:
       site 'Na': -22.3555
   Initializing fluid molecule 'F-'
     Initializing site 'F'
       Electron density: proportional to exp(-r/0.38886)*erfc((r-0)/0.438782) with norm 8
       Charge density: gaussian nuclear width 0.374796 with net site charge 1
       Hard sphere radius: 2.39995 bohrs
       Positions in reference frame:
         [ +0.000000 +0.000000 +0.000000 ]
     Net charge: 1   dipole magnitude: 0
     Initializing gaussian mfKernel with width: 1.59012 Bohr
     deltaS corrections:
       site 'F': -9.04335

Correction to mu due to finite nuclear width = -0.123085
   Cavity determined by nc: 0.00142 and sigma: 0.707107
   Nonlocal vdW cavity from gaussian model electron density with norm = 8 and sigma = 0.993594 bohr
   Charge asymmetry in cavity with sensitivity pCavity = 36.5 e-bohr/Eh
   Electrostatic cavity expanded by eta = 1.46 bohrs
   Weighted density cavitation model constrained by Nbulk: 0.0049383 bohr^-3, Pvap: 3.14029 kPa, Rvdw: 2.61727 bohr and sigmaBulk: 4.62e-05 Eh/bohr^2 at T: 298 K.
   Weighted density dispersion model using vdW pair potentials with single solvent site with sqrtC6eff: 0.77 SI.


---- Citations for features of the code used in this run ----

   Software package:
      R. Sundararaman, K. Letchworth-Weaver, K.A. Schwarz, D. Gunceler, Y. Ozhabes and T.A. Arias, 'JDFTx: software for joint density-functional theory', SoftwareX 6, 278 (2017)

   gga-PBE exchange-correlation functional:
      J.P. Perdew, K. Burke and M. Ernzerhof, Phys. Rev. Lett. 77, 3865 (1996)

   Pseudopotentials:
      KF Garrity, JW Bennett, KM Rabe and D Vanderbilt, Comput. Mater. Sci. 81, 446 (2014)

   DFT-D3 dispersion correction:
      S. Grimme, J. Antony, S. Ehrlich and H. Krieg, J. Chem. Phys. 132, 154104 (2010)

   DFT-D2 dispersion correction:
      S. Grimme, J. Comput. Chem. 27, 1787 (2006)

   Charge-asymmetric nonlocally-determined local-electric (CANDLE) solvation model:
      R. Sundararaman and W.A. Goddard III, J. Chem. Phys. 142, 064107 (2015)

   Total energy minimization with Auxiliary Hamiltonian:
      C. Freysoldt, S. Boeck, and J. Neugebauer, Phys. Rev. B 79, 241103(R) (2009)

   Grand-canonical (fixed-potential) DFT:
      R. Sundararaman, W. A. Goddard III and T. A. Arias, J. Chem. Phys. 146, 114104 (2017)

   Linear-tetrahedron sampling for density of states:
      G. Lehmann and M. Taut, Phys. status solidi (b) 54, 469 (1972)

This list may not be complete. Please suggest additional citations or
report any other bugs at https://github.com/shankar1729/jdftx/issues

Initialization completed successfully at t[s]:   3017.30


Computing DFT-D3 correction:
# coordination-number Cu 6.830 8.358 6.835 9.149 9.159 9.162 5.331 9.151 9.161 9.161 9.162 9.162 9.161 9.161 9.154 9.162 9.162 9.160 9.150 6.859 9.145 6.834 9.145 9.154 9.150 9.160 9.161 9.162 6.859 9.161 9.162 9.162 9.162 9.161 9.159 9.151 8.358 9.162 9.161 9.150 6.835 5.331 6.830 6.834
# diagonal-C6 Cu 175.00 175.00 175.00 175.00 175.00 175.00 175.00 175.00 175.00 175.00 175.00 175.00 175.00 175.00 175.00 175.00 175.00 175.00 175.00 175.00 175.00 175.00 175.00 175.00 175.00 175.00 175.00 175.00 175.00 175.00 175.00 175.00 175.00 175.00 175.00 175.00 175.00 175.00 175.00 175.00 175.00 175.00 175.00 175.00
EvdW_6 =   -0.293753
EvdW_8 =   -0.422416
Fluid solver invoked on fresh (random / LCAO) wavefunctions
Running a vacuum solve first:

-------- Initial electronic minimization -----------
	FillingsUpdate:  mu: +0.280373781  nElectrons: 836.000000  magneticMoment: [ Abs: 0.00684  Tot: -0.00069 ]
ElecMinimize: Iter:   0  G: -8731.794389145559762  |grad|_K:  2.143e-04  alpha:  1.000e+00
	FillingsUpdate:  mu: +0.170847347  nElectrons: 836.000000  magneticMoment: [ Abs: 0.00652  Tot: -0.00070 ]
	SubspaceRotationAdjust: set factor to 0.998
ElecMinimize: Iter:   1  G: -8734.624211591975836  |grad|_K:  1.043e-04  alpha:  1.001e-01  linmin:  2.565e-04  t[s]:   3277.08
ElecMinimize: 	Predicted alpha/alphaT>3.000000, increasing alphaT to 3.002103e-01.
	FillingsUpdate:  mu: +0.460754141  nElectrons: 836.000000  magneticMoment: [ Abs: 0.00439  Tot: -0.00010 ]
	SubspaceRotationAdjust: set factor to 0.63
ElecMinimize: Iter:   2  G: -8737.241497404917027  |grad|_K:  1.676e-04  alpha:  3.844e-01  linmin: -6.334e-05  t[s]:   3489.40
ElecMinimize: 	Step increased G by 6.039398e-01, reducing alpha to 4.295051e-03.
	FillingsUpdate:  mu: +0.390805077  nElectrons: 836.000000  magneticMoment: [ Abs: 0.00434  Tot: -0.00010 ]
	SubspaceRotationAdjust: set factor to 0.682
ElecMinimize: Iter:   3  G: -8737.379930523775329  |grad|_K:  1.013e-04  alpha:  4.295e-03  linmin: -5.709e-04  t[s]:   3765.61
ElecMinimize: 	Predicted alpha/alphaT>3.000000, increasing alphaT to 1.288515e-02.
	FillingsUpdate:  mu: +0.397779838  nElectrons: 836.000000  magneticMoment: [ Abs: 0.00416  Tot: -0.00011 ]
	SubspaceRotationAdjust: set factor to 0.489
ElecMinimize: Iter:   4  G: -8737.543641182654028  |grad|_K:  9.442e-05  alpha:  1.446e-02  linmin: -2.582e-05  t[s]:   3977.95
	FillingsUpdate:  mu: +0.491629684  nElectrons: 836.000000  magneticMoment: [ Abs: 0.00384  Tot: -0.00014 ]
	SubspaceRotationAdjust: set factor to 0.279
ElecMinimize: Iter:   5  G: -8737.695130007319676  |grad|_K:  1.131e-04  alpha:  2.555e-02  linmin: -1.842e-05  t[s]:   4147.59
	FillingsUpdate:  mu: +0.467218951  nElectrons: 836.000000  magneticMoment: [ Abs: 0.00379  Tot: -0.00012 ]
	SubspaceRotationAdjust: set factor to 0.233
ElecMinimize: Iter:   6  G: -8737.846822085048188  |grad|_K:  7.608e-05  alpha:  1.848e-02  linmin: -2.892e-06  t[s]:   4317.68
	FillingsUpdate:  mu: +0.406450973  nElectrons: 836.000000  magneticMoment: [ Abs: 0.00382  Tot: -0.00008 ]
	SubspaceRotationAdjust: set factor to 0.291
ElecMinimize: Iter:   7  G: -8737.966328014961618  |grad|_K:  7.065e-05  alpha:  3.172e-02  linmin: -1.479e-05  t[s]:   4487.89
	FillingsUpdate:  mu: +0.376386076  nElectrons: 836.000000  magneticMoment: [ Abs: 0.00367  Tot: -0.00004 ]
	SubspaceRotationAdjust: set factor to 0.208
ElecMinimize: Iter:   8  G: -8738.112380070380823  |grad|_K:  7.661e-05  alpha:  4.410e-02  linmin: -2.563e-05  t[s]:   4657.93
	FillingsUpdate:  mu: +0.298599968  nElectrons: 836.000000  magneticMoment: [ Abs: 0.00344  Tot: +0.00001 ]
	SubspaceRotationAdjust: set factor to 0.183
ElecMinimize: Iter:   9  G: -8738.231388945438084  |grad|_K:  4.633e-05  alpha:  3.116e-02  linmin: -3.349e-06  t[s]:   4827.76
	FillingsUpdate:  mu: +0.237445970  nElectrons: 836.000000  magneticMoment: [ Abs: 0.00312  Tot: +0.00001 ]
	SubspaceRotationAdjust: set factor to 0.22
ElecMinimize: Iter:  10  G: -8738.284244491078425  |grad|_K:  3.283e-05  alpha:  3.813e-02  linmin: -1.733e-05  t[s]:   4997.62
	FillingsUpdate:  mu: +0.280166378  nElectrons: 836.000000  magneticMoment: [ Abs: 0.00271  Tot: -0.00001 ]
	SubspaceRotationAdjust: set factor to 0.174
ElecMinimize: Iter:  11  G: -8738.322735739662676  |grad|_K:  3.235e-05  alpha:  5.493e-02  linmin:  4.005e-06  t[s]:   5167.17
	FillingsUpdate:  mu: +0.239964221  nElectrons: 836.000000  magneticMoment: [ Abs: 0.00243  Tot: -0.00005 ]
	SubspaceRotationAdjust: set factor to 0.247
ElecMinimize: Iter:  12  G: -8738.354058936074580  |grad|_K:  2.542e-05  alpha:  4.667e-02  linmin:  5.560e-06  t[s]:   5338.05
	FillingsUpdate:  mu: +0.254409198  nElectrons: 836.000000  magneticMoment: [ Abs: 0.00232  Tot: -0.00007 ]
	SubspaceRotationAdjust: set factor to 0.27
ElecMinimize: Iter:  13  G: -8738.373051515083716  |grad|_K:  2.106e-05  alpha:  4.607e-02  linmin:  3.981e-06  t[s]:   5507.73
	FillingsUpdate:  mu: +0.251807284  nElectrons: 836.000000  magneticMoment: [ Abs: 0.00226  Tot: -0.00007 ]
	SubspaceRotationAdjust: set factor to 0.192
ElecMinimize: Iter:  14  G: -8738.386321103354931  |grad|_K:  1.930e-05  alpha:  4.683e-02  linmin: -1.236e-06  t[s]:   5678.12
	FillingsUpdate:  mu: +0.235239704  nElectrons: 836.000000  magneticMoment: [ Abs: 0.00225  Tot: -0.00006 ]
	SubspaceRotationAdjust: set factor to 0.337
ElecMinimize: Iter:  15  G: -8738.395889964454909  |grad|_K:  1.363e-05  alpha:  4.008e-02  linmin: -2.408e-06  t[s]:   5847.83
	FillingsUpdate:  mu: +0.226674475  nElectrons: 836.000000  magneticMoment: [ Abs: 0.00219  Tot: -0.00006 ]
	SubspaceRotationAdjust: set factor to 0.306
ElecMinimize: Iter:  16  G: -8738.402138142668264  |grad|_K:  1.221e-05  alpha:  5.221e-02  linmin: -9.853e-06  t[s]:   6017.77
	FillingsUpdate:  mu: +0.224309731  nElectrons: 836.000000  magneticMoment: [ Abs: 0.00208  Tot: -0.00006 ]
	SubspaceRotationAdjust: set factor to 0.244
ElecMinimize: Iter:  17  G: -8738.408747788340406  |grad|_K:  1.158e-05  alpha:  6.838e-02  linmin: -1.368e-06  t[s]:   6187.23
	FillingsUpdate:  mu: +0.225704466  nElectrons: 836.000000  magneticMoment: [ Abs: 0.00203  Tot: -0.00006 ]
	SubspaceRotationAdjust: set factor to 0.314
ElecMinimize: Iter:  18  G: -8738.412752952632218  |grad|_K:  8.250e-06  alpha:  4.653e-02  linmin: -5.094e-08  t[s]:   6357.16
	FillingsUpdate:  mu: +0.231426067  nElectrons: 836.000000  magneticMoment: [ Abs: 0.00199  Tot: -0.00007 ]
	SubspaceRotationAdjust: set factor to 0.295
ElecMinimize: Iter:  19  G: -8738.415836402875357  |grad|_K:  8.853e-06  alpha:  7.069e-02  linmin:  1.592e-06  t[s]:   6527.02
	FillingsUpdate:  mu: +0.234073058  nElectrons: 836.000000  magneticMoment: [ Abs: 0.00193  Tot: -0.00008 ]
	SubspaceRotationAdjust: set factor to 0.406
ElecMinimize: Iter:  20  G: -8738.418582192727627  |grad|_K:  6.762e-06  alpha:  5.472e-02  linmin:  1.425e-07  t[s]:   6696.74
	FillingsUpdate:  mu: +0.232365877  nElectrons: 836.000000  magneticMoment: [ Abs: 0.00185  Tot: -0.00008 ]
	SubspaceRotationAdjust: set factor to 0.364
ElecMinimize: Iter:  21  G: -8738.420412541083351  |grad|_K:  7.407e-06  alpha:  6.240e-02  linmin: -1.123e-06  t[s]:   6867.02
	FillingsUpdate:  mu: +0.227085972  nElectrons: 836.000000  magneticMoment: [ Abs: 0.00172  Tot: -0.00007 ]
	SubspaceRotationAdjust: set factor to 0.477
ElecMinimize: Iter:  22  G: -8738.422386824016939  |grad|_K:  5.848e-06  alpha:  5.603e-02  linmin: -7.094e-07  t[s]:   7037.45
	FillingsUpdate:  mu: +0.226174802  nElectrons: 836.000000  magneticMoment: [ Abs: 0.00161  Tot: -0.00007 ]
	SubspaceRotationAdjust: set factor to 0.406
ElecMinimize: Iter:  23  G: -8738.423738531830168  |grad|_K:  6.581e-06  alpha:  6.152e-02  linmin: -5.920e-07  t[s]:   7206.89
	FillingsUpdate:  mu: +0.227306557  nElectrons: 836.000000  magneticMoment: [ Abs: 0.00147  Tot: -0.00008 ]
	SubspaceRotationAdjust: set factor to 0.519
ElecMinimize: Iter:  24  G: -8738.425263934319446  |grad|_K:  5.291e-06  alpha:  5.484e-02  linmin:  6.270e-08  t[s]:   7376.72
	FillingsUpdate:  mu: +0.228185390  nElectrons: 836.000000  magneticMoment: [ Abs: 0.00133  Tot: -0.00008 ]
	SubspaceRotationAdjust: set factor to 0.443
ElecMinimize: Iter:  25  G: -8738.426694608722755  |grad|_K:  6.946e-06  alpha:  7.975e-02  linmin:  5.181e-07  t[s]:   7546.67
	FillingsUpdate:  mu: +0.226921965  nElectrons: 836.000000  magneticMoment: [ Abs: 0.00117  Tot: -0.00009 ]
	SubspaceRotationAdjust: set factor to 0.477
ElecMinimize: Iter:  26  G: -8738.428083286073161  |grad|_K:  4.753e-06  alpha:  4.490e-02  linmin: -1.190e-07  t[s]:   7716.34
	FillingsUpdate:  mu: +0.225511122  nElectrons: 836.000000  magneticMoment: [ Abs: 0.00102  Tot: -0.00009 ]
	SubspaceRotationAdjust: set factor to 0.485
ElecMinimize: Iter:  27  G: -8738.429041305651481  |grad|_K:  4.583e-06  alpha:  6.607e-02  linmin: -1.544e-07  t[s]:   7886.21
	FillingsUpdate:  mu: +0.225877583  nElectrons: 836.000000  magneticMoment: [ Abs: 0.00093  Tot: -0.00009 ]
	SubspaceRotationAdjust: set factor to 0.45
ElecMinimize: Iter:  28  G: -8738.429576051497861  |grad|_K:  3.147e-06  alpha:  3.971e-02  linmin:  5.206e-08  t[s]:   8056.16
	FillingsUpdate:  mu: +0.227844631  nElectrons: 836.000000  magneticMoment: [ Abs: 0.00083  Tot: -0.00010 ]
	SubspaceRotationAdjust: set factor to 0.504
ElecMinimize: Iter:  29  G: -8738.430016444550347  |grad|_K:  2.982e-06  alpha:  6.934e-02  linmin:  1.150e-07  t[s]:   8227.09
	FillingsUpdate:  mu: +0.227618582  nElectrons: 836.000000  magneticMoment: [ Abs: 0.00075  Tot: -0.00010 ]
	SubspaceRotationAdjust: set factor to 0.443
ElecMinimize: Iter:  30  G: -8738.430301503034570  |grad|_K:  2.733e-06  alpha:  5.001e-02  linmin: -1.271e-08  t[s]:   8397.08
	FillingsUpdate:  mu: +0.224848469  nElectrons: 836.000000  magneticMoment: [ Abs: 0.00065  Tot: -0.00009 ]
	SubspaceRotationAdjust: set factor to 0.518
ElecMinimize: Iter:  31  G: -8738.430613912136323  |grad|_K:  2.077e-06  alpha:  6.521e-02  linmin:  1.451e-07  t[s]:   8567.19
	FillingsUpdate:  mu: +0.224104762  nElectrons: 836.000000  magneticMoment: [ Abs: 0.00059  Tot: -0.00009 ]
	SubspaceRotationAdjust: set factor to 0.463
ElecMinimize: Iter:  32  G: -8738.430765022274500  |grad|_K:  1.999e-06  alpha:  5.462e-02  linmin: -8.541e-08  t[s]:   8736.96
	FillingsUpdate:  mu: +0.225341310  nElectrons: 836.000000  magneticMoment: [ Abs: 0.00052  Tot: -0.00009 ]
	SubspaceRotationAdjust: set factor to 0.546
ElecMinimize: Iter:  33  G: -8738.430899766859511  |grad|_K:  1.365e-06  alpha:  5.257e-02  linmin:  6.672e-08  t[s]:   8906.92
	FillingsUpdate:  mu: +0.227074288  nElectrons: 836.000000  magneticMoment: [ Abs: 0.00045  Tot: -0.00008 ]
	SubspaceRotationAdjust: set factor to 0.522
ElecMinimize: Iter:  34  G: -8738.430990349699641  |grad|_K:  1.450e-06  alpha:  7.580e-02  linmin:  4.405e-07  t[s]:   9076.92
	FillingsUpdate:  mu: +0.227355942  nElectrons: 836.000000  magneticMoment: [ Abs: 0.00040  Tot: -0.00008 ]
	SubspaceRotationAdjust: set factor to 0.489
ElecMinimize: Iter:  35  G: -8738.431055607043163  |grad|_K:  1.250e-06  alpha:  4.841e-02  linmin:  4.993e-09  t[s]:   9247.51
	FillingsUpdate:  mu: +0.226251554  nElectrons: 836.000000  magneticMoment: [ Abs: 0.00033  Tot: -0.00007 ]
	SubspaceRotationAdjust: set factor to 0.501
ElecMinimize: Iter:  36  G: -8738.431117979795090  |grad|_K:  9.107e-07  alpha:  6.227e-02  linmin: -3.710e-07  t[s]:   9417.72
	FillingsUpdate:  mu: +0.225959973  nElectrons: 836.000000  magneticMoment: [ Abs: 0.00029  Tot: -0.00006 ]
	SubspaceRotationAdjust: set factor to 0.464
ElecMinimize: Iter:  37  G: -8738.431151724191295  |grad|_K:  8.772e-07  alpha:  6.341e-02  linmin: -4.957e-09  t[s]:   9587.66
	FillingsUpdate:  mu: +0.226323913  nElectrons: 836.000000  magneticMoment: [ Abs: 0.00026  Tot: -0.00006 ]
	SubspaceRotationAdjust: set factor to 0.447
ElecMinimize: Iter:  38  G: -8738.431174609684604  |grad|_K:  6.208e-07  alpha:  4.637e-02  linmin:  5.325e-08  t[s]:   9757.14
	FillingsUpdate:  mu: +0.226881092  nElectrons: 836.000000  magneticMoment: [ Abs: 0.00022  Tot: -0.00005 ]
	SubspaceRotationAdjust: set factor to 0.492
ElecMinimize: Iter:  39  G: -8738.431195433726316  |grad|_K:  6.068e-07  alpha:  8.427e-02  linmin:  2.712e-07  t[s]:   9927.04
	FillingsUpdate:  mu: +0.226828043  nElectrons: 836.000000  magneticMoment: [ Abs: 0.00020  Tot: -0.00005 ]
	SubspaceRotationAdjust: set factor to 0.462
ElecMinimize: Iter:  40  G: -8738.431208065032479  |grad|_K:  5.324e-07  alpha:  5.351e-02  linmin: -4.241e-08  t[s]:  10097.19
	FillingsUpdate:  mu: +0.226372584  nElectrons: 836.000000  magneticMoment: [ Abs: 0.00017  Tot: -0.00004 ]
	SubspaceRotationAdjust: set factor to 0.49
ElecMinimize: Iter:  41  G: -8738.431220036511149  |grad|_K:  4.388e-07  alpha:  6.585e-02  linmin: -1.289e-07  t[s]:  10266.93
	FillingsUpdate:  mu: +0.226307950  nElectrons: 836.000000  magneticMoment: [ Abs: 0.00014  Tot: -0.00004 ]
	SubspaceRotationAdjust: set factor to 0.518
ElecMinimize: Iter:  42  G: -8738.431229874804558  |grad|_K:  4.564e-07  alpha:  7.966e-02  linmin:  1.118e-07  t[s]:  10437.69
	FillingsUpdate:  mu: +0.226518226  nElectrons: 836.000000  magneticMoment: [ Abs: 0.00012  Tot: -0.00003 ]
	SubspaceRotationAdjust: set factor to 0.456
ElecMinimize: Iter:  43  G: -8738.431236505013658  |grad|_K:  3.710e-07  alpha:  4.964e-02  linmin:  4.112e-12  t[s]:  10607.46
	FillingsUpdate:  mu: +0.226766625  nElectrons: 836.000000  magneticMoment: [ Abs: 0.00010  Tot: -0.00002 ]
	SubspaceRotationAdjust: set factor to 0.545
ElecMinimize: Iter:  44  G: -8738.431243380084197  |grad|_K:  3.051e-07  alpha:  7.794e-02  linmin:  3.155e-07  t[s]:  10778.13
	FillingsUpdate:  mu: +0.226702944  nElectrons: 836.000000  magneticMoment: [ Abs: 0.00009  Tot: -0.00002 ]
	SubspaceRotationAdjust: set factor to 0.524
ElecMinimize: Iter:  45  G: -8738.431247064638228  |grad|_K:  2.756e-07  alpha:  6.174e-02  linmin:  5.133e-08  t[s]:  10948.54
	FillingsUpdate:  mu: +0.226630863  nElectrons: 836.000000  magneticMoment: [ Abs: 0.00008  Tot: -0.00002 ]
	SubspaceRotationAdjust: set factor to 0.455
ElecMinimize: Iter:  46  G: -8738.431249605135235  |grad|_K:  2.379e-07  alpha:  5.218e-02  linmin:  1.661e-08  t[s]:  11118.54
	FillingsUpdate:  mu: +0.226713817  nElectrons: 836.000000  magneticMoment: [ Abs: 0.00007  Tot: -0.00001 ]
	SubspaceRotationAdjust: set factor to 0.538
ElecMinimize: Iter:  47  G: -8738.431252507032696  |grad|_K:  2.068e-07  alpha:  8.004e-02  linmin:  2.444e-07  t[s]:  11289.24
	FillingsUpdate:  mu: +0.226761435  nElectrons: 836.000000  magneticMoment: [ Abs: 0.00006  Tot: -0.00001 ]
	SubspaceRotationAdjust: set factor to 0.522
ElecMinimize: Iter:  48  G: -8738.431254674338561  |grad|_K:  2.094e-07  alpha:  7.906e-02  linmin:  1.669e-07  t[s]:  11458.91
	FillingsUpdate:  mu: +0.226675057  nElectrons: 836.000000  magneticMoment: [ Abs: 0.00006  Tot: -0.00001 ]
	SubspaceRotationAdjust: set factor to 0.445
ElecMinimize: Iter:  49  G: -8738.431256100142491  |grad|_K:  1.674e-07  alpha:  5.071e-02  linmin: -1.456e-08  t[s]:  11628.92
	FillingsUpdate:  mu: +0.226554095  nElectrons: 836.000000  magneticMoment: [ Abs: 0.00005  Tot: -0.00001 ]
	SubspaceRotationAdjust: set factor to 0.438
ElecMinimize: Iter:  50  G: -8738.431257296440890  |grad|_K:  1.379e-07  alpha:  6.649e-02  linmin: -8.549e-08  t[s]:  11799.32
	FillingsUpdate:  mu: +0.226616081  nElectrons: 836.000000  magneticMoment: [ Abs: 0.00004  Tot: -0.00000 ]
	SubspaceRotationAdjust: set factor to 0.491
ElecMinimize: Iter:  51  G: -8738.431258372294906  |grad|_K:  1.308e-07  alpha:  8.805e-02  linmin: -3.926e-07  t[s]:  11969.22
	FillingsUpdate:  mu: +0.226712511  nElectrons: 836.000000  magneticMoment: [ Abs: 0.00004  Tot: -0.00000 ]
	SubspaceRotationAdjust: set factor to 0.397
ElecMinimize: Iter:  52  G: -8738.431259034294271  |grad|_K:  1.108e-07  alpha:  6.024e-02  linmin:  1.019e-08  t[s]:  12139.04
	FillingsUpdate:  mu: +0.226717872  nElectrons: 836.000000  magneticMoment: [ Abs: 0.00004  Tot: -0.00000 ]
	SubspaceRotationAdjust: set factor to 0.423
ElecMinimize: Iter:  53  G: -8738.431259558510646  |grad|_K:  8.360e-08  alpha:  6.659e-02  linmin:  1.001e-07  t[s]:  12308.74
	FillingsUpdate:  mu: +0.226627412  nElectrons: 836.000000  magneticMoment: [ Abs: 0.00003  Tot: -0.00000 ]
	SubspaceRotationAdjust: set factor to 0.428
ElecMinimize: Iter:  54  G: -8738.431259909504661  |grad|_K:  6.762e-08  alpha:  7.833e-02  linmin:  3.011e-07  t[s]:  12478.96
	FillingsUpdate:  mu: +0.226591395  nElectrons: 836.000000  magneticMoment: [ Abs: 0.00003  Tot: -0.00000 ]
	SubspaceRotationAdjust: set factor to 0.418
ElecMinimize: Iter:  55  G: -8738.431260142961037  |grad|_K:  6.641e-08  alpha:  7.967e-02  linmin: -4.609e-07  t[s]:  12648.67
	FillingsUpdate:  mu: +0.226632486  nElectrons: 836.000000  magneticMoment: [ Abs: 0.00002  Tot: -0.00000 ]
	SubspaceRotationAdjust: set factor to 0.402
ElecMinimize: Iter:  56  G: -8738.431260340197696  |grad|_K:  5.474e-08  alpha:  6.951e-02  linmin:  1.795e-07  t[s]:  12819.08
	FillingsUpdate:  mu: +0.226688668  nElectrons: 836.000000  magneticMoment: [ Abs: 0.00002  Tot: -0.00000 ]
	SubspaceRotationAdjust: set factor to 0.398
ElecMinimize: Iter:  57  G: -8738.431260493494847  |grad|_K:  4.514e-08  alpha:  7.986e-02  linmin: -2.038e-07  t[s]:  12989.12
	FillingsUpdate:  mu: +0.226671361  nElectrons: 836.000000  magneticMoment: [ Abs: 0.00002  Tot: -0.00000 ]
	SubspaceRotationAdjust: set factor to 0.434
ElecMinimize: Iter:  58  G: -8738.431260598965309  |grad|_K:  4.036e-08  alpha:  8.067e-02  linmin: -2.143e-07  t[s]:  13159.64
	FillingsUpdate:  mu: +0.226631226  nElectrons: 836.000000  magneticMoment: [ Abs: 0.00002  Tot: +0.00000 ]
	SubspaceRotationAdjust: set factor to 0.368
ElecMinimize: Iter:  59  G: -8738.431260672174176  |grad|_K:  3.489e-08  alpha:  7.027e-02  linmin:  6.858e-08  t[s]:  13331.56
	FillingsUpdate:  mu: +0.226621453  nElectrons: 836.000000  magneticMoment: [ Abs: 0.00001  Tot: +0.00000 ]
	SubspaceRotationAdjust: set factor to 0.453
ElecMinimize: Iter:  60  G: -8738.431260735364049  |grad|_K:  2.759e-08  alpha:  8.051e-02  linmin: -8.057e-08  t[s]:  13502.97
ElecMinimize: Converged (|Delta G|<1.000000e-07 for 2 iters).
Setting wave functions to eigenvectors of Hamiltonian
Converging empty states (this may take a while): |deigs|: 1.432e-02
Vacuum energy after initial minimize, F = -8738.431260735364049

Shifting auxilliary hamiltonian by -0.397921 to set nElectrons=836.000000

-------- Electronic minimization -----------
	Linear fluid (dielectric constant: 78.4, screening length: 8.12261 Bohr) occupying 0.364581 of unit cell:	Completed after 24 iterations at t[s]:  14340.65
	FillingsUpdate:  mu: -0.171300000  nElectrons: 836.000000  magneticMoment: [ Abs: 0.00000  Tot: -0.00000 ]
ElecMinimize: Iter:   0  G: -8738.431797950468535  |grad|_K:  3.389e-06  alpha:  1.000e+00
	Linear fluid (dielectric constant: 78.4, screening length: 8.12261 Bohr) occupying 0.367315 of unit cell:	Completed after 24 iterations at t[s]:  14484.18
	Linear fluid (dielectric constant: 78.4, screening length: 8.12261 Bohr) occupying 0.364626 of unit cell:	Completed after 23 iterations at t[s]:  14532.60
	FillingsUpdate:  mu: -0.171300000  nElectrons: 835.973150  magneticMoment: [ Abs: 0.00000  Tot: -0.00000 ]
	SubspaceRotationAdjust: set factor to 0.226
ElecMinimize: Iter:   1  G: -8738.431865288745030  |grad|_K:  2.184e-06  alpha:  1.527e-02  linmin:  2.440e-02  t[s]:  14598.94
	Linear fluid (dielectric constant: 78.4, screening length: 8.12261 Bohr) occupying 0.364675 of unit cell:	Completed after 12 iterations at t[s]:  14664.40
ElecMinimize: 	Predicted alpha/alphaT>3.000000, increasing alphaT to 4.580167e-02.
	Linear fluid (dielectric constant: 78.4, screening length: 8.12261 Bohr) occupying 0.364773 of unit cell:	Completed after 14 iterations at t[s]:  14710.30
	Linear fluid (dielectric constant: 78.4, screening length: 8.12261 Bohr) occupying 0.364859 of unit cell:	Completed after 14 iterations at t[s]:  14756.12
	FillingsUpdate:  mu: -0.171300000  nElectrons: 835.976658  magneticMoment: [ Abs: 0.00000  Tot: -0.00000 ]
	SubspaceRotationAdjust: set factor to 0.108
ElecMinimize: Iter:   2  G: -8738.431999534352144  |grad|_K:  1.800e-06  alpha:  7.300e-02  linmin:  1.843e-04  t[s]:  14822.26
	Linear fluid (dielectric constant: 78.4, screening length: 8.12261 Bohr) occupying 0.365116 of unit cell:	Completed after 15 iterations at t[s]:  14888.10
	Linear fluid (dielectric constant: 78.4, screening length: 8.12261 Bohr) occupying 0.365017 of unit cell:	Completed after 16 iterations at t[s]:  14934.07
	FillingsUpdate:  mu: -0.171300000  nElectrons: 835.950171  magneticMoment: [ Abs: 0.00000  Tot: -0.00000 ]
	SubspaceRotationAdjust: set factor to 0.0452
	SubspaceRotationAdjust: resetting CG because factor has changed by 0.0997569
	Linear fluid (dielectric constant: 78.4, screening length: 8.12261 Bohr) occupying 0.365017 of unit cell:	Completed after 0 iterations at t[s]:  15014.93
ElecMinimize: 	State modified externally: resetting search direction.
ElecMinimize: Iter:   3  G: -8738.432091867269264  |grad|_K:  6.047e-07  alpha:  4.474e-02
	Linear fluid (dielectric constant: 78.4, screening length: 8.12261 Bohr) occupying 0.365030 of unit cell:	Completed after 13 iterations at t[s]:  15146.74
ElecMinimize: 	Predicted alpha/alphaT>3.000000, increasing alphaT to 1.342270e-01.
	Linear fluid (dielectric constant: 78.4, screening length: 8.12261 Bohr) occupying 0.365056 of unit cell:	Completed after 14 iterations at t[s]:  15192.69
	Linear fluid (dielectric constant: 78.4, screening length: 8.12261 Bohr) occupying 0.365057 of unit cell:	Completed after 7 iterations at t[s]:  15237.68
	FillingsUpdate:  mu: -0.171300000  nElectrons: 835.959331  magneticMoment: [ Abs: 0.00000  Tot: -0.00000 ]
	SubspaceRotationAdjust: set factor to 0.0364
ElecMinimize: Iter:   4  G: -8738.432124162547552  |grad|_K:  4.371e-07  alpha:  1.377e-01  linmin:  2.756e-05  t[s]:  15304.26
	Linear fluid (dielectric constant: 78.4, screening length: 8.12261 Bohr) occupying 0.365125 of unit cell:	Completed after 10 iterations at t[s]:  15369.72
ElecMinimize: 	Predicted alpha/alphaT>3.000000, increasing alphaT to 4.131735e-01.
	Linear fluid (dielectric constant: 78.4, screening length: 8.12261 Bohr) occupying 0.365262 of unit cell:	Completed after 14 iterations at t[s]:  15415.63
	Linear fluid (dielectric constant: 78.4, screening length: 8.12261 Bohr) occupying 0.365415 of unit cell:	Completed after 13 iterations at t[s]:  15461.62
	FillingsUpdate:  mu: -0.171300000  nElectrons: 835.953715  magneticMoment: [ Abs: 0.00000  Tot: -0.00000 ]
	SubspaceRotationAdjust: set factor to 0.0423
ElecMinimize: Iter:   5  G: -8738.432212493304178  |grad|_K:  8.049e-07  alpha:  7.205e-01  linmin: -1.416e-05  t[s]:  15528.06
	Linear fluid (dielectric constant: 78.4, screening length: 8.12261 Bohr) occupying 0.366742 of unit cell:	Completed after 17 iterations at t[s]:  15594.38
	Linear fluid (dielectric constant: 78.4, screening length: 8.12261 Bohr) occupying 0.365703 of unit cell:	Completed after 17 iterations at t[s]:  15640.66
	FillingsUpdate:  mu: -0.171300000  nElectrons: 835.944708  magneticMoment: [ Abs: 0.00000  Tot: -0.00000 ]
	SubspaceRotationAdjust: set factor to 0.0505
ElecMinimize: Iter:   6  G: -8738.432276566960354  |grad|_K:  5.214e-07  alpha:  1.546e-01  linmin:  5.730e-05  t[s]:  15706.94
	Linear fluid (dielectric constant: 78.4, screening length: 8.12261 Bohr) occupying 0.365848 of unit cell:	Completed after 14 iterations at t[s]:  15772.55
	Linear fluid (dielectric constant: 78.4, screening length: 8.12261 Bohr) occupying 0.366122 of unit cell:	Completed after 14 iterations at t[s]:  15818.38
	FillingsUpdate:  mu: -0.171300000  nElectrons: 835.928764  magneticMoment: [ Abs: 0.00000  Tot: -0.00000 ]
	SubspaceRotationAdjust: set factor to 0.0561
ElecMinimize: Iter:   7  G: -8738.432354229382327  |grad|_K:  6.865e-07  alpha:  4.468e-01  linmin: -1.143e-05  t[s]:  15884.44
	Linear fluid (dielectric constant: 78.4, screening length: 8.12261 Bohr) occupying 0.366864 of unit cell:	Completed after 16 iterations at t[s]:  15950.21
	Linear fluid (dielectric constant: 78.4, screening length: 8.12261 Bohr) occupying 0.366537 of unit cell:	Completed after 15 iterations at t[s]:  15996.22
	FillingsUpdate:  mu: -0.171300000  nElectrons: 835.921332  magneticMoment: [ Abs: 0.00000  Tot: -0.00000 ]
	SubspaceRotationAdjust: set factor to 0.056
ElecMinimize: Iter:   8  G: -8738.432429338470683  |grad|_K:  7.668e-07  alpha:  2.483e-01  linmin:  2.707e-06  t[s]:  16062.82
	Linear fluid (dielectric constant: 78.4, screening length: 8.12261 Bohr) occupying 0.367056 of unit cell:	Completed after 16 iterations at t[s]:  16128.89
	Linear fluid (dielectric constant: 78.4, screening length: 8.12261 Bohr) occupying 0.366975 of unit cell:	Completed after 11 iterations at t[s]:  16174.29
	FillingsUpdate:  mu: -0.171300000  nElectrons: 835.906267  magneticMoment: [ Abs: 0.00000  Tot: -0.00000 ]
	SubspaceRotationAdjust: set factor to 0.0633
ElecMinimize: Iter:   9  G: -8738.432508016881911  |grad|_K:  6.029e-07  alpha:  2.088e-01  linmin: -4.843e-06  t[s]:  16240.91
	Linear fluid (dielectric constant: 78.4, screening length: 8.12261 Bohr) occupying 0.367234 of unit cell:	Completed after 14 iterations at t[s]:  16306.63
	Linear fluid (dielectric constant: 78.4, screening length: 8.12261 Bohr) occupying 0.367296 of unit cell:	Completed after 10 iterations at t[s]:  16352.20
	FillingsUpdate:  mu: -0.171300000  nElectrons: 835.894723  magneticMoment: [ Abs: 0.00000  Tot: -0.00000 ]
	SubspaceRotationAdjust: set factor to 0.0674
ElecMinimize: Iter:  10  G: -8738.432568653508497  |grad|_K:  8.499e-07  alpha:  2.598e-01  linmin: -2.884e-06  t[s]:  16418.89
	Linear fluid (dielectric constant: 78.4, screening length: 8.12261 Bohr) occupying 0.367894 of unit cell:	Completed after 16 iterations at t[s]:  16484.63
	Linear fluid (dielectric constant: 78.4, screening length: 8.12261 Bohr) occupying 0.368038 of unit cell:	Completed after 12 iterations at t[s]:  16530.33
	FillingsUpdate:  mu: -0.171300000  nElectrons: 835.879338  magneticMoment: [ Abs: 0.00000  Tot: -0.00000 ]
	SubspaceRotationAdjust: set factor to 0.0669
ElecMinimize: Iter:  11  G: -8738.432719368454855  |grad|_K:  7.987e-07  alpha:  3.247e-01  linmin: -1.272e-05  t[s]:  16596.55
	Linear fluid (dielectric constant: 78.4, screening length: 8.12261 Bohr) occupying 0.368643 of unit cell:	Completed after 16 iterations at t[s]:  16663.04
	Linear fluid (dielectric constant: 78.4, screening length: 8.12261 Bohr) occupying 0.368300 of unit cell:	Completed after 15 iterations at t[s]:  16709.35
	FillingsUpdate:  mu: -0.171300000  nElectrons: 835.868301  magneticMoment: [ Abs: 0.00000  Tot: -0.00000 ]
	SubspaceRotationAdjust: set factor to 0.0675
ElecMinimize: Iter:  12  G: -8738.432775731473157  |grad|_K:  6.188e-07  alpha:  1.377e-01  linmin:  8.372e-06  t[s]:  16775.83
	Linear fluid (dielectric constant: 78.4, screening length: 8.12261 Bohr) occupying 0.368450 of unit cell:	Completed after 13 iterations at t[s]:  16841.26
	Linear fluid (dielectric constant: 78.4, screening length: 8.12261 Bohr) occupying 0.368671 of unit cell:	Completed after 14 iterations at t[s]:  16887.30
	FillingsUpdate:  mu: -0.171300000  nElectrons: 835.861584  magneticMoment: [ Abs: 0.00000  Tot: -0.00000 ]
	SubspaceRotationAdjust: set factor to 0.0688
ElecMinimize: Iter:  13  G: -8738.432860471079039  |grad|_K:  6.939e-07  alpha:  3.454e-01  linmin: -4.590e-06  t[s]:  16953.63
	Linear fluid (dielectric constant: 78.4, screening length: 8.12261 Bohr) occupying 0.369126 of unit cell:	Completed after 15 iterations at t[s]:  17019.34
	Linear fluid (dielectric constant: 78.4, screening length: 8.12261 Bohr) occupying 0.368854 of unit cell:	Completed after 14 iterations at t[s]:  17064.98
	FillingsUpdate:  mu: -0.171300000  nElectrons: 835.854877  magneticMoment: [ Abs: 0.00000  Tot: -0.00000 ]
	SubspaceRotationAdjust: set factor to 0.0747
ElecMinimize: Iter:  14  G: -8738.432902522365112  |grad|_K:  4.590e-07  alpha:  1.363e-01  linmin:  1.068e-05  t[s]:  17131.49
	Linear fluid (dielectric constant: 78.4, screening length: 8.12261 Bohr) occupying 0.368940 of unit cell:	Completed after 11 iterations at t[s]:  17196.64
	Linear fluid (dielectric constant: 78.4, screening length: 8.12261 Bohr) occupying 0.369021 of unit cell:	Completed after 11 iterations at t[s]:  17242.35
	FillingsUpdate:  mu: -0.171300000  nElectrons: 835.852275  magneticMoment: [ Abs: 0.00000  Tot: -0.00000 ]
	SubspaceRotationAdjust: set factor to 0.0812
ElecMinimize: Iter:  15  G: -8738.432938219064454  |grad|_K:  4.724e-07  alpha:  2.646e-01  linmin: -3.803e-06  t[s]:  17308.53
	Linear fluid (dielectric constant: 78.4, screening length: 8.12261 Bohr) occupying 0.369209 of unit cell:	Completed after 13 iterations at t[s]:  17373.87
	Linear fluid (dielectric constant: 78.4, screening length: 8.12261 Bohr) occupying 0.369141 of unit cell:	Completed after 10 iterations at t[s]:  17419.13
	FillingsUpdate:  mu: -0.171300000  nElectrons: 835.850584  magneticMoment: [ Abs: 0.00000  Tot: -0.00000 ]
	SubspaceRotationAdjust: set factor to 0.0902
ElecMinimize: Iter:  16  G: -8738.432962433491412  |grad|_K:  3.945e-07  alpha:  1.691e-01  linmin:  6.605e-07  t[s]:  17485.43
	Linear fluid (dielectric constant: 78.4, screening length: 8.12261 Bohr) occupying 0.369236 of unit cell:	Completed after 12 iterations at t[s]:  17551.57
	Linear fluid (dielectric constant: 78.4, screening length: 8.12261 Bohr) occupying 0.369269 of unit cell:	Completed after 11 iterations at t[s]:  17597.13
	FillingsUpdate:  mu: -0.171300000  nElectrons: 835.846090  magneticMoment: [ Abs: 0.00000  Tot: -0.00000 ]
	SubspaceRotationAdjust: set factor to 0.0914
ElecMinimize: Iter:  17  G: -8738.432985362578620  |grad|_K:  3.796e-07  alpha:  2.296e-01  linmin: -1.071e-05  t[s]:  17663.52
	Linear fluid (dielectric constant: 78.4, screening length: 8.12261 Bohr) occupying 0.369400 of unit cell:	Completed after 13 iterations at t[s]:  17729.33
	Linear fluid (dielectric constant: 78.4, screening length: 8.12261 Bohr) occupying 0.369345 of unit cell:	Completed after 12 iterations at t[s]:  17775.01
	FillingsUpdate:  mu: -0.171300000  nElectrons: 835.848804  magneticMoment: [ Abs: 0.00000  Tot: -0.00000 ]
	SubspaceRotationAdjust: set factor to 0.0772
ElecMinimize: Iter:  18  G: -8738.432997717016406  |grad|_K:  3.133e-07  alpha:  1.333e-01  linmin: -8.247e-07  t[s]:  17842.72
	Linear fluid (dielectric constant: 78.4, screening length: 8.12261 Bohr) occupying 0.369408 of unit cell:	Completed after 13 iterations at t[s]:  17908.21
	Linear fluid (dielectric constant: 78.4, screening length: 8.12261 Bohr) occupying 0.369432 of unit cell:	Completed after 11 iterations at t[s]:  17953.65
	FillingsUpdate:  mu: -0.171300000  nElectrons: 835.844486  magneticMoment: [ Abs: 0.00000  Tot: -0.00000 ]
	SubspaceRotationAdjust: set factor to 0.0603
ElecMinimize: Iter:  19  G: -8738.433009388547362  |grad|_K:  3.428e-07  alpha:  1.854e-01  linmin:  4.002e-07  t[s]:  18020.56
	Linear fluid (dielectric constant: 78.4, screening length: 8.12261 Bohr) occupying 0.369543 of unit cell:	Completed after 14 iterations at t[s]:  18085.99
	Linear fluid (dielectric constant: 78.4, screening length: 8.12261 Bohr) occupying 0.369526 of unit cell:	Completed after 9 iterations at t[s]:  18131.65
	FillingsUpdate:  mu: -0.171300000  nElectrons: 835.846851  magneticMoment: [ Abs: 0.00000  Tot: -0.00000 ]
	SubspaceRotationAdjust: set factor to 0.0631
ElecMinimize: Iter:  20  G: -8738.433021220273076  |grad|_K:  2.340e-07  alpha:  1.569e-01  linmin:  2.665e-06  t[s]:  18197.65
	Linear fluid (dielectric constant: 78.4, screening length: 8.12261 Bohr) occupying 0.369574 of unit cell:	Completed after 11 iterations at t[s]:  18263.18
	Linear fluid (dielectric constant: 78.4, screening length: 8.12261 Bohr) occupying 0.369578 of unit cell:	Completed after 2 iterations at t[s]:  18307.81
	FillingsUpdate:  mu: -0.171300000  nElectrons: 835.847685  magneticMoment: [ Abs: 0.00000  Tot: -0.00000 ]
	SubspaceRotationAdjust: set factor to 0.0679
ElecMinimize: Iter:  21  G: -8738.433027161274367  |grad|_K:  2.340e-07  alpha:  1.692e-01  linmin: -1.159e-05  t[s]:  18374.33
	Linear fluid (dielectric constant: 78.4, screening length: 8.12261 Bohr) occupying 0.369636 of unit cell:	Completed after 12 iterations at t[s]:  18439.69
	Linear fluid (dielectric constant: 78.4, screening length: 8.12261 Bohr) occupying 0.369648 of unit cell:	Completed after 7 iterations at t[s]:  18484.58
	FillingsUpdate:  mu: -0.171300000  nElectrons: 835.845449  magneticMoment: [ Abs: 0.00000  Tot: -0.00000 ]
	SubspaceRotationAdjust: set factor to 0.0615
ElecMinimize: Iter:  22  G: -8738.433034338264406  |grad|_K:  1.746e-07  alpha:  2.042e-01  linmin:  2.804e-05  t[s]:  18551.17
	Linear fluid (dielectric constant: 78.4, screening length: 8.12261 Bohr) occupying 0.369689 of unit cell:	Completed after 12 iterations at t[s]:  18616.51
	Linear fluid (dielectric constant: 78.4, screening length: 8.12261 Bohr) occupying 0.369678 of unit cell:	Completed after 9 iterations at t[s]:  18661.75
	FillingsUpdate:  mu: -0.171300000  nElectrons: 835.846395  magneticMoment: [ Abs: 0.00000  Tot: -0.00000 ]
	SubspaceRotationAdjust: set factor to 0.0602
ElecMinimize: Iter:  23  G: -8738.433037283150043  |grad|_K:  1.543e-07  alpha:  1.510e-01  linmin:  1.171e-05  t[s]:  18728.96
	Linear fluid (dielectric constant: 78.4, screening length: 8.12261 Bohr) occupying 0.369704 of unit cell:	Completed after 3 iterations at t[s]:  18793.74
	Linear fluid (dielectric constant: 78.4, screening length: 8.12261 Bohr) occupying 0.369722 of unit cell:	Completed after 3 iterations at t[s]:  18838.37
	FillingsUpdate:  mu: -0.171300000  nElectrons: 835.845951  magneticMoment: [ Abs: 0.00000  Tot: -0.00000 ]
	SubspaceRotationAdjust: set factor to 0.067
ElecMinimize: Iter:  24  G: -8738.433041120713824  |grad|_K:  1.424e-07  alpha:  2.518e-01  linmin:  9.527e-07  t[s]:  18905.07
	Linear fluid (dielectric constant: 78.4, screening length: 8.12261 Bohr) occupying 0.369762 of unit cell:	Completed after 11 iterations at t[s]:  18970.32
	Linear fluid (dielectric constant: 78.4, screening length: 8.12261 Bohr) occupying 0.369743 of unit cell:	Completed after 11 iterations at t[s]:  19016.01
	FillingsUpdate:  mu: -0.171300000  nElectrons: 835.845131  magneticMoment: [ Abs: 0.00000  Tot: -0.00000 ]
	SubspaceRotationAdjust: set factor to 0.0697
ElecMinimize: Iter:  25  G: -8738.433042851234859  |grad|_K:  1.099e-07  alpha:  1.339e-01  linmin: -2.317e-06  t[s]:  19082.28
	Linear fluid (dielectric constant: 78.4, screening length: 8.12261 Bohr) occupying 0.369756 of unit cell:	Completed after 9 iterations at t[s]:  19147.25
	Linear fluid (dielectric constant: 78.4, screening length: 8.12261 Bohr) occupying 0.369766 of unit cell:	Completed after 9 iterations at t[s]:  19192.62
	FillingsUpdate:  mu: -0.171300000  nElectrons: 835.845660  magneticMoment: [ Abs: 0.00000  Tot: -0.00000 ]
	SubspaceRotationAdjust: set factor to 0.0694
ElecMinimize: Iter:  26  G: -8738.433044651557793  |grad|_K:  1.152e-07  alpha:  2.327e-01  linmin:  1.381e-05  t[s]:  19258.64
	Linear fluid (dielectric constant: 78.4, screening length: 8.12261 Bohr) occupying 0.369793 of unit cell:	Completed after 11 iterations at t[s]:  19323.85
	Linear fluid (dielectric constant: 78.4, screening length: 8.12261 Bohr) occupying 0.369783 of unit cell:	Completed after 8 iterations at t[s]:  19368.95
	FillingsUpdate:  mu: -0.171300000  nElectrons: 835.844945  magneticMoment: [ Abs: 0.00000  Tot: -0.00000 ]
	SubspaceRotationAdjust: set factor to 0.0738
ElecMinimize: Iter:  27  G: -8738.433045908386703  |grad|_K:  8.523e-08  alpha:  1.480e-01  linmin:  1.413e-05  t[s]:  19435.39
	Linear fluid (dielectric constant: 78.4, screening length: 8.12261 Bohr) occupying 0.369794 of unit cell:	Completed after 3 iterations at t[s]:  19500.01
	Linear fluid (dielectric constant: 78.4, screening length: 8.12261 Bohr) occupying 0.369800 of unit cell:	Completed after 6 iterations at t[s]:  19544.74
	FillingsUpdate:  mu: -0.171300000  nElectrons: 835.844953  magneticMoment: [ Abs: 0.00000  Tot: -0.00000 ]
	SubspaceRotationAdjust: set factor to 0.0811
ElecMinimize: Iter:  28  G: -8738.433046997595739  |grad|_K:  9.345e-08  alpha:  2.347e-01  linmin:  3.027e-06  t[s]:  19611.49
	Linear fluid (dielectric constant: 78.4, screening length: 8.12261 Bohr) occupying 0.369820 of unit cell:	Completed after 8 iterations at t[s]:  19676.48
	Linear fluid (dielectric constant: 78.4, screening length: 8.12261 Bohr) occupying 0.369814 of unit cell:	Completed after 3 iterations at t[s]:  19721.11
	FillingsUpdate:  mu: -0.171300000  nElectrons: 835.845007  magneticMoment: [ Abs: 0.00000  Tot: -0.00000 ]
	SubspaceRotationAdjust: set factor to 0.0896
ElecMinimize: Iter:  29  G: -8738.433047886113854  |grad|_K:  7.635e-08  alpha:  1.587e-01  linmin:  1.632e-05  t[s]:  19787.64
	Linear fluid (dielectric constant: 78.4, screening length: 8.12261 Bohr) occupying 0.369824 of unit cell:	Completed after 10 iterations at t[s]:  19852.78
	Linear fluid (dielectric constant: 78.4, screening length: 8.12261 Bohr) occupying 0.369827 of unit cell:	Completed after 6 iterations at t[s]:  19897.68
	FillingsUpdate:  mu: -0.171300000  nElectrons: 835.844060  magneticMoment: [ Abs: 0.00000  Tot: -0.00000 ]
	SubspaceRotationAdjust: set factor to 0.0843
ElecMinimize: Iter:  30  G: -8738.433048673643498  |grad|_K:  9.276e-08  alpha:  2.095e-01  linmin: -1.377e-04  t[s]:  19964.22
	Linear fluid (dielectric constant: 78.4, screening length: 8.12261 Bohr) occupying 0.369848 of unit cell:	Completed after 11 iterations at t[s]:  20029.65
	Linear fluid (dielectric constant: 78.4, screening length: 8.12261 Bohr) occupying 0.369841 of unit cell:	Completed after 10 iterations at t[s]:  20074.77
	FillingsUpdate:  mu: -0.171300000  nElectrons: 835.844806  magneticMoment: [ Abs: 0.00000  Tot: -0.00000 ]
	SubspaceRotationAdjust: set factor to 0.0635
ElecMinimize: Iter:  31  G: -8738.433049454997672  |grad|_K:  7.007e-08  alpha:  1.381e-01  linmin:  1.822e-05  t[s]:  20141.64
	Linear fluid (dielectric constant: 78.4, screening length: 8.12261 Bohr) occupying 0.369849 of unit cell:	Completed after 10 iterations at t[s]:  20206.90
	Linear fluid (dielectric constant: 78.4, screening length: 8.12261 Bohr) occupying 0.369850 of unit cell:	Completed after 0 iterations at t[s]:  20250.80
	FillingsUpdate:  mu: -0.171300000  nElectrons: 835.844170  magneticMoment: [ Abs: 0.00000  Tot: -0.00000 ]
	SubspaceRotationAdjust: set factor to 0.0645
ElecMinimize: Iter:  32  G: -8738.433049917210155  |grad|_K:  6.294e-08  alpha:  1.470e-01  linmin: -6.732e-05  t[s]:  20317.16
	Linear fluid (dielectric constant: 78.4, screening length: 8.12261 Bohr) occupying 0.369857 of unit cell:	Completed after 7 iterations at t[s]:  20381.95
	Linear fluid (dielectric constant: 78.4, screening length: 8.12261 Bohr) occupying 0.369861 of unit cell:	Completed after 6 iterations at t[s]:  20426.74
	FillingsUpdate:  mu: -0.171300000  nElectrons: 835.843685  magneticMoment: [ Abs: 0.00000  Tot: -0.00000 ]
	SubspaceRotationAdjust: set factor to 0.071
ElecMinimize: Iter:  33  G: -8738.433050537789313  |grad|_K:  6.935e-08  alpha:  2.399e-01  linmin: -7.812e-05  t[s]:  20492.92
	Linear fluid (dielectric constant: 78.4, screening length: 8.12261 Bohr) occupying 0.369875 of unit cell:	Completed after 11 iterations at t[s]:  20558.68
	Linear fluid (dielectric constant: 78.4, screening length: 8.12261 Bohr) occupying 0.369869 of unit cell:	Completed after 9 iterations at t[s]:  20603.78
	FillingsUpdate:  mu: -0.171300000  nElectrons: 835.844221  magneticMoment: [ Abs: 0.00000  Tot: -0.00000 ]
	SubspaceRotationAdjust: set factor to 0.0614
ElecMinimize: Iter:  34  G: -8738.433050957806699  |grad|_K:  4.880e-08  alpha:  1.331e-01  linmin:  3.120e-05  t[s]:  20669.94
	Linear fluid (dielectric constant: 78.4, screening length: 8.12261 Bohr) occupying 0.369873 of unit cell:	Completed after 7 iterations at t[s]:  20734.75
	Linear fluid (dielectric constant: 78.4, screening length: 8.12261 Bohr) occupying 0.369876 of unit cell:	Completed after 2 iterations at t[s]:  20779.08
	FillingsUpdate:  mu: -0.171300000  nElectrons: 835.843936  magneticMoment: [ Abs: 0.00000  Tot: -0.00000 ]
	SubspaceRotationAdjust: set factor to 0.0654
ElecMinimize: Iter:  35  G: -8738.433051306605194  |grad|_K:  5.457e-08  alpha:  2.279e-01  linmin: -6.146e-05  t[s]:  20846.44
	Linear fluid (dielectric constant: 78.4, screening length: 8.12261 Bohr) occupying 0.369884 of unit cell:	Completed after 10 iterations at t[s]:  20911.83
	Linear fluid (dielectric constant: 78.4, screening length: 8.12261 Bohr) occupying 0.369881 of unit cell:	Completed after 2 iterations at t[s]:  20956.25
	FillingsUpdate:  mu: -0.171300000  nElectrons: 835.843747  magneticMoment: [ Abs: 0.00000  Tot: -0.00000 ]
	SubspaceRotationAdjust: set factor to 0.0698
ElecMinimize: Iter:  36  G: -8738.433051575639183  |grad|_K:  4.542e-08  alpha:  1.401e-01  linmin:  3.397e-05  t[s]:  21022.89
	Linear fluid (dielectric constant: 78.4, screening length: 8.12261 Bohr) occupying 0.369884 of unit cell:	Completed after 10 iterations at t[s]:  21088.15
	Linear fluid (dielectric constant: 78.4, screening length: 8.12261 Bohr) occupying 0.369884 of unit cell:	Completed after 2 iterations at t[s]:  21132.75
	FillingsUpdate:  mu: -0.171300000  nElectrons: 835.844242  magneticMoment: [ Abs: 0.00000  Tot: -0.00000 ]
	SubspaceRotationAdjust: set factor to 0.0554
ElecMinimize: Iter:  37  G: -8738.433051728183273  |grad|_K:  4.234e-08  alpha:  1.176e-01  linmin: -4.403e-05  t[s]:  21198.89
	Linear fluid (dielectric constant: 78.4, screening length: 8.12261 Bohr) occupying 0.369887 of unit cell:	Completed after 3 iterations at t[s]:  21263.27
[...]
	FillingsUpdate:  mu: -0.171300000  nElectrons: 835.858448  magneticMoment: [ Abs: 0.00000  Tot: -0.00000 ]
	SubspaceRotationAdjust: set factor to 0.0617
ElecMinimize: Iter:   5  G: -8738.435303884280074  |grad|_K:  2.199e-07  alpha:  2.840e-01  linmin:  2.710e-05  t[s]:  72060.00
	Linear fluid (dielectric constant: 78.4, screening length: 8.12261 Bohr) occupying 0.370429 of unit cell:	Completed after 12 iterations at t[s]:  72125.55
	Linear fluid (dielectric constant: 78.4, screening length: 8.12261 Bohr) occupying 0.370430 of unit cell:	Completed after 9 iterations at t[s]:  72170.92
	FillingsUpdate:  mu: -0.171300000  nElectrons: 835.857610  magneticMoment: [ Abs: 0.00000  Tot: -0.00000 ]
	SubspaceRotationAdjust: set factor to 0.0777
ElecMinimize: Iter:   6  G: -8738.435310663291602  |grad|_K:  1.439e-07  alpha:  2.189e-01  linmin:  8.455e-06  t[s]:  72237.22
	Linear fluid (dielectric constant: 78.4, screening length: 8.12261 Bohr) occupying 0.370428 of unit cell:	Completed after 2 iterations at t[s]:  72301.80
	Linear fluid (dielectric constant: 78.4, screening length: 8.12261 Bohr) occupying 0.370428 of unit cell:	Completed after 2 iterations at t[s]:  72346.26
	FillingsUpdate:  mu: -0.171300000  nElectrons: 835.857720  magneticMoment: [ Abs: 0.00000  Tot: -0.00000 ]
	SubspaceRotationAdjust: set factor to 0.0878
ElecMinimize: Iter:   7  G: -8738.435314381109492  |grad|_K:  2.224e-07  alpha:  2.803e-01  linmin:  6.136e-06  t[s]:  72412.40
	Linear fluid (dielectric constant: 78.4, screening length: 8.12261 Bohr) occupying 0.370422 of unit cell:	Completed after 11 iterations at t[s]:  72478.03
	Linear fluid (dielectric constant: 78.4, screening length: 8.12261 Bohr) occupying 0.370421 of unit cell:	Completed after 7 iterations at t[s]:  72523.16
	FillingsUpdate:  mu: -0.171300000  nElectrons: 835.858383  magneticMoment: [ Abs: 0.00000  Tot: -0.00000 ]
	SubspaceRotationAdjust: set factor to 0.0953
ElecMinimize: Iter:   8  G: -8738.435325700947942  |grad|_K:  2.535e-07  alpha:  3.567e-01  linmin: -1.784e-05  t[s]:  72589.49
	Linear fluid (dielectric constant: 78.4, screening length: 8.12261 Bohr) occupying 0.370413 of unit cell:	Completed after 13 iterations at t[s]:  72655.09
	Linear fluid (dielectric constant: 78.4, screening length: 8.12261 Bohr) occupying 0.370417 of unit cell:	Completed after 12 iterations at t[s]:  72700.95
	FillingsUpdate:  mu: -0.171300000  nElectrons: 835.856573  magneticMoment: [ Abs: 0.00000  Tot: -0.00000 ]
	SubspaceRotationAdjust: set factor to 0.0951
ElecMinimize: Iter:   9  G: -8738.435332755299896  |grad|_K:  2.619e-07  alpha:  1.704e-01  linmin:  7.595e-07  t[s]:  72768.16
	Linear fluid (dielectric constant: 78.4, screening length: 8.12261 Bohr) occupying 0.370413 of unit cell:	Completed after 13 iterations at t[s]:  72833.98
	Linear fluid (dielectric constant: 78.4, screening length: 8.12261 Bohr) occupying 0.370411 of unit cell:	Completed after 11 iterations at t[s]:  72879.82
	FillingsUpdate:  mu: -0.171300000  nElectrons: 835.858997  magneticMoment: [ Abs: 0.00000  Tot: -0.00000 ]
	SubspaceRotationAdjust: set factor to 0.0825
ElecMinimize: Iter:  10  G: -8738.435342433587721  |grad|_K:  2.888e-07  alpha:  2.200e-01  linmin:  1.625e-06  t[s]:  72946.24
	Linear fluid (dielectric constant: 78.4, screening length: 8.12261 Bohr) occupying 0.370409 of unit cell:	Completed after 13 iterations at t[s]:  73011.68
	Linear fluid (dielectric constant: 78.4, screening length: 8.12261 Bohr) occupying 0.370410 of unit cell:	Completed after 12 iterations at t[s]:  73058.22
	FillingsUpdate:  mu: -0.171300000  nElectrons: 835.856091  magneticMoment: [ Abs: 0.00000  Tot: -0.00000 ]
	SubspaceRotationAdjust: set factor to 0.0664
ElecMinimize: Iter:  11  G: -8738.435350202942573  |grad|_K:  2.781e-07  alpha:  1.453e-01  linmin:  8.441e-07  t[s]:  73124.56
	Linear fluid (dielectric constant: 78.4, screening length: 8.12261 Bohr) occupying 0.370407 of unit cell:	Completed after 10 iterations at t[s]:  73189.97
	Linear fluid (dielectric constant: 78.4, screening length: 8.12261 Bohr) occupying 0.370406 of unit cell:	Completed after 10 iterations at t[s]:  73235.63
	FillingsUpdate:  mu: -0.171300000  nElectrons: 835.857550  magneticMoment: [ Abs: 0.00000  Tot: -0.00000 ]
	SubspaceRotationAdjust: set factor to 0.0666
ElecMinimize: Iter:  12  G: -8738.435361580393874  |grad|_K:  2.577e-07  alpha:  2.295e-01  linmin:  1.657e-06  t[s]:  73302.33
	Linear fluid (dielectric constant: 78.4, screening length: 8.12261 Bohr) occupying 0.370406 of unit cell:	Completed after 11 iterations at t[s]:  73367.87
	Linear fluid (dielectric constant: 78.4, screening length: 8.12261 Bohr) occupying 0.370406 of unit cell:	Completed after 8 iterations at t[s]:  73413.34
	FillingsUpdate:  mu: -0.171300000  nElectrons: 835.857994  magneticMoment: [ Abs: 0.00000  Tot: -0.00000 ]
	SubspaceRotationAdjust: set factor to 0.071
ElecMinimize: Iter:  13  G: -8738.435367270987626  |grad|_K:  1.694e-07  alpha:  1.336e-01  linmin:  2.928e-06  t[s]:  73479.68
	Linear fluid (dielectric constant: 78.4, screening length: 8.12261 Bohr) occupying 0.370408 of unit cell:	Completed after 11 iterations at t[s]:  73545.01
	Linear fluid (dielectric constant: 78.4, screening length: 8.12261 Bohr) occupying 0.370409 of unit cell:	Completed after 11 iterations at t[s]:  73590.64
	FillingsUpdate:  mu: -0.171300000  nElectrons: 835.856522  magneticMoment: [ Abs: 0.00000  Tot: -0.00000 ]
	SubspaceRotationAdjust: set factor to 0.0613
ElecMinimize: Iter:  14  G: -8738.435370619221430  |grad|_K:  1.629e-07  alpha:  1.816e-01  linmin: -2.686e-05  t[s]:  73657.40
	Linear fluid (dielectric constant: 78.4, screening length: 8.12261 Bohr) occupying 0.370411 of unit cell:	Completed after 13 iterations at t[s]:  73723.16
	Linear fluid (dielectric constant: 78.4, screening length: 8.12261 Bohr) occupying 0.370411 of unit cell:	Completed after 7 iterations at t[s]:  73768.50
	FillingsUpdate:  mu: -0.171300000  nElectrons: 835.857664  magneticMoment: [ Abs: 0.00000  Tot: -0.00000 ]
	SubspaceRotationAdjust: set factor to 0.054
ElecMinimize: Iter:  15  G: -8738.435373081938451  |grad|_K:  9.145e-08  alpha:  1.440e-01  linmin:  1.820e-05  t[s]:  73834.84
	Linear fluid (dielectric constant: 78.4, screening length: 8.12261 Bohr) occupying 0.370412 of unit cell:	Completed after 2 iterations at t[s]:  73899.33
	Linear fluid (dielectric constant: 78.4, screening length: 8.12261 Bohr) occupying 0.370413 of unit cell:	Completed after 2 iterations at t[s]:  73944.10
	FillingsUpdate:  mu: -0.171300000  nElectrons: 835.857694  magneticMoment: [ Abs: 0.00000  Tot: -0.00000 ]
	SubspaceRotationAdjust: set factor to 0.057
ElecMinimize: Iter:  16  G: -8738.435374147880793  |grad|_K:  9.632e-08  alpha:  1.984e-01  linmin: -3.459e-05  t[s]:  74010.78
	Linear fluid (dielectric constant: 78.4, screening length: 8.12261 Bohr) occupying 0.370417 of unit cell:	Completed after 9 iterations at t[s]:  74075.92
	Linear fluid (dielectric constant: 78.4, screening length: 8.12261 Bohr) occupying 0.370416 of unit cell:	Completed after 2 iterations at t[s]:  74120.73
	FillingsUpdate:  mu: -0.171300000  nElectrons: 835.857275  magneticMoment: [ Abs: 0.00000  Tot: -0.00000 ]
	SubspaceRotationAdjust: set factor to 0.055
ElecMinimize: Iter:  17  G: -8738.435375112014299  |grad|_K:  5.875e-08  alpha:  1.614e-01  linmin:  7.106e-05  t[s]:  74186.91
	Linear fluid (dielectric constant: 78.4, screening length: 8.12261 Bohr) occupying 0.370418 of unit cell:	Completed after 7 iterations at t[s]:  74251.88
	Linear fluid (dielectric constant: 78.4, screening length: 8.12261 Bohr) occupying 0.370417 of unit cell:	Completed after 1 iterations at t[s]:  74296.24
	FillingsUpdate:  mu: -0.171300000  nElectrons: 835.857448  magneticMoment: [ Abs: 0.00000  Tot: -0.00000 ]
	SubspaceRotationAdjust: set factor to 0.0552
ElecMinimize: Iter:  18  G: -8738.435375407127140  |grad|_K:  4.270e-08  alpha:  1.341e-01  linmin:  9.670e-05  t[s]:  74362.62
	Linear fluid (dielectric constant: 78.4, screening length: 8.12261 Bohr) occupying 0.370419 of unit cell:	Completed after 2 iterations at t[s]:  74426.91
	Linear fluid (dielectric constant: 78.4, screening length: 8.12261 Bohr) occupying 0.370419 of unit cell:	Completed after 0 iterations at t[s]:  74470.99
	FillingsUpdate:  mu: -0.171300000  nElectrons: 835.857418  magneticMoment: [ Abs: 0.00000  Tot: -0.00000 ]
	SubspaceRotationAdjust: set factor to 0.0613
ElecMinimize: Iter:  19  G: -8738.435375635177479  |grad|_K:  3.137e-08  alpha:  1.941e-01  linmin: -7.164e-04  t[s]:  74537.14
	Linear fluid (dielectric constant: 78.4, screening length: 8.12261 Bohr) occupying 0.370420 of unit cell:	Completed after 5 iterations at t[s]:  74601.83
	Linear fluid (dielectric constant: 78.4, screening length: 8.12261 Bohr) occupying 0.370420 of unit cell:	Completed after 0 iterations at t[s]:  74646.21
	FillingsUpdate:  mu: -0.171300000  nElectrons: 835.857296  magneticMoment: [ Abs: 0.00000  Tot: -0.00000 ]
	SubspaceRotationAdjust: set factor to 0.0648
ElecMinimize: Iter:  20  G: -8738.435375733146429  |grad|_K:  2.752e-08  alpha:  1.538e-01  linmin:  1.004e-04  t[s]:  74712.74
	Linear fluid (dielectric constant: 78.4, screening length: 8.12261 Bohr) occupying 0.370421 of unit cell:	Completed after 2 iterations at t[s]:  74776.94
	Linear fluid (dielectric constant: 78.4, screening length: 8.12261 Bohr) occupying 0.370421 of unit cell:	Completed after 0 iterations at t[s]:  74821.12
	FillingsUpdate:  mu: -0.171300000  nElectrons: 835.857426  magneticMoment: [ Abs: 0.00000  Tot: -0.00000 ]
	SubspaceRotationAdjust: set factor to 0.0777
ElecMinimize: Iter:  21  G: -8738.435375831490092  |grad|_K:  2.205e-08  alpha:  1.992e-01  linmin: -1.276e-03  t[s]:  74887.09
ElecMinimize: Converged (|Delta G|<1.000000e-07 for 2 iters).
Setting wave functions to eigenvectors of Hamiltonian
Converging empty states (this may take a while): |deigs|: 4.473e-08

Computing DFT-D3 correction:
# coordination-number Cu 6.827 8.313 6.850 9.084 9.122 9.142 5.563 9.077 9.133 9.143 9.128 9.141 9.162 9.128 9.111 9.154 9.134 9.143 9.100 6.855 9.029 6.856 9.025 9.110 9.097 9.140 9.162 9.155 6.856 9.125 9.133 9.140 9.129 9.145 9.124 9.079 8.317 9.145 9.134 9.086 6.850 5.566 6.824 6.855
# diagonal-C6 Cu 175.00 175.00 175.00 175.00 175.00 175.00 175.00 175.00 175.00 175.00 175.00 175.00 175.00 175.00 175.00 175.00 175.00 175.00 175.00 175.00 175.00 175.00 175.00 175.00 175.00 175.00 175.00 175.00 175.00 175.00 175.00 175.00 175.00 175.00 175.00 175.00 175.00 175.00 175.00 175.00 175.00 175.00 175.00 175.00
EvdW_6 =   -0.293548
EvdW_8 =   -0.421967

# Ionic positions in cartesian coordinates:
ion Cu   0.000105045978225  14.180405551189223  62.163114778742589 1
ion Cu   0.000123416216485  20.445626899887177  59.362037882805460 1
ion Cu   0.000005402696722   6.117561198114124  60.783060526990830 1
ion Cu  -0.000026786848200  12.195509572615100  57.833797056767423 1
ion Cu   0.000010976818292  18.332265716802965  54.971148186873329 1
ion Cu  -0.000014221145156  16.264860752975402  50.660381579412913 1
ion Cu  -0.000225332498193  22.424353394225097  32.116599710001928 1
ion Cu   0.000001413197512   4.059747750810747  56.451345311515276 1
ion Cu   4.766668208936875  10.163459020459680  53.539046286492535 1
ion Cu   0.000097199622647   2.035426997099102  52.114990714258873 1
ion Cu   0.000010835097033   8.128180995865417  49.230008301979602 1
ion Cu   0.000027579553257  14.227519990044728  46.342650053781142 1
ion Cu  -0.000034462770979  20.317349082246700  43.477768483653954 1
ion Cu  -0.000040891437526  12.201995589156756  42.016601348702075 1
ion Cu  -0.000035185194132  18.276477927141855  39.140375627303641 1
ion Cu   0.000020342729461  22.360301761877384  47.790088779274420 1
ion Cu   0.000099281614515   6.097651620389426  44.914698349791948 1
ion Cu  -0.000049141200788   4.046109897608659  40.598755860139910 1
ion Cu  -0.000000672795799  10.163975174042898  37.718095485684493 1
ion Cu   0.000003705213226  16.212493793508102  34.740233241326514 1
ion Cu  -0.000041855775389   1.998900442057494  36.332324857826094 1
ion Cu  -0.000150930997810   8.138400021215542  33.385074513616267 1
ion Cu   2.383365229060165  16.295186034634995  58.521440430860316 1
ion Cu   2.383355676610117  22.373183761902769  55.714353370153660 1
ion Cu   2.383336151580960   8.128625223583290  57.137135460959620 1
ion Cu   2.383306472025343  14.245803188459991  54.255770204129782 1
ion Cu   2.383365109627551  20.331721453406086  51.375914428636868 1
ion Cu   2.383293278933944  18.288583386625714  47.063350557369070 1
ion Cu   2.383339505175417   2.081675494655045  60.115690003757749 1
ion Cu   2.383396395768001   6.089866044901211  52.837717131947102 1
ion Cu   2.383281251240447  12.193683720421559  49.939506785932913 1
ion Cu   2.383333095553010   4.063835727394607  48.511055864741074 1
ion Cu   2.383387750833530  10.164074195132821  45.623977722119676 1
ion Cu   2.383271947929693  16.257096154576828  42.739158756792591 1
ion Cu   2.383256936376368  -0.038379145923607  39.882986478171240 1
ion Cu   2.383272558486300  14.231795780908085  38.403786080767354 1
ion Cu   2.383260424547660  20.206305357376603  35.494334246450585 1
ion Cu   2.383371829506650   2.027503985211292  44.193723998893674 1
ion Cu   2.383216417686235   8.129188473396416  41.315727871032699 1
ion Cu   2.383317715144296   6.096305973542907  37.021217603584546 1
ion Cu   2.383234167374204  12.174899642116499  34.072511390802461 1
ion Cu   2.383452912631213  18.223584525393534  62.738144780865255 1
ion Cu   2.383138184488990   4.112998610309766  32.690868379385094 1
ion Cu   2.383358062409622  10.155147262640027  61.470833515705678 1

# Forces in Cartesian coordinates:
force Cu   0.000001374296950  -0.000037558220806   0.000195782422015 1
force Cu  -0.000000163974304   0.000062032988660   0.000094086303847 1
force Cu   0.000001218366659   0.000055425675093  -0.000068410921752 1
force Cu   0.000001095879185   0.000088171823590   0.000229102522989 1
force Cu   0.000001233116983   0.000008277713025   0.000074624694087 1
force Cu   0.000000055854935   0.000040172786858  -0.000042023417186 1
force Cu   0.000001133950133  -0.000227834444908  -0.000060335852855 1
force Cu   0.000001303746791  -0.000109435174068   0.000028855333812 1
force Cu   0.000000458203448   0.000117725995948   0.000129958808384 1
force Cu   0.000000504642604  -0.000000768294265  -0.000018496518206 1
force Cu   0.000000421569374  -0.000029456623152   0.000138183502591 1
force Cu   0.000000279052634   0.000089103978215  -0.000127747355754 1
force Cu  -0.000000124901951  -0.000060366858914  -0.000020867176239 1
force Cu  -0.000000370305638  -0.000122900497890  -0.000025789140158 1
force Cu  -0.000000374697216   0.000119573133843  -0.000085240059814 1
force Cu  -0.000000079734783  -0.000023752189919   0.000081255166379 1
force Cu   0.000000074239408  -0.000065832028945  -0.000059987922694 1
force Cu   0.000000720276561  -0.000038276393528  -0.000020418050734 1
force Cu   0.000000498802283   0.000013375537154  -0.000117736086519 1
force Cu  -0.000001621640667  -0.000009769814996  -0.000150365306207 1
force Cu   0.000001077777355  -0.000180042088079  -0.000241723730923 1
force Cu  -0.000000578640211  -0.000003371519267   0.000050347432719 1
force Cu   0.000000636020582   0.000166317725424   0.000217282817926 1
force Cu   0.000000426914744  -0.000107005146009   0.000079537698870 1
force Cu  -0.000001871576725   0.000001424303700   0.000117488459416 1
force Cu   0.000000508203659   0.000028033589537   0.000019550486178 1
force Cu  -0.000000101676856   0.000054419609737   0.000013848373358 1
force Cu   0.000000862353468   0.000034516416942  -0.000068478259989 1
force Cu   0.000000441364714   0.000016649344343   0.000150255704191 1
force Cu   0.000000318731322   0.000104484472112   0.000042010505909 1
force Cu   0.000000489612388   0.000071201477064   0.000043099301499 1
force Cu  -0.000000171576696  -0.000090862910385   0.000142552427011 1
force Cu   0.000000080713070   0.000037377958387  -0.000131315515780 1
force Cu   0.000001878681276  -0.000000416481427   0.000013668404980 1
force Cu   0.000000068825218  -0.000009123932365  -0.000056092850736 1
force Cu   0.000000613085660   0.000126735379428  -0.000045814166535 1
force Cu  -0.000003180591821  -0.000034180601429  -0.000109630971808 1
force Cu   0.000000170304845  -0.000040468802888   0.000031444595947 1
force Cu   0.000001883991790  -0.000126472462182  -0.000125874229455 1
force Cu   0.000000152092532  -0.000067678152714  -0.000235059902433 1
force Cu   0.000000541158979  -0.000056311661172   0.000050452908329 1
force Cu   0.000000368236345   0.000252324185670   0.000050974750235 1
force Cu   0.000000821827394   0.000021805489084  -0.000198787369792 1
force Cu   0.000000271040500   0.000007745707839  -0.000067305989084 1

# Energy components:
   A_diel =        0.0346789851958968
   Eewald =    48945.5957228947372641
       EH =    57180.9849220288815559
     Eloc =  -116675.1043948075675871
      Enl =     1611.3753739023118214
     EvdW =       -0.7155150000932324
      Exc =     -854.0027988076831207
 Exc_core =        2.0666303921981011
       KE =      908.1315818949876757
  MuShift =        0.0175487396494055
-------------------------------------
     Etot =    -8881.6162497773784708
       TS =        0.0015031337207954
-------------------------------------
        F =    -8881.6177529110991600
      muN =     -143.1823770796094948
-------------------------------------
        G =    -8738.4353758314900915


Dumping 'jdft.fillings' ... done
Dumping 'jdft.wfns' ... done
Dumping 'jdft.fluidState' ... done
Dumping 'jdft.ionpos' ... done
Dumping 'jdft.lattice' ... done
Dumping 'jdft.eigenvals' ... done
Dumping 'jdft.eigStats' ... 
	eMin: -4.312690 at state 0 ( [ +0.000000 +0.000000 +0.000000 ] spin 1 )
	HOMO: -0.171361 at state 3 ( [ +0.090909 +0.500000 +0.000000 ] spin 1 )
	mu  : -0.171300
	LUMO: -0.170661 at state 25 ( [ +0.090909 +0.500000 +0.000000 ] spin -1 )
	eMax: +0.237055 at state 3 ( [ +0.090909 +0.500000 +0.000000 ] spin 1 )
	HOMO-LUMO gap: +0.000700
	Optical gap  : +0.000700 at state 3 ( [ +0.090909 +0.500000 +0.000000 ] spin 1 )
Dumping 'jdft.Ecomponents' ... done
IonicMinimize: Iter:   8  G: -8738.435375831490092  |grad|_K:  8.318e-05  alpha:  1.000e+00  linmin: -1.611e-01  t[s]:  75194.17
IonicMinimize: Converged (|grad|_K<1.000000e-04).

#--- Lowdin population analysis ---
# oxidation-state Cu +0.100 +0.029 +0.111 +0.063 +0.073 +0.076 +0.223 +0.065 +0.076 +0.077 +0.077 +0.077 +0.076 +0.076 +0.072 +0.077 +0.078 +0.078 +0.064 +0.122 +0.061 +0.109 +0.061 +0.072 +0.064 +0.077 +0.076 +0.077 +0.122 +0.076 +0.078 +0.077 +0.077 +0.077 +0.073 +0.065 +0.029 +0.076 +0.076 +0.063 +0.112 +0.223 +0.100 +0.109
# magnetic-moments Cu +0.000 +0.000 +0.000 -0.000 -0.000 +0.000 -0.000 -0.000 -0.000 +0.000 +0.000 -0.000 -0.000 -0.000 +0.000 -0.000 +0.000 +0.000 +0.000 -0.000 -0.000 -0.000 -0.000 -0.000 -0.000 +0.000 -0.000 +0.000 -0.000 -0.000 -0.000 -0.000 +0.000 +0.000 +0.000 +0.000 +0.000 +0.000 +0.000 -0.000 -0.000 -0.000 -0.000 -0.000


Dumping 'jdft.n_up' ... done
Dumping 'jdft.n_dn' ... done
Dumping 'jdft.tau_up' ... done
Dumping 'jdft.tau_dn' ... done
Dumping 'jdft.eigenvals' ... done
Dumping 'jdft.eigStats' ... 
	eMin: -4.312690 at state 0 ( [ +0.000000 +0.000000 +0.000000 ] spin 1 )
	HOMO: -0.171361 at state 3 ( [ +0.090909 +0.500000 +0.000000 ] spin 1 )
	mu  : -0.171300
	LUMO: -0.170661 at state 25 ( [ +0.090909 +0.500000 +0.000000 ] spin -1 )
	eMax: +0.237055 at state 3 ( [ +0.090909 +0.500000 +0.000000 ] spin 1 )
	HOMO-LUMO gap: +0.000700
	Optical gap  : +0.000700 at state 3 ( [ +0.090909 +0.500000 +0.000000 ] spin 1 )
Dumping 'jdft.kPts' ... done
Dumping 'jdft.dosUp' ... done.
Dumping 'jdft.dosDn' ... done.
End date and time: Tue Dec  7 12:54:51 2021  (Duration: 0-20:54:58.38)
Done!
