
*************** JDFTx 1.6.0  ***************

Start date and time: Mon Dec  6 17:24:58 2021
Executable /projects/musgravc/apps/jdftx-1.6.1/build/jdftx with command-line: -i in
Running on hosts (process indices):  shas0236.rc.int.colorado.edu (0-23)
Divided in process groups (process indices):  0 (0)  1 (1)  2 (2)  3 (3)  4 (4)  5 (5)  6 (6)  7 (7)  8 (8)  9 (9)  10 (10)  11 (11)  12 (12)  13 (13)  14 (14)  15 (15)  16 (16)  17 (17)  18 (18)  19 (19)  20 (20)  21 (21)  22 (22)  23 (23)
Resource initialization completed at t[s]:      0.00
Run totals: 24 processes, 24 threads, 0 GPUs


Input parsed successfully to the following command list (including defaults):

basis kpoint-dependent
converge-empty-states yes
coords-type Cartesian
core-overlap-check none
coulomb-interaction Periodic
davidson-band-ratio 1.1
density-of-states Etol 1.000000e-06 Esigma 1.000000e-03 \
		Complete \
	Total \
	OrthoOrbital Ag 1   s \
	OrthoOrbital Ag 1   p \
	OrthoOrbital Ag 1   px \
	OrthoOrbital Ag 1   py \
	OrthoOrbital Ag 1   pz \
	OrthoOrbital Ag 1   d \
	OrthoOrbital Ag 1   dxy \
	OrthoOrbital Ag 1   dyz \
	OrthoOrbital Ag 1   dz2 \
	OrthoOrbital Ag 1   dxz \
	OrthoOrbital Ag 1   dx2-y2 \
	OrthoOrbital Ag 2   s \
	OrthoOrbital Ag 2   p \
	OrthoOrbital Ag 2   px \
	OrthoOrbital Ag 2   py \
	OrthoOrbital Ag 2   pz \
	OrthoOrbital Ag 2   d \
	OrthoOrbital Ag 2   dxy \
	OrthoOrbital Ag 2   dyz \
	OrthoOrbital Ag 2   dz2 \
	OrthoOrbital Ag 2   dxz \
	OrthoOrbital Ag 2   dx2-y2 \
	OrthoOrbital Ag 3   s \
	OrthoOrbital Ag 3   p \
	OrthoOrbital Ag 3   px \
	OrthoOrbital Ag 3   py \
	OrthoOrbital Ag 3   pz \
	OrthoOrbital Ag 3   d \
	OrthoOrbital Ag 3   dxy \
	OrthoOrbital Ag 3   dyz \
	OrthoOrbital Ag 3   dz2 \
	OrthoOrbital Ag 3   dxz \
	OrthoOrbital Ag 3   dx2-y2 \
	OrthoOrbital Ag 4   s \
	OrthoOrbital Ag 4   p \
	OrthoOrbital Ag 4   px \
	OrthoOrbital Ag 4   py \
	OrthoOrbital Ag 4   pz \
	OrthoOrbital Ag 4   d \
	OrthoOrbital Ag 4   dxy \
	OrthoOrbital Ag 4   dyz \
	OrthoOrbital Ag 4   dz2 \
	OrthoOrbital Ag 4   dxz \
	OrthoOrbital Ag 4   dx2-y2 \
	OrthoOrbital Ag 5   s \
	OrthoOrbital Ag 5   p \
	OrthoOrbital Ag 5   px \
	OrthoOrbital Ag 5   py \
	OrthoOrbital Ag 5   pz \
	OrthoOrbital Ag 5   d \
	OrthoOrbital Ag 5   dxy \
	OrthoOrbital Ag 5   dyz \
	OrthoOrbital Ag 5   dz2 \
	OrthoOrbital Ag 5   dxz \
	OrthoOrbital Ag 5   dx2-y2 \
	OrthoOrbital Ag 6   s \
	OrthoOrbital Ag 6   p \
	OrthoOrbital Ag 6   px \
	OrthoOrbital Ag 6   py \
	OrthoOrbital Ag 6   pz \
	OrthoOrbital Ag 6   d \
	OrthoOrbital Ag 6   dxy \
	OrthoOrbital Ag 6   dyz \
	OrthoOrbital Ag 6   dz2 \
	OrthoOrbital Ag 6   dxz \
	OrthoOrbital Ag 6   dx2-y2 \
	OrthoOrbital Ag 7   s \
	OrthoOrbital Ag 7   p \
	OrthoOrbital Ag 7   px \
	OrthoOrbital Ag 7   py \
	OrthoOrbital Ag 7   pz \
	OrthoOrbital Ag 7   d \
	OrthoOrbital Ag 7   dxy \
	OrthoOrbital Ag 7   dyz \
	OrthoOrbital Ag 7   dz2 \
	OrthoOrbital Ag 7   dxz \
	OrthoOrbital Ag 7   dx2-y2 \
	OrthoOrbital Ag 8   s \
	OrthoOrbital Ag 8   p \
	OrthoOrbital Ag 8   px \
	OrthoOrbital Ag 8   py \
	OrthoOrbital Ag 8   pz \
	OrthoOrbital Ag 8   d \
	OrthoOrbital Ag 8   dxy \
	OrthoOrbital Ag 8   dyz \
	OrthoOrbital Ag 8   dz2 \
	OrthoOrbital Ag 8   dxz \
	OrthoOrbital Ag 8   dx2-y2 \
	OrthoOrbital Ag 9   s \
	OrthoOrbital Ag 9   p \
	OrthoOrbital Ag 9   px \
	OrthoOrbital Ag 9   py \
	OrthoOrbital Ag 9   pz \
	OrthoOrbital Ag 9   d \
	OrthoOrbital Ag 9   dxy \
	OrthoOrbital Ag 9   dyz \
	OrthoOrbital Ag 9   dz2 \
	OrthoOrbital Ag 9   dxz \
	OrthoOrbital Ag 9   dx2-y2 \
	OrthoOrbital Ag 10   s \
	OrthoOrbital Ag 10   p \
	OrthoOrbital Ag 10   px \
	OrthoOrbital Ag 10   py \
	OrthoOrbital Ag 10   pz \
	OrthoOrbital Ag 10   d \
	OrthoOrbital Ag 10   dxy \
	OrthoOrbital Ag 10   dyz \
	OrthoOrbital Ag 10   dz2 \
	OrthoOrbital Ag 10   dxz \
	OrthoOrbital Ag 10   dx2-y2 \
	OrthoOrbital Ag 11   s \
	OrthoOrbital Ag 11   p \
	OrthoOrbital Ag 11   px \
	OrthoOrbital Ag 11   py \
	OrthoOrbital Ag 11   pz \
	OrthoOrbital Ag 11   d \
	OrthoOrbital Ag 11   dxy \
	OrthoOrbital Ag 11   dyz \
	OrthoOrbital Ag 11   dz2 \
	OrthoOrbital Ag 11   dxz \
	OrthoOrbital Ag 11   dx2-y2 \
	OrthoOrbital Ag 12   s \
	OrthoOrbital Ag 12   p \
	OrthoOrbital Ag 12   px \
	OrthoOrbital Ag 12   py \
	OrthoOrbital Ag 12   pz \
	OrthoOrbital Ag 12   d \
	OrthoOrbital Ag 12   dxy \
	OrthoOrbital Ag 12   dyz \
	OrthoOrbital Ag 12   dz2 \
	OrthoOrbital Ag 12   dxz \
	OrthoOrbital Ag 12   dx2-y2 \
	OrthoOrbital Ag 13   s \
	OrthoOrbital Ag 13   p \
	OrthoOrbital Ag 13   px \
	OrthoOrbital Ag 13   py \
	OrthoOrbital Ag 13   pz \
	OrthoOrbital Ag 13   d \
	OrthoOrbital Ag 13   dxy \
	OrthoOrbital Ag 13   dyz \
	OrthoOrbital Ag 13   dz2 \
	OrthoOrbital Ag 13   dxz \
	OrthoOrbital Ag 13   dx2-y2 \
	OrthoOrbital Ag 14   s \
	OrthoOrbital Ag 14   p \
	OrthoOrbital Ag 14   px \
	OrthoOrbital Ag 14   py \
	OrthoOrbital Ag 14   pz \
	OrthoOrbital Ag 14   d \
	OrthoOrbital Ag 14   dxy \
	OrthoOrbital Ag 14   dyz \
	OrthoOrbital Ag 14   dz2 \
	OrthoOrbital Ag 14   dxz \
	OrthoOrbital Ag 14   dx2-y2 \
	OrthoOrbital Ag 15   s \
	OrthoOrbital Ag 15   p \
	OrthoOrbital Ag 15   px \
	OrthoOrbital Ag 15   py \
	OrthoOrbital Ag 15   pz \
	OrthoOrbital Ag 15   d \
	OrthoOrbital Ag 15   dxy \
	OrthoOrbital Ag 15   dyz \
	OrthoOrbital Ag 15   dz2 \
	OrthoOrbital Ag 15   dxz \
	OrthoOrbital Ag 15   dx2-y2 \
	OrthoOrbital Ag 16   s \
	OrthoOrbital Ag 16   p \
	OrthoOrbital Ag 16   px \
	OrthoOrbital Ag 16   py \
	OrthoOrbital Ag 16   pz \
	OrthoOrbital Ag 16   d \
	OrthoOrbital Ag 16   dxy \
	OrthoOrbital Ag 16   dyz \
	OrthoOrbital Ag 16   dz2 \
	OrthoOrbital Ag 16   dxz \
	OrthoOrbital Ag 16   dx2-y2 \
	OrthoOrbital Ag 17   s \
	OrthoOrbital Ag 17   p \
	OrthoOrbital Ag 17   px \
	OrthoOrbital Ag 17   py \
	OrthoOrbital Ag 17   pz \
	OrthoOrbital Ag 17   d \
	OrthoOrbital Ag 17   dxy \
	OrthoOrbital Ag 17   dyz \
	OrthoOrbital Ag 17   dz2 \
	OrthoOrbital Ag 17   dxz \
	OrthoOrbital Ag 17   dx2-y2 \
	OrthoOrbital Ag 18   s \
	OrthoOrbital Ag 18   p \
	OrthoOrbital Ag 18   px \
	OrthoOrbital Ag 18   py \
	OrthoOrbital Ag 18   pz \
	OrthoOrbital Ag 18   d \
	OrthoOrbital Ag 18   dxy \
	OrthoOrbital Ag 18   dyz \
	OrthoOrbital Ag 18   dz2 \
	OrthoOrbital Ag 18   dxz \
	OrthoOrbital Ag 18   dx2-y2 \
	OrthoOrbital Ag 19   s \
	OrthoOrbital Ag 19   p \
	OrthoOrbital Ag 19   px \
	OrthoOrbital Ag 19   py \
	OrthoOrbital Ag 19   pz \
	OrthoOrbital Ag 19   d \
	OrthoOrbital Ag 19   dxy \
	OrthoOrbital Ag 19   dyz \
	OrthoOrbital Ag 19   dz2 \
	OrthoOrbital Ag 19   dxz \
	OrthoOrbital Ag 19   dx2-y2 \
	OrthoOrbital Ag 20   s \
	OrthoOrbital Ag 20   p \
	OrthoOrbital Ag 20   px \
	OrthoOrbital Ag 20   py \
	OrthoOrbital Ag 20   pz \
	OrthoOrbital Ag 20   d \
	OrthoOrbital Ag 20   dxy \
	OrthoOrbital Ag 20   dyz \
	OrthoOrbital Ag 20   dz2 \
	OrthoOrbital Ag 20   dxz \
	OrthoOrbital Ag 20   dx2-y2 \
	OrthoOrbital Ag 21   s \
	OrthoOrbital Ag 21   p \
	OrthoOrbital Ag 21   px \
	OrthoOrbital Ag 21   py \
	OrthoOrbital Ag 21   pz \
	OrthoOrbital Ag 21   d \
	OrthoOrbital Ag 21   dxy \
	OrthoOrbital Ag 21   dyz \
	OrthoOrbital Ag 21   dz2 \
	OrthoOrbital Ag 21   dxz \
	OrthoOrbital Ag 21   dx2-y2 \
	OrthoOrbital Ag 22   s \
	OrthoOrbital Ag 22   p \
	OrthoOrbital Ag 22   px \
	OrthoOrbital Ag 22   py \
	OrthoOrbital Ag 22   pz \
	OrthoOrbital Ag 22   d \
	OrthoOrbital Ag 22   dxy \
	OrthoOrbital Ag 22   dyz \
	OrthoOrbital Ag 22   dz2 \
	OrthoOrbital Ag 22   dxz \
	OrthoOrbital Ag 22   dx2-y2 \
	OrthoOrbital Ag 23   s \
	OrthoOrbital Ag 23   p \
	OrthoOrbital Ag 23   px \
	OrthoOrbital Ag 23   py \
	OrthoOrbital Ag 23   pz \
	OrthoOrbital Ag 23   d \
	OrthoOrbital Ag 23   dxy \
	OrthoOrbital Ag 23   dyz \
	OrthoOrbital Ag 23   dz2 \
	OrthoOrbital Ag 23   dxz \
	OrthoOrbital Ag 23   dx2-y2 \
	OrthoOrbital Ag 24   s \
	OrthoOrbital Ag 24   p \
	OrthoOrbital Ag 24   px \
	OrthoOrbital Ag 24   py \
	OrthoOrbital Ag 24   pz \
	OrthoOrbital Ag 24   d \
	OrthoOrbital Ag 24   dxy \
	OrthoOrbital Ag 24   dyz \
	OrthoOrbital Ag 24   dz2 \
	OrthoOrbital Ag 24   dxz \
	OrthoOrbital Ag 24   dx2-y2 \
	OrthoOrbital Ag 25   s \
	OrthoOrbital Ag 25   p \
	OrthoOrbital Ag 25   px \
	OrthoOrbital Ag 25   py \
	OrthoOrbital Ag 25   pz \
	OrthoOrbital Ag 25   d \
	OrthoOrbital Ag 25   dxy \
	OrthoOrbital Ag 25   dyz \
	OrthoOrbital Ag 25   dz2 \
	OrthoOrbital Ag 25   dxz \
	OrthoOrbital Ag 25   dx2-y2 \
	OrthoOrbital Ag 26   s \
	OrthoOrbital Ag 26   p \
	OrthoOrbital Ag 26   px \
	OrthoOrbital Ag 26   py \
	OrthoOrbital Ag 26   pz \
	OrthoOrbital Ag 26   d \
	OrthoOrbital Ag 26   dxy \
	OrthoOrbital Ag 26   dyz \
	OrthoOrbital Ag 26   dz2 \
	OrthoOrbital Ag 26   dxz \
	OrthoOrbital Ag 26   dx2-y2
dump End ElecDensity KEdensity BandEigs EigStats RhoAtom DOS Kpoints
dump Ionic State IonicPositions Lattice EigStats Ecomponents
dump 
dump 
dump 
dump 
dump 
dump 
dump 
dump 
dump-name jdft.$VAR
elec-cutoff 20
elec-eigen-algo Davidson
elec-ex-corr gga-PBE
elec-initial-magnetization 0.000000 no
elec-n-bands 297
elec-smearing Fermi 0.001
electronic-minimize  \
	dirUpdateScheme      FletcherReeves \
	linminMethod         DirUpdateRecommended \
	nIterations          100 \
	history              15 \
	knormThreshold       0 \
	energyDiffThreshold  1e-07 \
	nEnergyDiff          2 \
	alphaTstart          1 \
	alphaTmin            1e-10 \
	updateTestStepSize   yes \
	alphaTreduceFactor   0.1 \
	alphaTincreaseFactor 3 \
	nAlphaAdjustMax      3 \
	wolfeEnergy          0.0001 \
	wolfeGradient        0.9 \
	fdTest               no
exchange-regularization WignerSeitzTruncated
fluid LinearPCM 298.000000 1.013250
fluid-anion F- 0.5 MeanFieldLJ \
	epsBulk 1 \
	pMol 0 \
	epsInf 1 \
	Pvap 0 \
	sigmaBulk 0 \
	Rvdw 2.24877 \
	Res 0 \
	tauNuc 343133
fluid-cation Na+ 0.5 MeanFieldLJ \
	epsBulk 1 \
	pMol 0 \
	epsInf 1 \
	Pvap 0 \
	sigmaBulk 0 \
	Rvdw 2.19208 \
	Res 0 \
	tauNuc 343133
fluid-ex-corr lda-TF lda-PZ
fluid-gummel-loop 10 1.000000e-05
fluid-minimize  \
	dirUpdateScheme      PolakRibiere \
	linminMethod         DirUpdateRecommended \
	nIterations          400 \
	history              15 \
	knormThreshold       1e-11 \
	energyDiffThreshold  0 \
	nEnergyDiff          2 \
	alphaTstart          1 \
	alphaTmin            1e-10 \
	updateTestStepSize   yes \
	alphaTreduceFactor   0.1 \
	alphaTincreaseFactor 3 \
	nAlphaAdjustMax      6 \
	wolfeEnergy          0.0001 \
	wolfeGradient        0.9 \
	fdTest               no
fluid-solvent H2O 55.338 ScalarEOS \
	epsBulk 78.4 \
	pMol 0.92466 \
	epsInf 1.77 \
	Pvap 1.06736e-10 \
	sigmaBulk 4.62e-05 \
	Rvdw 2.61727 \
	Res 1.42 \
	tauNuc 343133 \
	poleEl 15 7 1
forces-output-coords Positions
ion Ag  -0.000003000000000  10.630373000000001  24.981363999999996 1
ion Ag   0.000000000000000   4.252144000000000  20.729219999999998 1
ion Ag   3.832835000000001   7.441265000000000  22.855291999999992 1
ion Ag   3.832838000000000   1.063036000000000  18.603148999999995 1
ion Ag  -0.000003000000000   8.504301000000000  14.351004999999999 1
ion Ag   0.000000000000000   2.126072000000000  10.098861999999999 1
ion Ag   3.832835000000001  11.693408000000000  16.477076999999998 1
ion Ag   3.832838000000001   5.315179000000000  12.224932999999998 1
ion Ag  -0.000003000000000  12.756444000000000   7.972789999999999 1
ion Ag   0.000000000000000   6.378215000000000   3.720645999999999 1
ion Ag  -3.832833000000000  13.819480000000000  27.107435999999996 1
ion Ag   3.832835000000001   9.567337000000000   5.846717999999999 1
ion Ag   3.832838000000001   3.189108000000000   1.594575000000000 1
ion Ag   3.832831000000000  12.756444000000000  21.792297999999995 1
ion Ag   3.832835000000000   6.378215000000000  17.540070999999998 1
ion Ag   0.000001000000000   9.567337000000000  19.666142999999998 1
ion Ag   0.000004000000000   3.189108000000000  15.413998999999997 1
ion Ag   3.832831000000001  10.630373000000001  11.161855999999998 1
ion Ag   3.832834000000000   4.252144000000000   6.909711999999998 1
ion Ag   0.000001000000000  13.819480000000000  13.287927999999999 1
ion Ag   0.000001000000000   7.441265000000000   9.035783999999998 1
ion Ag   0.000004000000000   1.063036000000000   4.783640999999999 1
ion Ag   3.832831000000000   8.504301000000000   0.531497000000000 1
ion Ag   3.832834000000001   2.126072000000000  23.918368999999995 1
ion Ag   0.000001000000001  11.693408000000000   2.657569000000000 1
ion Ag   0.000004000000000   5.315179000000000  26.044440999999996 1
ion-species /projects/musgravc/apps/jdftx-1.6.0/build/pseudopotentials/GBRV_v1.5/$ID_pbe_v1.uspp
ion-species /projects/musgravc/apps/jdftx-1.6.0/build/pseudopotentials/GBRV_v1.5/$ID_pbe_v1.2.uspp
ion-species /projects/musgravc/apps/jdftx-1.6.0/build/pseudopotentials/GBRV_v1.5/$ID_pbe_v1.4.uspp
ion-species /projects/musgravc/apps/jdftx-1.6.0/build/pseudopotentials/GBRV_v1.5/$ID_pbe_v1.5.uspp
ion-width Ecut
ionic-minimize  \
	dirUpdateScheme      L-BFGS \
	linminMethod         DirUpdateRecommended \
	nIterations          100 \
	history              15 \
	knormThreshold       0.0001 \
	energyDiffThreshold  1e-06 \
	nEnergyDiff          2 \
	alphaTstart          1 \
	alphaTmin            1e-10 \
	updateTestStepSize   yes \
	alphaTreduceFactor   0.1 \
	alphaTincreaseFactor 3 \
	nAlphaAdjustMax      3 \
	wolfeEnergy          0.0001 \
	wolfeGradient        0.9 \
	fdTest               no
kpoint   0.000000000000   0.000000000000   0.000000000000  1.00000000000000
kpoint-folding 9 4 1 
latt-move-scale 0 0 0
latt-scale 1 1 1 
lattice  \
	   7.665668000000000   -3.832833000000000    0.000000000000000  \
	   0.000000000000000   13.819480000000000    0.000000000000000  \
	   0.000000000000000    0.000000000000000   82.916881000000004 
lattice-minimize  \
	dirUpdateScheme      L-BFGS \
	linminMethod         DirUpdateRecommended \
	nIterations          0 \
	history              15 \
	knormThreshold       0 \
	energyDiffThreshold  1e-06 \
	nEnergyDiff          2 \
	alphaTstart          1 \
	alphaTmin            1e-10 \
	updateTestStepSize   yes \
	alphaTreduceFactor   0.1 \
	alphaTincreaseFactor 3 \
	nAlphaAdjustMax      3 \
	wolfeEnergy          0.0001 \
	wolfeGradient        0.9 \
	fdTest               no
lcao-params 30 1e-06 0.001
pcm-variant CANDLE
spintype z-spin
subspace-rotation-factor 1 yes
symmetries none
symmetry-threshold 0.0001
target-mu -0.1713 no

van-der-waals D3


Applied RMS atom displacement 0 bohrs to make symmetries exact.

---------- Initializing the Grid ----------
R = 
[      7.66567     -3.83283            0  ]
[            0      13.8195            0  ]
[            0            0      82.9169  ]
unit cell volume = 8783.85
G =
[   0.819653   0.227331         -0  ]
[          0   0.454661          0  ]
[          0         -0  0.0757769  ]
Minimum fftbox size, Smin = [  32  60  336  ]
Chosen fftbox size, S = [  32  60  336  ]

---------- Exchange Correlation functional ----------
Initalized PBE GGA exchange.
Initalized PBE GGA correlation.

---------- Setting up pseudopotentials ----------
Width of ionic core gaussian charges (only for fluid interactions / plotting) set to 0.397384

Reading pseudopotential file '/projects/musgravc/apps/jdftx-1.6.0/build/pseudopotentials/GBRV_v1.5/ag_pbe_v1.4.uspp':
  Title: Ag.  Created by USPP 7.3.6 on 1-4-15
  Reference state energy: -147.606242.  19 valence electrons in orbitals:
    |400>  occupation: 2  eigenvalue: -3.637437
    |410>  occupation: 6  eigenvalue: -2.297267
    |420>  occupation: 10  eigenvalue: -0.417763
    |500>  occupation: 0.5  eigenvalue: -0.283525
    |510>  occupation: 0  eigenvalue: -0.122889
  lMax: 2  lLocal: 0  QijEcut: 5.5
  6 projectors sampled on a log grid with 717 points:
    l: 0  eig: -0.283528  rCut: 1.5
    l: 0  eig: -3.637440  rCut: 1.5
    l: 1  eig: -0.122892  rCut: 1.5
    l: 1  eig: -2.297267  rCut: 1.5
    l: 2  eig: -0.417762  rCut: 1.7
    l: 2  eig: -1.000000  rCut: 1.7
  Partial core density with radius 1.2
  Transforming core density to a uniform radial grid of dG=0.02 with 1263 points.
  Transforming local potential to a uniform radial grid of dG=0.02 with 1263 points.
  Transforming nonlocal projectors to a uniform radial grid of dG=0.02 with 432 points.
  Transforming density augmentations to a uniform radial grid of dG=0.02 with 1263 points.
  Transforming atomic orbitals to a uniform radial grid of dG=0.02 with 432 points.
  Core radius for overlap checks: 1.70 bohrs.

Initialized 1 species with 26 total atoms.

Folded 1 k-points by 9x4x1 to 36 k-points.

---------- Setting up k-points, bands, fillings ----------
No reducable k-points. 
Computing the number of bands and number of electrons
Calculating initial fillings.
nElectrons: 494.000000   nBands: 297   nStates: 72

----- Setting up reduced wavefunction bases (one per k-point) -----
average nbasis = 37531.861 , ideal nbasis = 37525.255

----- Initializing Supercell corresponding to k-point mesh -----
Lattice vector linear combinations in supercell:
[   9   0   0  ]
[   0   4   0  ]
[   0   0   1  ]
Supercell lattice vectors:
[  68.991  -15.3313  0  ]
[  0  55.2779  0  ]
[  0  0  82.9169  ]

Initializing DFT-D3 calculator:
	Parameters set for gga-PBE functional
	s6:  1.000  s_r6:  1.217
	s8:  0.722  s_r8:  1.000
	Per-atom parameters loaded for:
	Ag:  sqrtQ[a0]:  5.443  Rcov[a0]:  2.173  CN: [ 0.00 0.97 ]

Initializing DFT-D2 calculator for fluid / solvation:
	Ag:  C6:  427.91 Eh-a0^6  R0: 3.097 a0

---------- Setting up ewald sum ----------
Optimum gaussian width for ewald sums = 4.782365 bohr.
Real space sum over 935 unit cells with max indices [  8  5  2  ]
Reciprocal space sum over 6669 terms with max indices [  4  6  28  ]

Computing DFT-D3 correction:
# coordination-number Ag 6.892 9.199 8.421 9.209 9.211 9.210 9.211 9.211 9.204 8.396 4.628 9.178 5.388 9.178 9.210 9.204 9.211 9.211 9.199 9.211 9.209 8.421 4.627 8.396 6.892 5.388
# diagonal-C6 Ag 268.61 268.61 268.61 268.61 268.61 268.61 268.61 268.61 268.61 268.61 268.61 268.61 268.61 268.61 268.61 268.61 268.61 268.61 268.61 268.61 268.61 268.61 268.61 268.61 268.61 268.61
EvdW_6 =   -0.170292
EvdW_8 =   -0.230198

---------- Allocating electronic variables ----------
Initializing wave functions:  linear combination of atomic orbitals
Ag pseudo-atom occupations:   s ( 2 1 )  p ( 6 0 )  d ( 10 )
	FillingsUpdate:  mu: -0.171300000  nElectrons: 494.000000  magneticMoment: [ Abs: 0.00093  Tot: +0.00003 ]
LCAOMinimize: Iter:   0  G: -3752.7962726291430045  |grad|_K:  7.155e-04  alpha:  1.000e+00
	FillingsUpdate:  mu: -0.171300000  nElectrons: 494.000000  magneticMoment: [ Abs: 0.00081  Tot: +0.00003 ]
LCAOMinimize: Iter:   1  G: -3752.8756248072331800  |grad|_K:  7.486e-04  alpha:  1.109e-01  linmin:  8.398e-02  cgtest: -6.138e-01  t[s]:    244.57
	FillingsUpdate:  mu: -0.171300000  nElectrons: 494.000000  magneticMoment: [ Abs: 0.00073  Tot: +0.00004 ]
LCAOMinimize: Iter:   2  G: -3752.8912877477964685  |grad|_K:  8.847e-04  alpha:  4.097e-02  linmin:  1.550e-03  cgtest:  9.879e-01  t[s]:    338.99
	FillingsUpdate:  mu: -0.171300000  nElectrons: 494.000000  magneticMoment: [ Abs: 0.00071  Tot: +0.00003 ]
LCAOMinimize: Iter:   3  G: -3753.0816172794629892  |grad|_K:  1.703e-04  alpha:  5.761e-02  linmin: -7.284e-02  cgtest:  1.018e-01  t[s]:    433.36
LCAOMinimize: 	Predicted alpha/alphaT>3.000000, increasing alphaT to 1.728172e-01.
	FillingsUpdate:  mu: -0.171300000  nElectrons: 494.000000  magneticMoment: [ Abs: 0.00059  Tot: +0.00003 ]
LCAOMinimize: Iter:   4  G: -3753.1346559412450006  |grad|_K:  9.921e-05  alpha:  4.127e-01  linmin: -2.398e-02  cgtest:  6.267e-02  t[s]:    551.77
	FillingsUpdate:  mu: -0.171300000  nElectrons: 494.000000  magneticMoment: [ Abs: 0.00058  Tot: +0.00002 ]
LCAOMinimize: Iter:   5  G: -3753.1394616818965915  |grad|_K:  7.566e-05  alpha:  1.102e-01  linmin:  1.556e-03  cgtest: -8.567e-02  t[s]:    646.76
	FillingsUpdate:  mu: -0.171300000  nElectrons: 494.000000  magneticMoment: [ Abs: 0.00056  Tot: +0.00002 ]
LCAOMinimize: Iter:   6  G: -3753.1420989210246262  |grad|_K:  1.753e-05  alpha:  1.127e-01  linmin: -4.016e-03  cgtest:  2.935e-01  t[s]:    741.34
LCAOMinimize: Encountered beta<0, resetting CG.
	FillingsUpdate:  mu: -0.171300000  nElectrons: 494.000000  magneticMoment: [ Abs: 0.00056  Tot: +0.00002 ]
LCAOMinimize: Iter:   7  G: -3753.1421697773580490  |grad|_K:  1.693e-05  alpha:  5.593e-02  linmin: -1.387e-04  cgtest:  8.415e-04  t[s]:    835.37
	FillingsUpdate:  mu: -0.171300000  nElectrons: 494.000000  magneticMoment: [ Abs: 0.00056  Tot: +0.00002 ]
LCAOMinimize: Iter:   8  G: -3753.1422357496326185  |grad|_K:  1.130e-05  alpha:  5.557e-02  linmin: -1.040e-03  cgtest:  6.654e-03  t[s]:    929.71
	FillingsUpdate:  mu: -0.171300000  nElectrons: 494.000000  magneticMoment: [ Abs: 0.00056  Tot: +0.00002 ]
LCAOMinimize: Iter:   9  G: -3753.1422886927289255  |grad|_K:  4.980e-06  alpha:  9.890e-02  linmin: -4.315e-03  cgtest: -6.714e-03  t[s]:   1024.80
LCAOMinimize: 	Predicted alpha/alphaT>3.000000, increasing alphaT to 2.966999e-01.
	FillingsUpdate:  mu: -0.171300000  nElectrons: 494.000000  magneticMoment: [ Abs: 0.00056  Tot: +0.00002 ]
LCAOMinimize: Iter:  10  G: -3753.1423254885266942  |grad|_K:  8.455e-07  alpha:  3.534e-01  linmin: -2.289e-02  cgtest:  1.014e-01  t[s]:   1143.23
	FillingsUpdate:  mu: -0.171300000  nElectrons: 494.000000  magneticMoment: [ Abs: 0.00056  Tot: +0.00002 ]
LCAOMinimize: Iter:  11  G: -3753.1423257403830576  |grad|_K:  1.117e-06  alpha:  7.230e-02  linmin:  2.983e-03  cgtest: -4.067e-02  t[s]:   1237.06
	FillingsUpdate:  mu: -0.171300000  nElectrons: 494.000000  magneticMoment: [ Abs: 0.00056  Tot: +0.00002 ]
LCAOMinimize: Iter:  12  G: -3753.1423262162211358  |grad|_K:  1.488e-06  alpha:  1.162e-01  linmin:  1.736e-02  cgtest: -1.699e-01  t[s]:   1332.39
LCAOMinimize: Converged (|Delta G|<1.000000e-06 for 2 iters).
----- createFluidSolver() ----- (Fluid-side solver setup)
   Initializing fluid molecule 'H2O'
     Initializing site 'O'
       Electron density: proportional to exp(-r/0.36935)*erfc((r-0.51523)/0.36823) with norm 6.826
       Charge density: gaussian nuclear width 0.478731 with net site charge 0.826
       Polarizability: cuspless exponential with width 0.32 and norm 3.73
       Hard sphere radius: 2.57003 bohrs
       Positions in reference frame:
         [ +0.000000 +0.000000 +0.000000 ]
     Initializing site 'H'
       Electron density: proportional to exp(-r/0.34641)*erfc((r-0)/0.390882) with norm 0.587
       Charge density: gaussian nuclear width 0.377945 with net site charge -0.413
       Polarizability: cuspless exponential with width 0.39 and norm 3.3
       Positions in reference frame:
         [ +0.000000 -1.441945 +1.122523 ]
         [ +0.000000 +1.441945 +1.122523 ]
     Net charge: 0   dipole magnitude: 0.927204
     Initializing spherical shell mfKernel with radius 2.61727 Bohr
     deltaS corrections:
       site 'O': -7.54299
       site 'H': -6.83917
   Initializing fluid molecule 'Na+'
     Initializing site 'Na'
       Electron density: proportional to exp(-r/0.19682)*erfc((r-0.71491)/0.41314) with norm 8.1383
       Charge density: gaussian nuclear width 0.365347 with net site charge -1
       Hard sphere radius: 1.86327 bohrs
       Positions in reference frame:
         [ +0.000000 +0.000000 +0.000000 ]
     Net charge: -1   dipole magnitude: 0
     Initializing gaussian mfKernel with width: 1.55004 Bohr
     deltaS corrections:
       site 'Na': -22.3555
   Initializing fluid molecule 'F-'
     Initializing site 'F'
       Electron density: proportional to exp(-r/0.38886)*erfc((r-0)/0.438782) with norm 8
       Charge density: gaussian nuclear width 0.374796 with net site charge 1
       Hard sphere radius: 2.39995 bohrs
       Positions in reference frame:
         [ +0.000000 +0.000000 +0.000000 ]
     Net charge: 1   dipole magnitude: 0
     Initializing gaussian mfKernel with width: 1.59012 Bohr
     deltaS corrections:
       site 'F': -9.04335

Correction to mu due to finite nuclear width = -0.055801
   Cavity determined by nc: 0.00142 and sigma: 0.707107
   Nonlocal vdW cavity from gaussian model electron density with norm = 8 and sigma = 0.993594 bohr
   Charge asymmetry in cavity with sensitivity pCavity = 36.5 e-bohr/Eh
   Electrostatic cavity expanded by eta = 1.46 bohrs
   Weighted density cavitation model constrained by Nbulk: 0.0049383 bohr^-3, Pvap: 3.14029 kPa, Rvdw: 2.61727 bohr and sigmaBulk: 4.62e-05 Eh/bohr^2 at T: 298 K.
   Weighted density dispersion model using vdW pair potentials with single solvent site with sqrtC6eff: 0.77 SI.


---- Citations for features of the code used in this run ----

   Software package:
      R. Sundararaman, K. Letchworth-Weaver, K.A. Schwarz, D. Gunceler, Y. Ozhabes and T.A. Arias, 'JDFTx: software for joint density-functional theory', SoftwareX 6, 278 (2017)

   gga-PBE exchange-correlation functional:
      J.P. Perdew, K. Burke and M. Ernzerhof, Phys. Rev. Lett. 77, 3865 (1996)

   Pseudopotentials:
      KF Garrity, JW Bennett, KM Rabe and D Vanderbilt, Comput. Mater. Sci. 81, 446 (2014)

   DFT-D3 dispersion correction:
      S. Grimme, J. Antony, S. Ehrlich and H. Krieg, J. Chem. Phys. 132, 154104 (2010)

   DFT-D2 dispersion correction:
      S. Grimme, J. Comput. Chem. 27, 1787 (2006)

   Charge-asymmetric nonlocally-determined local-electric (CANDLE) solvation model:
      R. Sundararaman and W.A. Goddard III, J. Chem. Phys. 142, 064107 (2015)

   Total energy minimization with Auxiliary Hamiltonian:
      C. Freysoldt, S. Boeck, and J. Neugebauer, Phys. Rev. B 79, 241103(R) (2009)

   Grand-canonical (fixed-potential) DFT:
      R. Sundararaman, W. A. Goddard III and T. A. Arias, J. Chem. Phys. 146, 114104 (2017)

   Linear-tetrahedron sampling for density of states:
      G. Lehmann and M. Taut, Phys. status solidi (b) 54, 469 (1972)

This list may not be complete. Please suggest additional citations or
report any other bugs at https://github.com/shankar1729/jdftx/issues

Initialization completed successfully at t[s]:   1358.18


Computing DFT-D3 correction:
# coordination-number Ag 6.892 9.199 8.421 9.209 9.211 9.210 9.211 9.211 9.204 8.396 4.628 9.178 5.388 9.178 9.210 9.204 9.211 9.211 9.199 9.211 9.209 8.421 4.627 8.396 6.892 5.388
# diagonal-C6 Ag 268.61 268.61 268.61 268.61 268.61 268.61 268.61 268.61 268.61 268.61 268.61 268.61 268.61 268.61 268.61 268.61 268.61 268.61 268.61 268.61 268.61 268.61 268.61 268.61 268.61 268.61
EvdW_6 =   -0.170292
EvdW_8 =   -0.230198
Fluid solver invoked on fresh (random / LCAO) wavefunctions
Running a vacuum solve first:

-------- Initial electronic minimization -----------
	FillingsUpdate:  mu: +0.111550171  nElectrons: 494.000000  magneticMoment: [ Abs: 0.00056  Tot: +0.00002 ]
ElecMinimize: Iter:   0  G: -3753.142883626960611  |grad|_K:  1.769e-05  alpha:  1.000e+00
	FillingsUpdate:  mu: +0.121349846  nElectrons: 494.000000  magneticMoment: [ Abs: 0.00043  Tot: +0.00002 ]
	SubspaceRotationAdjust: set factor to 0.999
ElecMinimize: Iter:   1  G: -3753.250756836280743  |grad|_K:  1.219e-05  alpha:  4.288e-01  linmin:  1.723e-05  t[s]:   1611.20
	FillingsUpdate:  mu: +0.098396260  nElectrons: 494.000000  magneticMoment: [ Abs: 0.00034  Tot: +0.00002 ]
	SubspaceRotationAdjust: set factor to 0.61
ElecMinimize: Iter:   2  G: -3753.280210350888865  |grad|_K:  1.251e-05  alpha:  2.446e-01  linmin: -3.705e-05  t[s]:   1775.15
	FillingsUpdate:  mu: +0.105176110  nElectrons: 494.000000  magneticMoment: [ Abs: 0.00032  Tot: +0.00002 ]
	SubspaceRotationAdjust: set factor to 0.359
ElecMinimize: Iter:   3  G: -3753.284252354583714  |grad|_K:  6.726e-06  alpha:  3.285e-02  linmin:  1.664e-04  t[s]:   1938.77
ElecMinimize: 	Predicted alpha/alphaT>3.000000, increasing alphaT to 9.856088e-02.
	FillingsUpdate:  mu: +0.128699264  nElectrons: 494.000000  magneticMoment: [ Abs: 0.00027  Tot: +0.00003 ]
	SubspaceRotationAdjust: set factor to 0.311
ElecMinimize: Iter:   4  G: -3753.289169924758426  |grad|_K:  5.118e-06  alpha:  1.381e-01  linmin: -3.692e-05  t[s]:   2142.80
	FillingsUpdate:  mu: +0.125682584  nElectrons: 494.000000  magneticMoment: [ Abs: 0.00022  Tot: +0.00002 ]
	SubspaceRotationAdjust: set factor to 0.202
ElecMinimize: Iter:   5  G: -3753.292877684058567  |grad|_K:  4.909e-06  alpha:  1.746e-01  linmin:  1.048e-05  t[s]:   2306.20
	FillingsUpdate:  mu: +0.117151140  nElectrons: 494.000000  magneticMoment: [ Abs: 0.00018  Tot: +0.00002 ]
	SubspaceRotationAdjust: set factor to 0.235
ElecMinimize: Iter:   6  G: -3753.294995203483268  |grad|_K:  2.488e-06  alpha:  1.088e-01  linmin: -4.599e-06  t[s]:   2468.83
	FillingsUpdate:  mu: +0.111083472  nElectrons: 494.000000  magneticMoment: [ Abs: 0.00015  Tot: +0.00002 ]
	SubspaceRotationAdjust: set factor to 0.188
ElecMinimize: Iter:   7  G: -3753.296116771035940  |grad|_K:  2.462e-06  alpha:  2.250e-01  linmin:  3.876e-05  t[s]:   2631.86
	FillingsUpdate:  mu: +0.111501884  nElectrons: 494.000000  magneticMoment: [ Abs: 0.00012  Tot: +0.00002 ]
	SubspaceRotationAdjust: set factor to 0.218
ElecMinimize: Iter:   8  G: -3753.296829240625357  |grad|_K:  1.642e-06  alpha:  1.462e-01  linmin: -7.826e-07  t[s]:   2795.61
	FillingsUpdate:  mu: +0.117099767  nElectrons: 494.000000  magneticMoment: [ Abs: 0.00010  Tot: +0.00002 ]
	SubspaceRotationAdjust: set factor to 0.208
ElecMinimize: Iter:   9  G: -3753.297338808989025  |grad|_K:  1.424e-06  alpha:  2.343e-01  linmin: -7.263e-06  t[s]:   2959.08
	FillingsUpdate:  mu: +0.118888863  nElectrons: 494.000000  magneticMoment: [ Abs: 0.00009  Tot: +0.00002 ]
	SubspaceRotationAdjust: set factor to 0.191
ElecMinimize: Iter:  10  G: -3753.297566240983997  |grad|_K:  1.014e-06  alpha:  1.392e-01  linmin:  5.335e-07  t[s]:   3123.21
	FillingsUpdate:  mu: +0.116539971  nElectrons: 494.000000  magneticMoment: [ Abs: 0.00008  Tot: +0.00002 ]
	SubspaceRotationAdjust: set factor to 0.196
ElecMinimize: Iter:  11  G: -3753.297791314159440  |grad|_K:  9.513e-07  alpha:  2.719e-01  linmin:  2.069e-05  t[s]:   3286.59
	FillingsUpdate:  mu: +0.115413061  nElectrons: 494.000000  magneticMoment: [ Abs: 0.00008  Tot: +0.00002 ]
	SubspaceRotationAdjust: set factor to 0.176
ElecMinimize: Iter:  12  G: -3753.297904987848142  |grad|_K:  7.106e-07  alpha:  1.562e-01  linmin: -2.332e-06  t[s]:   3449.90
	FillingsUpdate:  mu: +0.116277099  nElectrons: 494.000000  magneticMoment: [ Abs: 0.00007  Tot: +0.00002 ]
	SubspaceRotationAdjust: set factor to 0.192
ElecMinimize: Iter:  13  G: -3753.298022527510511  |grad|_K:  7.008e-07  alpha:  2.890e-01  linmin:  1.005e-05  t[s]:   3612.57
	FillingsUpdate:  mu: +0.117395964  nElectrons: 494.000000  magneticMoment: [ Abs: 0.00007  Tot: +0.00001 ]
	SubspaceRotationAdjust: set factor to 0.169
ElecMinimize: Iter:  14  G: -3753.298091108702920  |grad|_K:  5.177e-07  alpha:  1.737e-01  linmin:  1.248e-07  t[s]:   3775.20
	FillingsUpdate:  mu: +0.117885300  nElectrons: 494.000000  magneticMoment: [ Abs: 0.00006  Tot: +0.00001 ]
	SubspaceRotationAdjust: set factor to 0.216
ElecMinimize: Iter:  15  G: -3753.298147026260722  |grad|_K:  4.712e-07  alpha:  2.590e-01  linmin:  2.776e-06  t[s]:   3937.81
	FillingsUpdate:  mu: +0.117519469  nElectrons: 494.000000  magneticMoment: [ Abs: 0.00006  Tot: +0.00001 ]
	SubspaceRotationAdjust: set factor to 0.188
ElecMinimize: Iter:  16  G: -3753.298185463812842  |grad|_K:  4.132e-07  alpha:  2.150e-01  linmin:  1.510e-06  t[s]:   4101.23
	FillingsUpdate:  mu: +0.116975415  nElectrons: 494.000000  magneticMoment: [ Abs: 0.00005  Tot: +0.00001 ]
	SubspaceRotationAdjust: set factor to 0.23
ElecMinimize: Iter:  17  G: -3753.298216161297205  |grad|_K:  2.949e-07  alpha:  2.233e-01  linmin:  3.847e-06  t[s]:   4264.77
	FillingsUpdate:  mu: +0.117239644  nElectrons: 494.000000  magneticMoment: [ Abs: 0.00004  Tot: +0.00001 ]
	SubspaceRotationAdjust: set factor to 0.217
ElecMinimize: Iter:  18  G: -3753.298235111654321  |grad|_K:  3.106e-07  alpha:  2.709e-01  linmin:  7.708e-07  t[s]:   4428.92
	FillingsUpdate:  mu: +0.117680191  nElectrons: 494.000000  magneticMoment: [ Abs: 0.00004  Tot: +0.00001 ]
	SubspaceRotationAdjust: set factor to 0.194
ElecMinimize: Iter:  19  G: -3753.298248897817757  |grad|_K:  1.995e-07  alpha:  1.775e-01  linmin: -6.097e-08  t[s]:   4592.02
	FillingsUpdate:  mu: +0.117748268  nElectrons: 494.000000  magneticMoment: [ Abs: 0.00003  Tot: +0.00001 ]
	SubspaceRotationAdjust: set factor to 0.221
ElecMinimize: Iter:  20  G: -3753.298257808550261  |grad|_K:  1.770e-07  alpha:  2.780e-01  linmin:  4.841e-08  t[s]:   4756.13
	FillingsUpdate:  mu: +0.117621796  nElectrons: 494.000000  magneticMoment: [ Abs: 0.00003  Tot: +0.00001 ]
	SubspaceRotationAdjust: set factor to 0.185
ElecMinimize: Iter:  21  G: -3753.298263301500810  |grad|_K:  1.418e-07  alpha:  2.175e-01  linmin:  2.047e-08  t[s]:   4919.55
	FillingsUpdate:  mu: +0.117549823  nElectrons: 494.000000  magneticMoment: [ Abs: 0.00002  Tot: +0.00000 ]
	SubspaceRotationAdjust: set factor to 0.19
ElecMinimize: Iter:  22  G: -3753.298266513025737  |grad|_K:  9.393e-08  alpha:  1.982e-01  linmin:  2.210e-07  t[s]:   5082.61
	FillingsUpdate:  mu: +0.117616285  nElectrons: 494.000000  magneticMoment: [ Abs: 0.00002  Tot: +0.00000 ]
	SubspaceRotationAdjust: set factor to 0.202
ElecMinimize: Iter:  23  G: -3753.298268698150878  |grad|_K:  8.281e-08  alpha:  3.073e-01  linmin: -5.232e-07  t[s]:   5246.15
	FillingsUpdate:  mu: +0.117648126  nElectrons: 494.000000  magneticMoment: [ Abs: 0.00001  Tot: +0.00000 ]
	SubspaceRotationAdjust: set factor to 0.174
ElecMinimize: Iter:  24  G: -3753.298269826264459  |grad|_K:  6.206e-08  alpha:  2.041e-01  linmin:  1.103e-07  t[s]:   5409.46
	FillingsUpdate:  mu: +0.117625149  nElectrons: 494.000000  magneticMoment: [ Abs: 0.00001  Tot: +0.00000 ]
	SubspaceRotationAdjust: set factor to 0.198
ElecMinimize: Iter:  25  G: -3753.298270639557359  |grad|_K:  4.849e-08  alpha:  2.623e-01  linmin:  1.086e-06  t[s]:   5572.72
	FillingsUpdate:  mu: +0.117605569  nElectrons: 494.000000  magneticMoment: [ Abs: 0.00001  Tot: +0.00000 ]
	SubspaceRotationAdjust: set factor to 0.216
ElecMinimize: Iter:  26  G: -3753.298271161368575  |grad|_K:  4.007e-08  alpha:  2.758e-01  linmin: -7.355e-07  t[s]:   5736.12
	FillingsUpdate:  mu: +0.117612124  nElectrons: 494.000000  magneticMoment: [ Abs: 0.00001  Tot: +0.00000 ]
	SubspaceRotationAdjust: set factor to 0.198
ElecMinimize: Iter:  27  G: -3753.298271460450451  |grad|_K:  3.400e-08  alpha:  2.306e-01  linmin: -6.808e-07  t[s]:   5899.70
	FillingsUpdate:  mu: +0.117620122  nElectrons: 494.000000  magneticMoment: [ Abs: 0.00001  Tot: +0.00000 ]
	SubspaceRotationAdjust: set factor to 0.217
ElecMinimize: Iter:  28  G: -3753.298271693598053  |grad|_K:  2.534e-08  alpha:  2.495e-01  linmin: -4.599e-07  t[s]:   6062.48
	FillingsUpdate:  mu: +0.117610789  nElectrons: 494.000000  magneticMoment: [ Abs: 0.00000  Tot: +0.00000 ]
	SubspaceRotationAdjust: set factor to 0.25
ElecMinimize: Iter:  29  G: -3753.298271851975642  |grad|_K:  2.223e-08  alpha:  3.047e-01  linmin: -3.656e-07  t[s]:   6226.77
	FillingsUpdate:  mu: +0.117607825  nElectrons: 494.000000  magneticMoment: [ Abs: 0.00000  Tot: +0.00000 ]
	SubspaceRotationAdjust: set factor to 0.238
ElecMinimize: Iter:  30  G: -3753.298271948797719  |grad|_K:  1.975e-08  alpha:  2.430e-01  linmin: -2.208e-07  t[s]:   6390.59
	FillingsUpdate:  mu: +0.117611590  nElectrons: 494.000000  magneticMoment: [ Abs: 0.00000  Tot: +0.00000 ]
	SubspaceRotationAdjust: set factor to 0.212
ElecMinimize: Iter:  31  G: -3753.298272015026214  |grad|_K:  1.614e-08  alpha:  2.122e-01  linmin:  2.690e-07  t[s]:   6555.18
ElecMinimize: Converged (|Delta G|<1.000000e-07 for 2 iters).
Setting wave functions to eigenvectors of Hamiltonian
Converging empty states (this may take a while): |deigs|: 1.433e-02
Vacuum energy after initial minimize, F = -3753.298272015026214

Shifting auxilliary hamiltonian by -0.288912 to set nElectrons=494.000000

-------- Electronic minimization -----------
	Linear fluid (dielectric constant: 78.4, screening length: 8.12261 Bohr) occupying 0.560919 of unit cell:	Completed after 23 iterations at t[s]:   7279.67
	FillingsUpdate:  mu: -0.171300000  nElectrons: 494.000000  magneticMoment: [ Abs: 0.00000  Tot: +0.00000 ]
ElecMinimize: Iter:   0  G: -3753.299439892650298  |grad|_K:  3.720e-06  alpha:  1.000e+00
	Linear fluid (dielectric constant: 78.4, screening length: 8.12261 Bohr) occupying 0.563167 of unit cell:	Completed after 23 iterations at t[s]:   7416.46
	Linear fluid (dielectric constant: 78.4, screening length: 8.12261 Bohr) occupying 0.561020 of unit cell:	Completed after 23 iterations at t[s]:   7462.12
	FillingsUpdate:  mu: -0.171300000  nElectrons: 493.952960  magneticMoment: [ Abs: 0.00000  Tot: +0.00000 ]
	SubspaceRotationAdjust: set factor to 0.125
ElecMinimize: Iter:   1  G: -3753.300197042646687  |grad|_K:  1.812e-06  alpha:  5.103e-02  linmin: -1.839e-02  t[s]:   7527.50
	Linear fluid (dielectric constant: 78.4, screening length: 8.12261 Bohr) occupying 0.561144 of unit cell:	Completed after 13 iterations at t[s]:   7587.59
ElecMinimize: 	Predicted alpha/alphaT>3.000000, increasing alphaT to 1.530775e-01.
	Linear fluid (dielectric constant: 78.4, screening length: 8.12261 Bohr) occupying 0.561391 of unit cell:	Completed after 15 iterations at t[s]:   7632.33
	Linear fluid (dielectric constant: 78.4, screening length: 8.12261 Bohr) occupying 0.561387 of unit cell:	Completed after 7 iterations at t[s]:   7675.57
	FillingsUpdate:  mu: -0.171300000  nElectrons: 493.877434  magneticMoment: [ Abs: 0.00000  Tot: +0.00000 ]
	SubspaceRotationAdjust: set factor to 0.0767
ElecMinimize: Iter:   2  G: -3753.300724844391425  |grad|_K:  2.496e-06  alpha:  1.514e-01  linmin:  6.338e-04  t[s]:   7741.20
	Linear fluid (dielectric constant: 78.4, screening length: 8.12261 Bohr) occupying 0.562250 of unit cell:	Completed after 16 iterations at t[s]:   7801.78
	Linear fluid (dielectric constant: 78.4, screening length: 8.12261 Bohr) occupying 0.562143 of unit cell:	Completed after 13 iterations at t[s]:   7846.07
	FillingsUpdate:  mu: -0.171300000  nElectrons: 493.783609  magneticMoment: [ Abs: 0.00000  Tot: +0.00000 ]
	SubspaceRotationAdjust: set factor to 0.0433
ElecMinimize: Iter:   3  G: -3753.301365195323342  |grad|_K:  2.715e-06  alpha:  1.325e-01  linmin:  2.615e-04  t[s]:   7911.83
	Linear fluid (dielectric constant: 78.4, screening length: 8.12261 Bohr) occupying 0.563107 of unit cell:	Completed after 16 iterations at t[s]:   7973.13
	Linear fluid (dielectric constant: 78.4, screening length: 8.12261 Bohr) occupying 0.562903 of unit cell:	Completed after 8 iterations at t[s]:   8016.62
	FillingsUpdate:  mu: -0.171300000  nElectrons: 493.726925  magneticMoment: [ Abs: 0.00000  Tot: +0.00000 ]
	SubspaceRotationAdjust: set factor to 0.0353
ElecMinimize: Iter:   4  G: -3753.301967147384858  |grad|_K:  1.716e-06  alpha:  1.042e-01  linmin: -5.513e-05  t[s]:   8082.10
	Linear fluid (dielectric constant: 78.4, screening length: 8.12261 Bohr) occupying 0.563247 of unit cell:	Completed after 12 iterations at t[s]:   8142.00
	Linear fluid (dielectric constant: 78.4, screening length: 8.12261 Bohr) occupying 0.563482 of unit cell:	Completed after 12 iterations at t[s]:   8185.97
	FillingsUpdate:  mu: -0.171300000  nElectrons: 493.712328  magneticMoment: [ Abs: 0.00000  Tot: +0.00000 ]
	SubspaceRotationAdjust: set factor to 0.043
ElecMinimize: Iter:   5  G: -3753.302389128753930  |grad|_K:  1.514e-06  alpha:  1.762e-01  linmin: -1.413e-04  t[s]:   8252.41
	Linear fluid (dielectric constant: 78.4, screening length: 8.12261 Bohr) occupying 0.563995 of unit cell:	Completed after 13 iterations at t[s]:   8312.62
	Linear fluid (dielectric constant: 78.4, screening length: 8.12261 Bohr) occupying 0.564199 of unit cell:	Completed after 12 iterations at t[s]:   8356.60
	FillingsUpdate:  mu: -0.171300000  nElectrons: 493.700575  magneticMoment: [ Abs: 0.00000  Tot: +0.00000 ]
	SubspaceRotationAdjust: set factor to 0.0466
ElecMinimize: Iter:   6  G: -3753.302853577561109  |grad|_K:  1.544e-06  alpha:  2.470e-01  linmin: -1.612e-04  t[s]:   8422.23
	Linear fluid (dielectric constant: 78.4, screening length: 8.12261 Bohr) occupying 0.565025 of unit cell:	Completed after 15 iterations at t[s]:   8482.48
	Linear fluid (dielectric constant: 78.4, screening length: 8.12261 Bohr) occupying 0.564854 of unit cell:	Completed after 12 iterations at t[s]:   8527.33
	FillingsUpdate:  mu: -0.171300000  nElectrons: 493.677116  magneticMoment: [ Abs: 0.00000  Tot: +0.00000 ]
	SubspaceRotationAdjust: set factor to 0.0643
ElecMinimize: Iter:   7  G: -3753.303234625860114  |grad|_K:  1.243e-06  alpha:  1.956e-01  linmin:  1.118e-05  t[s]:   8592.71
	Linear fluid (dielectric constant: 78.4, screening length: 8.12261 Bohr) occupying 0.565339 of unit cell:	Completed after 13 iterations at t[s]:   8652.49
	Linear fluid (dielectric constant: 78.4, screening length: 8.12261 Bohr) occupying 0.565341 of unit cell:	Completed after 0 iterations at t[s]:   8694.53
	FillingsUpdate:  mu: -0.171300000  nElectrons: 493.653661  magneticMoment: [ Abs: 0.00000  Tot: +0.00000 ]
	SubspaceRotationAdjust: set factor to 0.0698
ElecMinimize: Iter:   8  G: -3753.303479186915865  |grad|_K:  1.228e-06  alpha:  1.967e-01  linmin:  2.228e-05  t[s]:   8760.52
	Linear fluid (dielectric constant: 78.4, screening length: 8.12261 Bohr) occupying 0.565869 of unit cell:	Completed after 13 iterations at t[s]:   8821.36
	Linear fluid (dielectric constant: 78.4, screening length: 8.12261 Bohr) occupying 0.565977 of unit cell:	Completed after 7 iterations at t[s]:   8864.45
	FillingsUpdate:  mu: -0.171300000  nElectrons: 493.639013  magneticMoment: [ Abs: 0.00000  Tot: +0.00000 ]
	SubspaceRotationAdjust: set factor to 0.0885
ElecMinimize: Iter:   9  G: -3753.303767323974171  |grad|_K:  1.314e-06  alpha:  2.375e-01  linmin: -1.634e-05  t[s]:   8929.97
	Linear fluid (dielectric constant: 78.4, screening length: 8.12261 Bohr) occupying 0.566727 of unit cell:	Completed after 15 iterations at t[s]:   8990.11
	Linear fluid (dielectric constant: 78.4, screening length: 8.12261 Bohr) occupying 0.566505 of unit cell:	Completed after 12 iterations at t[s]:   9034.51
	FillingsUpdate:  mu: -0.171300000  nElectrons: 493.644580  magneticMoment: [ Abs: 0.00000  Tot: +0.00000 ]
	SubspaceRotationAdjust: set factor to 0.102
ElecMinimize: Iter:  10  G: -3753.303998864730147  |grad|_K:  1.110e-06  alpha:  1.662e-01  linmin:  4.332e-06  t[s]:   9100.14
	Linear fluid (dielectric constant: 78.4, screening length: 8.12261 Bohr) occupying 0.566905 of unit cell:	Completed after 13 iterations at t[s]:   9160.79
	Linear fluid (dielectric constant: 78.4, screening length: 8.12261 Bohr) occupying 0.567014 of unit cell:	Completed after 11 iterations at t[s]:   9204.72
	FillingsUpdate:  mu: -0.171300000  nElectrons: 493.649994  magneticMoment: [ Abs: 0.00000  Tot: +0.00000 ]
	SubspaceRotationAdjust: set factor to 0.102
ElecMinimize: Iter:  11  G: -3753.304209914588682  |grad|_K:  1.332e-06  alpha:  2.125e-01  linmin: -2.629e-05  t[s]:   9269.88
	Linear fluid (dielectric constant: 78.4, screening length: 8.12261 Bohr) occupying 0.567747 of unit cell:	Completed after 14 iterations at t[s]:   9329.60
	Linear fluid (dielectric constant: 78.4, screening length: 8.12261 Bohr) occupying 0.567632 of unit cell:	Completed after 11 iterations at t[s]:   9373.68
	FillingsUpdate:  mu: -0.171300000  nElectrons: 493.631415  magneticMoment: [ Abs: 0.00000  Tot: +0.00000 ]
	SubspaceRotationAdjust: set factor to 0.131
ElecMinimize: Iter:  12  G: -3753.304464983480102  |grad|_K:  1.184e-06  alpha:  1.779e-01  linmin: -5.327e-06  t[s]:   9440.16
	Linear fluid (dielectric constant: 78.4, screening length: 8.12261 Bohr) occupying 0.568104 of unit cell:	Completed after 15 iterations at t[s]:   9500.37
	Linear fluid (dielectric constant: 78.4, screening length: 8.12261 Bohr) occupying 0.568115 of unit cell:	Completed after 4 iterations at t[s]:   9543.38
	FillingsUpdate:  mu: -0.171300000  nElectrons: 493.608491  magneticMoment: [ Abs: 0.00000  Tot: +0.00000 ]
	SubspaceRotationAdjust: set factor to 0.124
ElecMinimize: Iter:  13  G: -3753.304671177956607  |grad|_K:  1.334e-06  alpha:  1.823e-01  linmin: -2.461e-05  t[s]:   9608.94
	Linear fluid (dielectric constant: 78.4, screening length: 8.12261 Bohr) occupying 0.568682 of unit cell:	Completed after 13 iterations at t[s]:   9668.87
	Linear fluid (dielectric constant: 78.4, screening length: 8.12261 Bohr) occupying 0.568656 of unit cell:	Completed after 7 iterations at t[s]:   9712.13
	FillingsUpdate:  mu: -0.171300000  nElectrons: 493.608275  magneticMoment: [ Abs: 0.00000  Tot: +0.00000 ]
	SubspaceRotationAdjust: set factor to 0.149
ElecMinimize: Iter:  14  G: -3753.304920980417137  |grad|_K:  1.083e-06  alpha:  1.736e-01  linmin:  1.783e-06  t[s]:   9777.73
	Linear fluid (dielectric constant: 78.4, screening length: 8.12261 Bohr) occupying 0.568981 of unit cell:	Completed after 14 iterations at t[s]:   9837.86
	Linear fluid (dielectric constant: 78.4, screening length: 8.12261 Bohr) occupying 0.568994 of unit cell:	Completed after 7 iterations at t[s]:   9881.09
	FillingsUpdate:  mu: -0.171300000  nElectrons: 493.616321  magneticMoment: [ Abs: 0.00000  Tot: +0.00000 ]
	SubspaceRotationAdjust: set factor to 0.138
ElecMinimize: Iter:  15  G: -3753.305091871209697  |grad|_K:  1.214e-06  alpha:  1.810e-01  linmin: -1.201e-05  t[s]:   9946.67
	Linear fluid (dielectric constant: 78.4, screening length: 8.12261 Bohr) occupying 0.569392 of unit cell:	Completed after 14 iterations at t[s]:  10006.43
	Linear fluid (dielectric constant: 78.4, screening length: 8.12261 Bohr) occupying 0.569344 of unit cell:	Completed after 11 iterations at t[s]:  10051.55
	FillingsUpdate:  mu: -0.171300000  nElectrons: 493.599108  magneticMoment: [ Abs: 0.00000  Tot: +0.00000 ]
	SubspaceRotationAdjust: set factor to 0.172
ElecMinimize: Iter:  16  G: -3753.305280214923641  |grad|_K:  8.708e-07  alpha:  1.584e-01  linmin: -1.549e-05  t[s]:  10116.93
	Linear fluid (dielectric constant: 78.4, screening length: 8.12261 Bohr) occupying 0.569513 of unit cell:	Completed after 14 iterations at t[s]:  10177.04
	Linear fluid (dielectric constant: 78.4, screening length: 8.12261 Bohr) occupying 0.569543 of unit cell:	Completed after 11 iterations at t[s]:  10220.80
	FillingsUpdate:  mu: -0.171300000  nElectrons: 493.581466  magneticMoment: [ Abs: 0.00000  Tot: +0.00000 ]
	SubspaceRotationAdjust: set factor to 0.163
ElecMinimize: Iter:  17  G: -3753.305395330276042  |grad|_K:  9.569e-07  alpha:  1.879e-01  linmin: -2.029e-05  t[s]:  10286.53
	Linear fluid (dielectric constant: 78.4, screening length: 8.12261 Bohr) occupying 0.569766 of unit cell:	Completed after 12 iterations at t[s]:  10347.52
	Linear fluid (dielectric constant: 78.4, screening length: 8.12261 Bohr) occupying 0.569701 of unit cell:	Completed after 11 iterations at t[s]:  10391.64
	FillingsUpdate:  mu: -0.171300000  nElectrons: 493.583716  magneticMoment: [ Abs: 0.00000  Tot: +0.00000 ]
	SubspaceRotationAdjust: set factor to 0.156
ElecMinimize: Iter:  18  G: -3753.305492525686532  |grad|_K:  6.978e-07  alpha:  1.315e-01  linmin: -5.662e-07  t[s]:  10457.35
	Linear fluid (dielectric constant: 78.4, screening length: 8.12261 Bohr) occupying 0.569784 of unit cell:	Completed after 11 iterations at t[s]:  10516.89
	Linear fluid (dielectric constant: 78.4, screening length: 8.12261 Bohr) occupying 0.569844 of unit cell:	Completed after 11 iterations at t[s]:  10560.69
	FillingsUpdate:  mu: -0.171300000  nElectrons: 493.579899  magneticMoment: [ Abs: 0.00000  Tot: +0.00000 ]
	SubspaceRotationAdjust: set factor to 0.179
ElecMinimize: Iter:  19  G: -3753.305581926393643  |grad|_K:  6.863e-07  alpha:  2.278e-01  linmin: -1.743e-06  t[s]:  10627.12
	Linear fluid (dielectric constant: 78.4, screening length: 8.12261 Bohr) occupying 0.569985 of unit cell:	Completed after 15 iterations at t[s]:  10687.36
	Linear fluid (dielectric constant: 78.4, screening length: 8.12261 Bohr) occupying 0.569923 of unit cell:	Completed after 12 iterations at t[s]:  10731.47
	FillingsUpdate:  mu: -0.171300000  nElectrons: 493.567475  magneticMoment: [ Abs: 0.00000  Tot: -0.00000 ]
	SubspaceRotationAdjust: set factor to 0.15
ElecMinimize: Iter:  20  G: -3753.305630002221733  |grad|_K:  5.555e-07  alpha:  1.267e-01  linmin:  1.514e-06  t[s]:  10797.18
	Linear fluid (dielectric constant: 78.4, screening length: 8.12261 Bohr) occupying 0.569974 of unit cell:	Completed after 10 iterations at t[s]:  10856.77
	Linear fluid (dielectric constant: 78.4, screening length: 8.12261 Bohr) occupying 0.570008 of unit cell:	Completed after 6 iterations at t[s]:  10899.82
	FillingsUpdate:  mu: -0.171300000  nElectrons: 493.565052  magneticMoment: [ Abs: 0.00000  Tot: -0.00000 ]
	SubspaceRotationAdjust: set factor to 0.191
ElecMinimize: Iter:  21  G: -3753.305682855934720  |grad|_K:  4.521e-07  alpha:  2.126e-01  linmin:  3.646e-06  t[s]:  10965.62
	Linear fluid (dielectric constant: 78.4, screening length: 8.12261 Bohr) occupying 0.570062 of unit cell:	Completed after 12 iterations at t[s]:  11025.47
	Linear fluid (dielectric constant: 78.4, screening length: 8.12261 Bohr) occupying 0.570059 of unit cell:	Completed after 6 iterations at t[s]:  11068.62
	FillingsUpdate:  mu: -0.171300000  nElectrons: 493.568854  magneticMoment: [ Abs: 0.00000  Tot: -0.00000 ]
	SubspaceRotationAdjust: set factor to 0.179
ElecMinimize: Iter:  22  G: -3753.305715766140111  |grad|_K:  4.854e-07  alpha:  1.999e-01  linmin: -6.316e-06  t[s]:  11134.28
	Linear fluid (dielectric constant: 78.4, screening length: 8.12261 Bohr) occupying 0.570116 of unit cell:	Completed after 13 iterations at t[s]:  11194.34
	Linear fluid (dielectric constant: 78.4, screening length: 8.12261 Bohr) occupying 0.570097 of unit cell:	Completed after 11 iterations at t[s]:  11238.56
	FillingsUpdate:  mu: -0.171300000  nElectrons: 493.562805  magneticMoment: [ Abs: 0.00000  Tot: -0.00000 ]
	SubspaceRotationAdjust: set factor to 0.156
ElecMinimize: Iter:  23  G: -3753.305741184754879  |grad|_K:  3.696e-07  alpha:  1.339e-01  linmin: -3.889e-06  t[s]:  11303.83
	Linear fluid (dielectric constant: 78.4, screening length: 8.12261 Bohr) occupying 0.570114 of unit cell:	Completed after 7 iterations at t[s]:  11362.63
	Linear fluid (dielectric constant: 78.4, screening length: 8.12261 Bohr) occupying 0.570126 of unit cell:	Completed after 7 iterations at t[s]:  11406.23
	FillingsUpdate:  mu: -0.171300000  nElectrons: 493.563156  magneticMoment: [ Abs: 0.00000  Tot: -0.00000 ]
	SubspaceRotationAdjust: set factor to 0.182
ElecMinimize: Iter:  24  G: -3753.305766261435565  |grad|_K:  3.089e-07  alpha:  2.279e-01  linmin:  1.401e-05  t[s]:  11472.09
	Linear fluid (dielectric constant: 78.4, screening length: 8.12261 Bohr) occupying 0.570137 of unit cell:	Completed after 11 iterations at t[s]:  11532.22
	Linear fluid (dielectric constant: 78.4, screening length: 8.12261 Bohr) occupying 0.570136 of unit cell:	Completed after 3 iterations at t[s]:  11574.73
	FillingsUpdate:  mu: -0.171300000  nElectrons: 493.566808  magneticMoment: [ Abs: 0.00000  Tot: -0.00000 ]
	SubspaceRotationAdjust: set factor to 0.171
ElecMinimize: Iter:  25  G: -3753.305782598543374  |grad|_K:  3.215e-07  alpha:  2.128e-01  linmin:  2.627e-05  t[s]:  11640.34
	Linear fluid (dielectric constant: 78.4, screening length: 8.12261 Bohr) occupying 0.570137 of unit cell:	Completed after 12 iterations at t[s]:  11699.86
	Linear fluid (dielectric constant: 78.4, screening length: 8.12261 Bohr) occupying 0.570137 of unit cell:	Completed after 11 iterations at t[s]:  11743.74
	FillingsUpdate:  mu: -0.171300000  nElectrons: 493.564030  magneticMoment: [ Abs: 0.00000  Tot: -0.00000 ]
	SubspaceRotationAdjust: set factor to 0.141
ElecMinimize: Iter:  26  G: -3753.305793553742660  |grad|_K:  2.484e-07  alpha:  1.326e-01  linmin: -1.948e-05  t[s]:  11809.26
	Linear fluid (dielectric constant: 78.4, screening length: 8.12261 Bohr) occupying 0.570130 of unit cell:	Completed after 7 iterations at t[s]:  11868.62
	Linear fluid (dielectric constant: 78.4, screening length: 8.12261 Bohr) occupying 0.570125 of unit cell:	Completed after 7 iterations at t[s]:  11912.28
	FillingsUpdate:  mu: -0.171300000  nElectrons: 493.566400  magneticMoment: [ Abs: 0.00000  Tot: -0.00000 ]
	SubspaceRotationAdjust: set factor to 0.165
ElecMinimize: Iter:  27  G: -3753.305804403973525  |grad|_K:  2.036e-07  alpha:  2.180e-01  linmin:  9.072e-06  t[s]:  11977.92
	Linear fluid (dielectric constant: 78.4, screening length: 8.12261 Bohr) occupying 0.570107 of unit cell:	Completed after 11 iterations at t[s]:  12037.51
	Linear fluid (dielectric constant: 78.4, screening length: 8.12261 Bohr) occupying 0.570106 of unit cell:	Completed after 0 iterations at t[s]:  12079.78
	FillingsUpdate:  mu: -0.171300000  nElectrons: 493.570117  magneticMoment: [ Abs: 0.00000  Tot: -0.00000 ]
	SubspaceRotationAdjust: set factor to 0.163
ElecMinimize: Iter:  28  G: -3753.305812078327563  |grad|_K:  2.043e-07  alpha:  2.298e-01  linmin: -9.509e-05  t[s]:  12146.07
	Linear fluid (dielectric constant: 78.4, screening length: 8.12261 Bohr) occupying 0.570077 of unit cell:	Completed after 11 iterations at t[s]:  12205.67
	Linear fluid (dielectric constant: 78.4, screening length: 8.12261 Bohr) occupying 0.570086 of unit cell:	Completed after 9 iterations at t[s]:  12249.04
	FillingsUpdate:  mu: -0.171300000  nElectrons: 493.569323  magneticMoment: [ Abs: 0.00000  Tot: -0.00000 ]
	SubspaceRotationAdjust: set factor to 0.148
ElecMinimize: Iter:  29  G: -3753.305817566445512  |grad|_K:  1.664e-07  alpha:  1.607e-01  linmin:  3.882e-05  t[s]:  12315.11
	Linear fluid (dielectric constant: 78.4, screening length: 8.12261 Bohr) occupying 0.570064 of unit cell:	Completed after 7 iterations at t[s]:  12374.03
	Linear fluid (dielectric constant: 78.4, screening length: 8.12261 Bohr) occupying 0.570054 of unit cell:	Completed after 2 iterations at t[s]:  12416.54
	FillingsUpdate:  mu: -0.171300000  nElectrons: 493.571639  magneticMoment: [ Abs: 0.00000  Tot: -0.00000 ]
	SubspaceRotationAdjust: set factor to 0.172
ElecMinimize: Iter:  30  G: -3753.305822679913490  |grad|_K:  1.431e-07  alpha:  2.300e-01  linmin: -2.097e-05  t[s]:  12482.07
	Linear fluid (dielectric constant: 78.4, screening length: 8.12261 Bohr) occupying 0.570021 of unit cell:	Completed after 10 iterations at t[s]:  12541.63
	Linear fluid (dielectric constant: 78.4, screening length: 8.12261 Bohr) occupying 0.570021 of unit cell:	Completed after 0 iterations at t[s]:  12583.60
	FillingsUpdate:  mu: -0.171300000  nElectrons: 493.574330  magneticMoment: [ Abs: 0.00000  Tot: -0.00000 ]
	SubspaceRotationAdjust: set factor to 0.178
ElecMinimize: Iter:  31  G: -3753.305826529264777  |grad|_K:  1.539e-07  alpha:  2.328e-01  linmin: -1.049e-04  t[s]:  12649.13
	Linear fluid (dielectric constant: 78.4, screening length: 8.12261 Bohr) occupying 0.569974 of unit cell:	Completed after 12 iterations at t[s]:  12708.89
	Linear fluid (dielectric constant: 78.4, screening length: 8.12261 Bohr) occupying 0.569993 of unit cell:	Completed after 9 iterations at t[s]:  12753.67
	FillingsUpdate:  mu: -0.171300000  nElectrons: 493.573581  magneticMoment: [ Abs: 0.00000  Tot: -0.00000 ]
	SubspaceRotationAdjust: set factor to 0.157
ElecMinimize: Iter:  32  G: -3753.305829219689258  |grad|_K:  1.301e-07  alpha:  1.390e-01  linmin:  4.983e-06  t[s]:  12819.24
	Linear fluid (dielectric constant: 78.4, screening length: 8.12261 Bohr) occupying 0.569967 of unit cell:	Completed after 2 iterations at t[s]:  12877.29
	Linear fluid (dielectric constant: 78.4, screening length: 8.12261 Bohr) occupying 0.569948 of unit cell:	Completed after 2 iterations at t[s]:  12919.65
	FillingsUpdate:  mu: -0.171300000  nElectrons: 493.575621  magneticMoment: [ Abs: 0.00000  Tot: -0.00000 ]
	SubspaceRotationAdjust: set factor to 0.193
ElecMinimize: Iter:  33  G: -3753.305832495427694  |grad|_K:  1.176e-07  alpha:  2.413e-01  linmin:  3.228e-05  t[s]:  12984.83
	Linear fluid (dielectric constant: 78.4, screening length: 8.12261 Bohr) occupying 0.569905 of unit cell:	Completed after 11 iterations at t[s]:  13045.09
	Linear fluid (dielectric constant: 78.4, screening length: 8.12261 Bohr) occupying 0.569917 of unit cell:	Completed after 7 iterations at t[s]:  13088.47
	FillingsUpdate:  mu: -0.171300000  nElectrons: 493.578110  magneticMoment: [ Abs: 0.00000  Tot: -0.00000 ]
	SubspaceRotationAdjust: set factor to 0.178
ElecMinimize: Iter:  34  G: -3753.305834380096712  |grad|_K:  1.348e-07  alpha:  1.737e-01  linmin: -6.875e-05  t[s]:  13154.09
	Linear fluid (dielectric constant: 78.4, screening length: 8.12261 Bohr) occupying 0.569873 of unit cell:	Completed after 11 iterations at t[s]:  13213.69
	Linear fluid (dielectric constant: 78.4, screening length: 8.12261 Bohr) occupying 0.569886 of unit cell:	Completed after 6 iterations at t[s]:  13256.64
	FillingsUpdate:  mu: -0.171300000  nElectrons: 493.577793  magneticMoment: [ Abs: 0.00000  Tot: -0.00000 ]
	SubspaceRotationAdjust: set factor to 0.164
ElecMinimize: Iter:  35  G: -3753.305836187827481  |grad|_K:  9.840e-08  alpha:  1.220e-01  linmin:  2.548e-05  t[s]:  13323.21
	Linear fluid (dielectric constant: 78.4, screening length: 8.12261 Bohr) occupying 0.569867 of unit cell:	Completed after 2 iterations at t[s]:  13381.20
	Linear fluid (dielectric constant: 78.4, screening length: 8.12261 Bohr) occupying 0.569845 of unit cell:	Completed after 3 iterations at t[s]:  13423.64
	FillingsUpdate:  mu: -0.171300000  nElectrons: 493.578675  magneticMoment: [ Abs: 0.00000  Tot: -0.00000 ]
	SubspaceRotationAdjust: set factor to 0.183
ElecMinimize: Iter:  36  G: -3753.305838276854956  |grad|_K:  9.867e-08  alpha:  2.682e-01  linmin: -2.627e-05  t[s]:  13489.30
	Linear fluid (dielectric constant: 78.4, screening length: 8.12261 Bohr) occupying 0.569799 of unit cell:	Completed after 11 iterations at t[s]:  13549.01
	Linear fluid (dielectric constant: 78.4, screening length: 8.12261 Bohr) occupying 0.569813 of unit cell:	Completed after 7 iterations at t[s]:  13592.71
	FillingsUpdate:  mu: -0.171300000  nElectrons: 493.580769  magneticMoment: [ Abs: 0.00000  Tot: -0.00000 ]
	SubspaceRotationAdjust: set factor to 0.159
ElecMinimize: Iter:  37  G: -3753.305839754883436  |grad|_K:  9.181e-08  alpha:  1.838e-01  linmin:  8.473e-05  t[s]:  13658.56
	Linear fluid (dielectric constant: 78.4, screening length: 8.12261 Bohr) occupying 0.569785 of unit cell:	Completed after 7 iterations at t[s]:  13717.54
	Linear fluid (dielectric constant: 78.4, screening length: 8.12261 Bohr) occupying 0.569787 of unit cell:	Completed after 2 iterations at t[s]:  13760.12
	FillingsUpdate:  mu: -0.171300000  nElectrons: 493.580576  magneticMoment: [ Abs: 0.00000  Tot: -0.00000 ]
	SubspaceRotationAdjust: set factor to 0.141
ElecMinimize: Iter:  38  G: -3753.305840908052687  |grad|_K:  7.384e-08  alpha:  1.733e-01  linmin: -3.281e-06  t[s]:  13825.76
	Linear fluid (dielectric constant: 78.4, screening length: 8.12261 Bohr) occupying 0.569769 of unit cell:	Completed after 3 iterations at t[s]:  13884.08
	Linear fluid (dielectric constant: 78.4, screening length: 8.12261 Bohr) occupying 0.569762 of unit cell:	Completed after 0 iterations at t[s]:  13926.78
	FillingsUpdate:  mu: -0.171300000  nElectrons: 493.581392  magneticMoment: [ Abs: 0.00000  Tot: -0.00000 ]
	SubspaceRotationAdjust: set factor to 0.153
ElecMinimize: Iter:  39  G: -3753.305841983327355  |grad|_K:  6.268e-08  alpha:  2.436e-01  linmin: -8.321e-05  t[s]:  13992.27
	Linear fluid (dielectric constant: 78.4, screening length: 8.12261 Bohr) occupying 0.569743 of unit cell:	Completed after 8 iterations at t[s]:  14051.26
	Linear fluid (dielectric constant: 78.4, screening length: 8.12261 Bohr) occupying 0.569746 of unit cell:	Completed after 0 iterations at t[s]:  14093.30
	FillingsUpdate:  mu: -0.171300000  nElectrons: 493.582266  magneticMoment: [ Abs: 0.00000  Tot: -0.00000 ]
	SubspaceRotationAdjust: set factor to 0.145
ElecMinimize: Iter:  40  G: -3753.305842649790975  |grad|_K:  6.613e-08  alpha:  2.092e-01  linmin: -3.547e-05  t[s]:  14158.12
	Linear fluid (dielectric constant: 78.4, screening length: 8.12261 Bohr) occupying 0.569729 of unit cell:	Completed after 10 iterations at t[s]:  14217.68
	Linear fluid (dielectric constant: 78.4, screening length: 8.12261 Bohr) occupying 0.569737 of unit cell:	Completed after 7 iterations at t[s]:  14261.57
	FillingsUpdate:  mu: -0.171300000  nElectrons: 493.581813  magneticMoment: [ Abs: 0.00000  Tot: -0.00000 ]
	SubspaceRotationAdjust: set factor to 0.12
ElecMinimize: Iter:  41  G: -3753.305843038887815  |grad|_K:  4.914e-08  alpha:  1.136e-01  linmin:  4.974e-05  t[s]:  14327.15
	Linear fluid (dielectric constant: 78.4, screening length: 8.12261 Bohr) occupying 0.569732 of unit cell:	Completed after 2 iterations at t[s]:  14385.35
	Linear fluid (dielectric constant: 78.4, screening length: 8.12261 Bohr) occupying 0.569727 of unit cell:	Completed after 0 iterations at t[s]:  14427.32
	FillingsUpdate:  mu: -0.171300000  nElectrons: 493.582040  magneticMoment: [ Abs: 0.00000  Tot: +0.00000 ]
	SubspaceRotationAdjust: set factor to 0.147
ElecMinimize: Iter:  42  G: -3753.305843474064659  |grad|_K:  4.167e-08  alpha:  2.187e-01  linmin: -4.307e-04  t[s]:  14492.88
	Linear fluid (dielectric constant: 78.4, screening length: 8.12261 Bohr) occupying 0.569721 of unit cell:	Completed after 6 iterations at t[s]:  14552.57
	Linear fluid (dielectric constant: 78.4, screening length: 8.12261 Bohr) occupying 0.569722 of unit cell:	Completed after 0 iterations at t[s]:  14594.60
	FillingsUpdate:  mu: -0.171300000  nElectrons: 493.582715  magneticMoment: [ Abs: 0.00000  Tot: +0.00000 ]
	SubspaceRotationAdjust: set factor to 0.135
ElecMinimize: Iter:  43  G: -3753.305843756485501  |grad|_K:  3.892e-08  alpha:  1.936e-01  linmin:  2.983e-04  t[s]:  14659.98
	Linear fluid (dielectric constant: 78.4, screening length: 8.12261 Bohr) occupying 0.569718 of unit cell:	Completed after 2 iterations at t[s]:  14718.01
	Linear fluid (dielectric constant: 78.4, screening length: 8.12261 Bohr) occupying 0.569718 of unit cell:	Completed after 0 iterations at t[s]:  14760.31
	FillingsUpdate:  mu: -0.171300000  nElectrons: 493.582577  magneticMoment: [ Abs: 0.00000  Tot: +0.00000 ]
	SubspaceRotationAdjust: set factor to 0.157
ElecMinimize: Iter:  44  G: -3753.305843983996965  |grad|_K:  3.154e-08  alpha:  1.921e-01  linmin: -3.015e-04  t[s]:  14826.84
	Linear fluid (dielectric constant: 78.4, screening length: 8.12261 Bohr) occupying 0.569715 of unit cell:	Completed after 6 iterations at t[s]:  14885.99
	Linear fluid (dielectric constant: 78.4, screening length: 8.12261 Bohr) occupying 0.569715 of unit cell:	Completed after 0 iterations at t[s]:  14927.84
	FillingsUpdate:  mu: -0.171300000  nElectrons: 493.582307  magneticMoment: [ Abs: 0.00000  Tot: +0.00000 ]
	SubspaceRotationAdjust: set factor to 0.159
ElecMinimize: Iter:  45  G: -3753.305844143036666  |grad|_K:  3.546e-08  alpha:  1.927e-01  linmin: -6.779e-04  t[s]:  14993.29
	Linear fluid (dielectric constant: 78.4, screening length: 8.12261 Bohr) occupying 0.569713 of unit cell:	Completed after 7 iterations at t[s]:  15052.26
	Linear fluid (dielectric constant: 78.4, screening length: 8.12261 Bohr) occupying 0.569714 of unit cell:	Completed after 2 iterations at t[s]:  15094.81
	FillingsUpdate:  mu: -0.171300000  nElectrons: 493.582677  magneticMoment: [ Abs: 0.00000  Tot: +0.00000 ]
	SubspaceRotationAdjust: set factor to 0.138
ElecMinimize: Iter:  46  G: -3753.305844279169378  |grad|_K:  2.662e-08  alpha:  1.256e-01  linmin:  3.771e-04  t[s]:  15160.58
	Linear fluid (dielectric constant: 78.4, screening length: 8.12261 Bohr) occupying 0.569713 of unit cell:	Completed after 0 iterations at t[s]:  15217.98
	Linear fluid (dielectric constant: 78.4, screening length: 8.12261 Bohr) occupying 0.569712 of unit cell:	Completed after 2 iterations at t[s]:  15260.15
	FillingsUpdate:  mu: -0.171300000  nElectrons: 493.582652  magneticMoment: [ Abs: 0.00000  Tot: +0.00000 ]
	SubspaceRotationAdjust: set factor to 0.166
ElecMinimize: Iter:  47  G: -3753.305844400985734  |grad|_K:  2.324e-08  alpha:  2.290e-01  linmin:  9.707e-05  t[s]:  15325.54
	Linear fluid (dielectric constant: 78.4, screening length: 8.12261 Bohr) occupying 0.569712 of unit cell:	Completed after 4 iterations at t[s]:  15384.01
	Linear fluid (dielectric constant: 78.4, screening length: 8.12261 Bohr) occupying 0.569712 of unit cell:	Completed after 2 iterations at t[s]:  15427.19
	FillingsUpdate:  mu: -0.171300000  nElectrons: 493.582383  magneticMoment: [ Abs: 0.00000  Tot: +0.00000 ]
	SubspaceRotationAdjust: set factor to 0.157
ElecMinimize: Iter:  48  G: -3753.305844475813956  |grad|_K:  2.267e-08  alpha:  1.851e-01  linmin: -4.002e-05  t[s]:  15492.80
	Linear fluid (dielectric constant: 78.4, screening length: 8.12261 Bohr) occupying 0.569712 of unit cell:	Completed after 2 iterations at t[s]:  15551.27
	Linear fluid (dielectric constant: 78.4, screening length: 8.12261 Bohr) occupying 0.569712 of unit cell:	Completed after 0 iterations at t[s]:  15593.12
	FillingsUpdate:  mu: -0.171300000  nElectrons: 493.582574  magneticMoment: [ Abs: 0.00000  Tot: +0.00000 ]
	SubspaceRotationAdjust: set factor to 0.196
ElecMinimize: Iter:  49  G: -3753.305844557386536  |grad|_K:  1.897e-08  alpha:  1.963e-01  linmin: -1.185e-04  t[s]:  15658.77
ElecMinimize: Converged (|Delta G|<1.000000e-07 for 2 iters).
Setting wave functions to eigenvectors of Hamiltonian
Converging empty states (this may take a while): |deigs|: 3.045e-04
Single-point solvation energy estimate, DeltaG = -0.007572542360322

Computing DFT-D3 correction:
# coordination-number Ag 6.892 9.199 8.421 9.209 9.211 9.210 9.211 9.211 9.204 8.396 4.628 9.178 5.388 9.178 9.210 9.204 9.211 9.211 9.199 9.211 9.209 8.421 4.627 8.396 6.892 5.388
# diagonal-C6 Ag 268.61 268.61 268.61 268.61 268.61 268.61 268.61 268.61 268.61 268.61 268.61 268.61 268.61 268.61 268.61 268.61 268.61 268.61 268.61 268.61 268.61 268.61 268.61 268.61 268.61 268.61
EvdW_6 =   -0.170292
EvdW_8 =   -0.230198

# Ionic positions in cartesian coordinates:
ion Ag  -0.000003000000000  10.630373000000001  24.981363999999996 1
ion Ag   0.000000000000000   4.252144000000000  20.729219999999998 1
ion Ag   3.832835000000001   7.441265000000000  22.855291999999992 1
ion Ag   3.832838000000000   1.063036000000000  18.603148999999995 1
ion Ag  -0.000003000000000   8.504301000000000  14.351004999999999 1
ion Ag   0.000000000000000   2.126072000000000  10.098861999999999 1
ion Ag   3.832835000000001  11.693408000000000  16.477076999999998 1
ion Ag   3.832838000000001   5.315179000000000  12.224932999999998 1
ion Ag  -0.000003000000000  12.756444000000000   7.972789999999999 1
ion Ag   0.000000000000000   6.378215000000000   3.720645999999999 1
ion Ag  -3.832833000000000  13.819480000000000  27.107435999999996 1
ion Ag   3.832835000000001   9.567337000000000   5.846717999999999 1
ion Ag   3.832838000000001   3.189108000000000   1.594575000000000 1
ion Ag   3.832831000000000  12.756444000000000  21.792297999999995 1
ion Ag   3.832835000000000   6.378215000000000  17.540070999999998 1
ion Ag   0.000001000000000   9.567337000000000  19.666142999999998 1
ion Ag   0.000004000000000   3.189108000000000  15.413998999999997 1
ion Ag   3.832831000000001  10.630373000000001  11.161855999999998 1
ion Ag   3.832834000000000   4.252144000000000   6.909711999999998 1
ion Ag   0.000001000000000  13.819480000000000  13.287927999999999 1
ion Ag   0.000001000000000   7.441265000000000   9.035783999999998 1
ion Ag   0.000004000000000   1.063036000000000   4.783640999999999 1
ion Ag   3.832831000000000   8.504301000000000   0.531497000000000 1
ion Ag   3.832834000000001   2.126072000000000  23.918368999999995 1
ion Ag   0.000001000000001  11.693408000000000   2.657569000000000 1
ion Ag   0.000004000000000   5.315179000000000  26.044440999999996 1

# Forces in Cartesian coordinates:
force Ag   0.000001270859707  -0.001937821303246   0.003286607614110 1
force Ag   0.000032066194047   0.000292645709504  -0.000902493959166 1
force Ag  -0.000069397782617   0.001060544872457   0.005257151883961 1
force Ag  -0.000004255836372   0.000234924928887  -0.001128575907851 1
force Ag   0.000071093553246   0.000291245587901   0.000330514735276 1
force Ag   0.000002471082634  -0.000097382535236   0.000509840754755 1
force Ag  -0.000075874968651   0.000360710432416   0.000611501294691 1
force Ag   0.000018905044578  -0.000027446289015  -0.000388362697619 1
force Ag  -0.000079906270754  -0.000128691681369   0.001805870459203 1
force Ag   0.000005762396170  -0.000174393058941  -0.005267514561383 1
force Ag   0.000002827312229  -0.001103367092445  -0.002898223864983 1
force Ag   0.000047221502424   0.000263807048947  -0.000426857475155 1
force Ag   0.000003912363072  -0.001053477386856   0.000910941610607 1
force Ag  -0.000024113607432  -0.000267515687283   0.000420999959330 1
force Ag  -0.000052190205331   0.000083339248376  -0.000495085756776 1
force Ag   0.000099051664499   0.000123591869185  -0.001796510948326 1
force Ag  -0.000010590620570   0.000038306031596   0.000406603829478 1
force Ag   0.000043658545995  -0.000366816063711  -0.000599968085264 1
force Ag   0.000009095000872  -0.000296486886596   0.000902064830659 1
force Ag  -0.000020262858632  -0.000263961640270  -0.000307627788669 1
force Ag  -0.000012984541666  -0.000245318693651   0.001139471119327 1
force Ag   0.000056257240826  -0.001074383522256  -0.005264674759871 1
force Ag   0.000044009080436   0.001135941114541   0.002891768001717 1
force Ag  -0.000052089407623   0.000158678078237   0.005253529858210 1
force Ag  -0.000033515389868   0.001930263523710  -0.003310063310130 1
force Ag  -0.000002603134919   0.001056379059299  -0.000920303476987 1

# Energy components:
   A_diel =        0.0671695934121008
   Eewald =    41729.4527388980932301
       EH =    45167.0118194221431622
     Eloc =   -91337.3838196189317387
      Enl =      102.5947044565885449
     EvdW =       -0.4004898861968956
      Exc =     -376.7553210610643646
 Exc_core =        5.4124311541465868
       KE =      872.1216473249652381
  MuShift =        0.0232927552839181
-------------------------------------
     Etot =    -3837.8558269615582503
       TS =        0.0007126064200468
-------------------------------------
        F =    -3837.8565395679784160
      muN =      -84.5506950105918094
-------------------------------------
        G =    -3753.3058445573865356


Dumping 'jdft.fillings' ... done
Dumping 'jdft.wfns' ... done
Dumping 'jdft.fluidState' ... done
Dumping 'jdft.ionpos' ... done
Dumping 'jdft.lattice' ... done
Dumping 'jdft.eigenvals' ... done
Dumping 'jdft.eigStats' ... 
	eMin: -3.554374 at state 36 ( [ +0.000000 +0.000000 +0.000000 ] spin -1 )
	HOMO: -0.171632 at state 49 ( [ +0.333333 +0.250000 +0.000000 ] spin -1 )
	mu  : -0.171300
	LUMO: -0.170861 at state 18 ( [ +0.444444 +0.500000 +0.000000 ] spin 1 )
	eMax: +0.144791 at state 7 ( [ +0.111111 -0.250000 +0.000000 ] spin 1 )
	HOMO-LUMO gap: +0.000771
	Optical gap  : +0.003413 at state 58 ( [ -0.444444 +0.500000 +0.000000 ] spin -1 )
Dumping 'jdft.Ecomponents' ... done
IonicMinimize: Iter:   0  G: -3753.305844557386536  |grad|_K:  1.516e-03  t[s]:  16334.33

#--- Lowdin population analysis ---
# oxidation-state Ag +0.003 -0.009 -0.044 +0.001 +0.001 +0.004 +0.002 +0.004 -0.001 -0.080 +0.247 -0.034 +0.180 -0.034 +0.004 -0.001 +0.004 +0.002 -0.009 +0.001 +0.001 -0.044 +0.247 -0.080 +0.003 +0.180
# magnetic-moments Ag +0.000 +0.000 -0.000 +0.000 +0.000 -0.000 -0.000 -0.000 -0.000 -0.000 -0.000 +0.000 -0.000 +0.000 +0.000 -0.000 +0.000 +0.000 +0.000 +0.000 -0.000 -0.000 +0.000 +0.000 -0.000 +0.000


Computing DFT-D3 correction:
# coordination-number Ag 6.893 9.192 8.417 9.206 9.212 9.208 9.212 9.212 9.199 8.391 4.636 9.172 5.396 9.172 9.208 9.199 9.212 9.212 9.192 9.212 9.206 8.417 4.636 8.391 6.893 5.395
# diagonal-C6 Ag 268.61 268.61 268.61 268.61 268.61 268.61 268.61 268.61 268.61 268.61 268.61 268.61 268.61 268.61 268.61 268.61 268.61 268.61 268.61 268.61 268.61 268.61 268.61 268.61 268.61 268.61
EvdW_6 =   -0.170278
EvdW_8 =   -0.230164
Shifting auxilliary hamiltonian by 0.000031 to set nElectrons=493.582574

-------- Electronic minimization -----------
	Linear fluid (dielectric constant: 78.4, screening length: 8.12261 Bohr) occupying 0.569778 of unit cell:	Completed after 12 iterations at t[s]:  16398.46
	FillingsUpdate:  mu: -0.171300000  nElectrons: 493.582574  magneticMoment: [ Abs: 0.00000  Tot: +0.00000 ]
ElecMinimize: Iter:   0  G: -3753.305987081500916  |grad|_K:  1.468e-07  alpha:  1.000e+00
	Linear fluid (dielectric constant: 78.4, screening length: 8.12261 Bohr) occupying 0.569780 of unit cell:	Completed after 15 iterations at t[s]:  16533.60
	Linear fluid (dielectric constant: 78.4, screening length: 8.12261 Bohr) occupying 0.569778 of unit cell:	Completed after 15 iterations at t[s]:  16577.95
	FillingsUpdate:  mu: -0.171300000  nElectrons: 493.579862  magneticMoment: [ Abs: 0.00000  Tot: +0.00000 ]
	SubspaceRotationAdjust: set factor to 0.114
ElecMinimize: Iter:   1  G: -3753.305989532333570  |grad|_K:  1.725e-07  alpha:  1.406e-01  linmin: -1.099e-04  t[s]:  16644.69
	Linear fluid (dielectric constant: 78.4, screening length: 8.12261 Bohr) occupying 0.569777 of unit cell:	Completed after 8 iterations at t[s]:  16703.81
	Linear fluid (dielectric constant: 78.4, screening length: 8.12261 Bohr) occupying 0.569776 of unit cell:	Completed after 10 iterations at t[s]:  16747.50
	FillingsUpdate:  mu: -0.171300000  nElectrons: 493.582551  magneticMoment: [ Abs: 0.00000  Tot: +0.00000 ]
	SubspaceRotationAdjust: set factor to 0.138
ElecMinimize: Iter:   2  G: -3753.305997823859798  |grad|_K:  1.229e-07  alpha:  3.452e-01  linmin:  2.112e-05  t[s]:  16813.37
	Linear fluid (dielectric constant: 78.4, screening length: 8.12261 Bohr) occupying 0.569775 of unit cell:	Completed after 2 iterations at t[s]:  16871.41
	Linear fluid (dielectric constant: 78.4, screening length: 8.12261 Bohr) occupying 0.569774 of unit cell:	Completed after 7 iterations at t[s]:  16914.77
	FillingsUpdate:  mu: -0.171300000  nElectrons: 493.583188  magneticMoment: [ Abs: 0.00000  Tot: +0.00000 ]
	SubspaceRotationAdjust: set factor to 0.156
ElecMinimize: Iter:   3  G: -3753.306005317953350  |grad|_K:  1.404e-07  alpha:  6.189e-01  linmin:  3.774e-05  t[s]:  16980.51
	Linear fluid (dielectric constant: 78.4, screening length: 8.12261 Bohr) occupying 0.569773 of unit cell:	Completed after 11 iterations at t[s]:  17040.05
	Linear fluid (dielectric constant: 78.4, screening length: 8.12261 Bohr) occupying 0.569774 of unit cell:	Completed after 11 iterations at t[s]:  17084.32
	FillingsUpdate:  mu: -0.171300000  nElectrons: 493.580613  magneticMoment: [ Abs: 0.00000  Tot: +0.00000 ]
	SubspaceRotationAdjust: set factor to 0.108
ElecMinimize: Iter:   4  G: -3753.306011298654084  |grad|_K:  1.629e-07  alpha:  3.774e-01  linmin:  1.291e-05  t[s]:  17150.00
	Linear fluid (dielectric constant: 78.4, screening length: 8.12261 Bohr) occupying 0.569769 of unit cell:	Completed after 12 iterations at t[s]:  17209.49
	Linear fluid (dielectric constant: 78.4, screening length: 8.12261 Bohr) occupying 0.569772 of unit cell:	Completed after 12 iterations at t[s]:  17254.81
	FillingsUpdate:  mu: -0.171300000  nElectrons: 493.583196  magneticMoment: [ Abs: 0.00000  Tot: +0.00000 ]
	SubspaceRotationAdjust: set factor to 0.0668
ElecMinimize: Iter:   5  G: -3753.306014054624939  |grad|_K:  1.007e-07  alpha:  1.288e-01  linmin:  1.076e-05  t[s]:  17320.77
	Linear fluid (dielectric constant: 78.4, screening length: 8.12261 Bohr) occupying 0.569772 of unit cell:	Completed after 2 iterations at t[s]:  17378.85
ElecMinimize: 	Predicted alpha/alphaT>3.000000, increasing alphaT to 3.862550e-01.
	Linear fluid (dielectric constant: 78.4, screening length: 8.12261 Bohr) occupying 0.569771 of unit cell:	Completed after 2 iterations at t[s]:  17421.35
	Linear fluid (dielectric constant: 78.4, screening length: 8.12261 Bohr) occupying 0.569771 of unit cell:	Completed after 0 iterations at t[s]:  17463.41
	FillingsUpdate:  mu: -0.171300000  nElectrons: 493.583239  magneticMoment: [ Abs: 0.00000  Tot: +0.00000 ]
	SubspaceRotationAdjust: set factor to 0.0984
ElecMinimize: Iter:   6  G: -3753.306017304969373  |grad|_K:  6.850e-08  alpha:  3.984e-01  linmin: -8.445e-05  t[s]:  17529.23
	Linear fluid (dielectric constant: 78.4, screening length: 8.12261 Bohr) occupying 0.569770 of unit cell:	Completed after 11 iterations at t[s]:  17588.53
	Linear fluid (dielectric constant: 78.4, screening length: 8.12261 Bohr) occupying 0.569770 of unit cell:	Completed after 7 iterations at t[s]:  17631.82
	FillingsUpdate:  mu: -0.171300000  nElectrons: 493.581730  magneticMoment: [ Abs: 0.00000  Tot: +0.00000 ]
	SubspaceRotationAdjust: set factor to 0.0727
ElecMinimize: Iter:   7  G: -3753.306018466057139  |grad|_K:  5.699e-08  alpha:  3.023e-01  linmin:  3.030e-04  t[s]:  17697.34
	Linear fluid (dielectric constant: 78.4, screening length: 8.12261 Bohr) occupying 0.569769 of unit cell:	Completed after 10 iterations at t[s]:  17756.60
	Linear fluid (dielectric constant: 78.4, screening length: 8.12261 Bohr) occupying 0.569769 of unit cell:	Completed after 3 iterations at t[s]:  17799.24
	FillingsUpdate:  mu: -0.171300000  nElectrons: 493.582558  magneticMoment: [ Abs: 0.00000  Tot: +0.00000 ]
	SubspaceRotationAdjust: set factor to 0.0446
ElecMinimize: Iter:   8  G: -3753.306019097019089  |grad|_K:  3.461e-08  alpha:  2.449e-01  linmin:  4.208e-04  t[s]:  17865.61
	Linear fluid (dielectric constant: 78.4, screening length: 8.12261 Bohr) occupying 0.569769 of unit cell:	Completed after 6 iterations at t[s]:  17924.40
	Linear fluid (dielectric constant: 78.4, screening length: 8.12261 Bohr) occupying 0.569768 of unit cell:	Completed after 0 iterations at t[s]:  17966.56
	FillingsUpdate:  mu: -0.171300000  nElectrons: 493.582113  magneticMoment: [ Abs: 0.00000  Tot: +0.00000 ]
	SubspaceRotationAdjust: set factor to 0.0528
ElecMinimize: Iter:   9  G: -3753.306019447527888  |grad|_K:  1.850e-08  alpha:  3.594e-01  linmin: -2.406e-03  t[s]:  18032.36
	Linear fluid (dielectric constant: 78.4, screening length: 8.12261 Bohr) occupying 0.569768 of unit cell:	Completed after 6 iterations at t[s]:  18090.89
	Linear fluid (dielectric constant: 78.4, screening length: 8.12261 Bohr) occupying 0.569768 of unit cell:	Completed after 0 iterations at t[s]:  18133.71
	FillingsUpdate:  mu: -0.171300000  nElectrons: 493.581907  magneticMoment: [ Abs: 0.00000  Tot: +0.00000 ]
	SubspaceRotationAdjust: set factor to 0.0542
ElecMinimize: Iter:  10  G: -3753.306019568751253  |grad|_K:  1.442e-08  alpha:  3.996e-01  linmin: -4.387e-03  t[s]:  18199.10
	Linear fluid (dielectric constant: 78.4, screening length: 8.12261 Bohr) occupying 0.569767 of unit cell:	Completed after 2 iterations at t[s]:  18257.34
	Linear fluid (dielectric constant: 78.4, screening length: 8.12261 Bohr) occupying 0.569767 of unit cell:	Completed after 2 iterations at t[s]:  18299.67
	FillingsUpdate:  mu: -0.171300000  nElectrons: 493.582180  magneticMoment: [ Abs: 0.00000  Tot: +0.00000 ]
	SubspaceRotationAdjust: set factor to 0.056
ElecMinimize: Iter:  11  G: -3753.306019627184014  |grad|_K:  1.093e-08  alpha:  3.340e-01  linmin:  4.210e-04  t[s]:  18365.50
	Linear fluid (dielectric constant: 78.4, screening length: 8.12261 Bohr) occupying 0.569767 of unit cell:	Completed after 0 iterations at t[s]:  18424.05
	Linear fluid (dielectric constant: 78.4, screening length: 8.12261 Bohr) occupying 0.569767 of unit cell:	Completed after 3 iterations at t[s]:  18466.64
	FillingsUpdate:  mu: -0.171300000  nElectrons: 493.582356  magneticMoment: [ Abs: 0.00000  Tot: +0.00000 ]
[...]
force Ag   0.000004300103948   0.000051220414789   0.000168172994542 1
force Ag  -0.000009528550727  -0.000140728404336   0.000118399303791 1
force Ag   0.000004830217787   0.000032037621814   0.000055184269295 1
force Ag   0.000001176296328   0.000006007259265   0.000127831075395 1
force Ag   0.000007892310904  -0.000044141280928  -0.000049467869647 1
force Ag   0.000000492654593  -0.000105581942074   0.000201669515975 1
force Ag   0.000007077653105   0.000027587496581  -0.000092802946871 1
force Ag  -0.000004594543981  -0.000003724252957  -0.000026177243460 1

# Energy components:
   A_diel =        0.0649796297541569
   Eewald =    41201.1634637687166105
       EH =    44640.3991695619333768
     Eloc =   -90282.4355538253294071
      Enl =      102.6128057059590901
     EvdW =       -0.3958594395168316
      Exc =     -376.7015644706941089
 Exc_core =        5.4124345231557882
       KE =      871.9964911717311224
  MuShift =        0.0222919228384692
-------------------------------------
     Etot =    -3837.8613414514475153
       TS =        0.0006529023862688
-------------------------------------
        F =    -3837.8619943538337793
      muN =      -84.5537674042412135
-------------------------------------
        G =    -3753.3082269495926084


Dumping 'jdft.fillings' ... done
Dumping 'jdft.wfns' ... done
Dumping 'jdft.fluidState' ... done
Dumping 'jdft.ionpos' ... done
Dumping 'jdft.lattice' ... done
Dumping 'jdft.eigenvals' ... done
Dumping 'jdft.eigStats' ... 
	eMin: -3.553124 at state 36 ( [ +0.000000 +0.000000 +0.000000 ] spin -1 )
	HOMO: -0.171943 at state 13 ( [ +0.333333 +0.250000 +0.000000 ] spin 1 )
	mu  : -0.171300
	LUMO: -0.171249 at state 42 ( [ +0.111111 +0.500000 +0.000000 ] spin -1 )
	eMax: +0.143670 at state 69 ( [ -0.111111 +0.250000 +0.000000 ] spin -1 )
	HOMO-LUMO gap: +0.000693
	Optical gap  : +0.005373 at state 61 ( [ -0.333333 +0.250000 +0.000000 ] spin -1 )
Dumping 'jdft.Ecomponents' ... done
IonicMinimize: Iter:   9  G: -3753.308226949592608  |grad|_K:  8.645e-05  alpha:  1.000e+00  linmin: -5.762e-01  t[s]:  70182.26
IonicMinimize: Converged (|grad|_K<1.000000e-04).

#--- Lowdin population analysis ---
# oxidation-state Ag -0.002 -0.005 -0.045 +0.000 +0.001 +0.005 +0.000 +0.005 +0.001 -0.076 +0.233 -0.029 +0.178 -0.029 +0.005 +0.001 +0.005 +0.001 -0.005 +0.001 +0.000 -0.045 +0.233 -0.076 -0.002 +0.178
# magnetic-moments Ag -0.000 +0.000 -0.000 -0.000 -0.000 -0.000 -0.000 -0.000 +0.000 -0.000 -0.000 -0.000 -0.000 -0.000 -0.000 -0.000 -0.000 -0.000 -0.000 -0.000 -0.000 -0.000 -0.000 +0.000 -0.000 -0.000


Dumping 'jdft.n_up' ... done
Dumping 'jdft.n_dn' ... done
Dumping 'jdft.tau_up' ... done
Dumping 'jdft.tau_dn' ... done
Dumping 'jdft.eigenvals' ... done
Dumping 'jdft.eigStats' ... 
	eMin: -3.553124 at state 36 ( [ +0.000000 +0.000000 +0.000000 ] spin -1 )
	HOMO: -0.171943 at state 13 ( [ +0.333333 +0.250000 +0.000000 ] spin 1 )
	mu  : -0.171300
	LUMO: -0.171249 at state 42 ( [ +0.111111 +0.500000 +0.000000 ] spin -1 )
	eMax: +0.143670 at state 69 ( [ -0.111111 +0.250000 +0.000000 ] spin -1 )
	HOMO-LUMO gap: +0.000693
	Optical gap  : +0.005373 at state 61 ( [ -0.333333 +0.250000 +0.000000 ] spin -1 )
Dumping 'jdft.kPts' ... done
Dumping 'jdft.dosUp' ... done.
Dumping 'jdft.dosDn' ... done.
End date and time: Tue Dec  7 12:56:16 2021  (Duration: 0-19:31:17.91)
Done!
+0.001 -0.045 +0.232 -0.076 -0.001 +0.179
# magnetic-moments Ag -0.000 -0.000 +0.000 +0.000 +0.000 +0.000 +0.000 +0.000 -0.000 -0.000 -0.000 -0.000 +0.000 -0.000 -0.000 +0.000 +0.000 +0.000 +0.000 -0.000 +0.000 +0.000 -0.000 -0.000 -0.000 -0.000


Computing DFT-D3 correction:
# coordination-number Ag 6.882 8.956 8.246 9.021 9.071 9.017 9.089 9.054 9.001 8.226 4.791 9.001 5.434 9.001 9.017 9.001 9.053 9.089 8.955 9.071 9.021 8.246 4.791 8.226 6.882 5.435
# diagonal-C6 Ag 268.61 268.61 268.61 268.61 268.61 268.61 268.61 268.61 268.61 268.61 268.61 268.61 268.61 268.61 268.61 268.61 268.61 268.61 268.61 268.61 268.61 268.61 268.61 268.61 268.61 268.61
EvdW_6 =   -0.168637
EvdW_8 =   -0.227792
Shifting auxilliary hamiltonian by -0.000045 to set nElectrons=493.600021

-------- Electronic minimization -----------
	Linear fluid (dielectric constant: 78.4, screening length: 8.12261 Bohr) occupying 0.567755 of unit cell:	Completed after 15 iterations at t[s]:  72272.45
	FillingsUpdate:  mu: -0.171300000  nElectrons: 493.600021  magneticMoment: [ Abs: 0.00000  Tot: -0.00000 ]
ElecMinimize: Iter:   0  G: -3753.308132199829743  |grad|_K:  1.895e-07  alpha:  1.000e+00
	Linear fluid (dielectric constant: 78.4, screening length: 8.12261 Bohr) occupying 0.567759 of unit cell:	Completed after 12 iterations at t[s]:  72403.43
	Linear fluid (dielectric constant: 78.4, screening length: 8.12261 Bohr) occupying 0.567757 of unit cell:	Completed after 11 iterations at t[s]:  72446.05
	FillingsUpdate:  mu: -0.171300000  nElectrons: 493.602802  magneticMoment: [ Abs: 0.00000  Tot: -0.00000 ]
	SubspaceRotationAdjust: set factor to 0.0625
ElecMinimize: Iter:   1  G: -3753.308145422020516  |grad|_K:  1.700e-07  alpha:  4.558e-01  linmin: -1.926e-06  t[s]:  72510.49
	Linear fluid (dielectric constant: 78.4, screening length: 8.12261 Bohr) occupying 0.567761 of unit cell:	Completed after 12 iterations at t[s]:  72568.22
	Linear fluid (dielectric constant: 78.4, screening length: 8.12261 Bohr) occupying 0.567760 of unit cell:	Completed after 11 iterations at t[s]:  72611.07
	FillingsUpdate:  mu: -0.171300000  nElectrons: 493.599006  magneticMoment: [ Abs: 0.00000  Tot: -0.00000 ]
	SubspaceRotationAdjust: set factor to 0.0542
ElecMinimize: Iter:   2  G: -3753.308152190465989  |grad|_K:  1.389e-07  alpha:  2.902e-01  linmin:  2.964e-05  t[s]:  72676.02
	Linear fluid (dielectric constant: 78.4, screening length: 8.12261 Bohr) occupying 0.567762 of unit cell:	Completed after 6 iterations at t[s]:  72732.63
	Linear fluid (dielectric constant: 78.4, screening length: 8.12261 Bohr) occupying 0.567765 of unit cell:	Completed after 7 iterations at t[s]:  72774.63
	FillingsUpdate:  mu: -0.171300000  nElectrons: 493.599509  magneticMoment: [ Abs: 0.00000  Tot: -0.00000 ]
	SubspaceRotationAdjust: set factor to 0.0665
ElecMinimize: Iter:   3  G: -3753.308164159751414  |grad|_K:  1.643e-07  alpha:  7.719e-01  linmin:  1.122e-05  t[s]:  72839.05
	Linear fluid (dielectric constant: 78.4, screening length: 8.12261 Bohr) occupying 0.567772 of unit cell:	Completed after 11 iterations at t[s]:  72896.31
	Linear fluid (dielectric constant: 78.4, screening length: 8.12261 Bohr) occupying 0.567770 of unit cell:	Completed after 9 iterations at t[s]:  72939.64
	FillingsUpdate:  mu: -0.171300000  nElectrons: 493.601704  magneticMoment: [ Abs: 0.00000  Tot: -0.00000 ]
	SubspaceRotationAdjust: set factor to 0.068
ElecMinimize: Iter:   4  G: -3753.308176771294256  |grad|_K:  1.876e-07  alpha:  5.804e-01  linmin:  3.137e-06  t[s]:  73004.49
	Linear fluid (dielectric constant: 78.4, screening length: 8.12261 Bohr) occupying 0.567778 of unit cell:	Completed after 12 iterations at t[s]:  73061.95
	Linear fluid (dielectric constant: 78.4, screening length: 8.12261 Bohr) occupying 0.567777 of unit cell:	Completed after 9 iterations at t[s]:  73104.33
	FillingsUpdate:  mu: -0.171300000  nElectrons: 493.598881  magneticMoment: [ Abs: 0.00000  Tot: -0.00000 ]
	SubspaceRotationAdjust: set factor to 0.0587
ElecMinimize: Iter:   5  G: -3753.308190613845454  |grad|_K:  1.752e-07  alpha:  4.880e-01  linmin:  7.217e-06  t[s]:  73169.07
	Linear fluid (dielectric constant: 78.4, screening length: 8.12261 Bohr) occupying 0.567780 of unit cell:	Completed after 11 iterations at t[s]:  73227.20
	Linear fluid (dielectric constant: 78.4, screening length: 8.12261 Bohr) occupying 0.567779 of unit cell:	Completed after 6 iterations at t[s]:  73269.15
	FillingsUpdate:  mu: -0.171300000  nElectrons: 493.601343  magneticMoment: [ Abs: 0.00000  Tot: -0.00000 ]
	SubspaceRotationAdjust: set factor to 0.0527
ElecMinimize: Iter:   6  G: -3753.308201193823152  |grad|_K:  1.465e-07  alpha:  4.279e-01  linmin:  2.039e-05  t[s]:  73334.19
	Linear fluid (dielectric constant: 78.4, screening length: 8.12261 Bohr) occupying 0.567781 of unit cell:	Completed after 7 iterations at t[s]:  73391.02
	Linear fluid (dielectric constant: 78.4, screening length: 8.12261 Bohr) occupying 0.567781 of unit cell:	Completed after 0 iterations at t[s]:  73431.73
	FillingsUpdate:  mu: -0.171300000  nElectrons: 493.601008  magneticMoment: [ Abs: 0.00000  Tot: -0.00000 ]
	SubspaceRotationAdjust: set factor to 0.0581
ElecMinimize: Iter:   7  G: -3753.308208662955167  |grad|_K:  1.035e-07  alpha:  4.327e-01  linmin: -2.059e-05  t[s]:  73496.12
	Linear fluid (dielectric constant: 78.4, screening length: 8.12261 Bohr) occupying 0.567782 of unit cell:	Completed after 10 iterations at t[s]:  73553.77
	Linear fluid (dielectric constant: 78.4, screening length: 8.12261 Bohr) occupying 0.567782 of unit cell:	Completed after 2 iterations at t[s]:  73595.33
	FillingsUpdate:  mu: -0.171300000  nElectrons: 493.599856  magneticMoment: [ Abs: 0.00000  Tot: -0.00000 ]
	SubspaceRotationAdjust: set factor to 0.0531
ElecMinimize: Iter:   8  G: -3753.308211977737301  |grad|_K:  7.565e-08  alpha:  3.833e-01  linmin:  1.570e-04  t[s]:  73659.76
	Linear fluid (dielectric constant: 78.4, screening length: 8.12261 Bohr) occupying 0.567784 of unit cell:	Completed after 10 iterations at t[s]:  73717.09
	Linear fluid (dielectric constant: 78.4, screening length: 8.12261 Bohr) occupying 0.567784 of unit cell:	Completed after 0 iterations at t[s]:  73757.95
	FillingsUpdate:  mu: -0.171300000  nElectrons: 493.600618  magneticMoment: [ Abs: 0.00000  Tot: -0.00000 ]
	SubspaceRotationAdjust: set factor to 0.042
ElecMinimize: Iter:   9  G: -3753.308213573849571  |grad|_K:  4.710e-08  alpha:  3.497e-01  linmin:  1.588e-04  t[s]:  73822.99
	Linear fluid (dielectric constant: 78.4, screening length: 8.12261 Bohr) occupying 0.567785 of unit cell:	Completed after 7 iterations at t[s]:  73879.83
	Linear fluid (dielectric constant: 78.4, screening length: 8.12261 Bohr) occupying 0.567785 of unit cell:	Completed after 0 iterations at t[s]:  73920.77
	FillingsUpdate:  mu: -0.171300000  nElectrons: 493.600120  magneticMoment: [ Abs: 0.00000  Tot: -0.00000 ]
	SubspaceRotationAdjust: set factor to 0.0391
ElecMinimize: Iter:  10  G: -3753.308214183106884  |grad|_K:  3.083e-08  alpha:  3.431e-01  linmin: -7.654e-04  t[s]:  73985.57
	Linear fluid (dielectric constant: 78.4, screening length: 8.12261 Bohr) occupying 0.567786 of unit cell:	Completed after 2 iterations at t[s]:  74041.48
	Linear fluid (dielectric constant: 78.4, screening length: 8.12261 Bohr) occupying 0.567786 of unit cell:	Completed after 0 iterations at t[s]:  74082.26
	FillingsUpdate:  mu: -0.171300000  nElectrons: 493.600058  magneticMoment: [ Abs: 0.00000  Tot: -0.00000 ]
	SubspaceRotationAdjust: set factor to 0.0438
ElecMinimize: Iter:  11  G: -3753.308214467419020  |grad|_K:  1.869e-08  alpha:  3.617e-01  linmin: -6.553e-04  t[s]:  74146.99
	Linear fluid (dielectric constant: 78.4, screening length: 8.12261 Bohr) occupying 0.567787 of unit cell:	Completed after 2 iterations at t[s]:  74202.97
	Linear fluid (dielectric constant: 78.4, screening length: 8.12261 Bohr) occupying 0.567787 of unit cell:	Completed after 0 iterations at t[s]:  74243.74
	FillingsUpdate:  mu: -0.171300000  nElectrons: 493.600177  magneticMoment: [ Abs: 0.00000  Tot: -0.00000 ]
	SubspaceRotationAdjust: set factor to 0.0496
ElecMinimize: Iter:  12  G: -3753.308214591681462  |grad|_K:  1.205e-08  alpha:  4.281e-01  linmin: -1.934e-03  t[s]:  74307.99
	Linear fluid (dielectric constant: 78.4, screening length: 8.12261 Bohr) occupying 0.567788 of unit cell:	Completed after 3 iterations at t[s]:  74364.08
	Linear fluid (dielectric constant: 78.4, screening length: 8.12261 Bohr) occupying 0.567788 of unit cell:	Completed after 0 iterations at t[s]:  74405.42
	FillingsUpdate:  mu: -0.171300000  nElectrons: 493.600240  magneticMoment: [ Abs: 0.00000  Tot: -0.00000 ]
	SubspaceRotationAdjust: set factor to 0.0577
ElecMinimize: Iter:  13  G: -3753.308214640397182  |grad|_K:  1.025e-08  alpha:  3.996e-01  linmin: -2.793e-03  t[s]:  74470.12
	Linear fluid (dielectric constant: 78.4, screening length: 8.12261 Bohr) occupying 0.567789 of unit cell:	Completed after 1 iterations at t[s]:  74526.03
	Linear fluid (dielectric constant: 78.4, screening length: 8.12261 Bohr) occupying 0.567789 of unit cell:	Completed after 0 iterations at t[s]:  74566.65
	FillingsUpdate:  mu: -0.171300000  nElectrons: 493.600161  magneticMoment: [ Abs: 0.00000  Tot: -0.00000 ]
	SubspaceRotationAdjust: set factor to 0.0738
ElecMinimize: Iter:  14  G: -3753.308214676668740  |grad|_K:  9.271e-09  alpha:  3.947e-01  linmin: -1.365e-03  t[s]:  74631.12
ElecMinimize: Converged (|Delta G|<1.000000e-07 for 2 iters).
Setting wave functions to eigenvectors of Hamiltonian
Converging empty states (this may take a while): |deigs|: 1.304e-08

Computing DFT-D3 correction:
# coordination-number Ag 6.882 8.956 8.246 9.021 9.071 9.017 9.089 9.054 9.001 8.226 4.791 9.001 5.434 9.001 9.017 9.001 9.053 9.089 8.955 9.071 9.021 8.246 4.791 8.226 6.882 5.435
# diagonal-C6 Ag 268.61 268.61 268.61 268.61 268.61 268.61 268.61 268.61 268.61 268.61 268.61 268.61 268.61 268.61 268.61 268.61 268.61 268.61 268.61 268.61 268.61 268.61 268.61 268.61 268.61 268.61
EvdW_6 =   -0.168637
EvdW_8 =   -0.227792

# Ionic positions in cartesian coordinates:
ion Ag  -0.003747283881292  10.556340358343769  25.126384789379340 1
ion Ag  -0.003016440446738   4.278744677255793  20.806975154705277 1
ion Ag   3.828736588892115   7.450648122475483  23.058532353614297 1
ion Ag   3.830290818951577   1.100425933792321  18.649886718029848 1
ion Ag   0.001360174878220   8.511223076248266  14.360422998339914 1
ion Ag   0.001313797520532   2.094986839360503  10.044574376800078 1
ion Ag   3.830757500980923  11.722338145768154  16.506103555768693 1
ion Ag   3.833849436144078   5.296893044603596  12.208274905683552 1
ion Ag   0.001179041428572  12.739141536818190   7.932865818768435 1
ion Ag   0.003548744640421   6.391950287938904   3.536684000850165 1
ion Ag  -3.835352017664349  13.714131239467795  27.116356703302344 1
ion Ag   3.836168033038413   9.567000731115321   5.797708467527257 1
ion Ag   3.837415496259843   3.222539304754002   1.471717229604330 1
ion Ag   3.829598417828755  12.755968321625840  21.841152954316119 1
ion Ag   3.831013298062063   6.409711986401003  17.594541035525278 1
ion Ag  -0.001171131627415   9.584264398248440  19.706057499425938 1
ion Ag  -0.000821191377263   3.208757181385868  15.430677904922728 1
ion Ag   3.834581562394568  10.602265214949696  11.132750740784775 1
ion Ag   3.836128984394843   4.224886993940160   6.832091751796574 1
ion Ag  -0.000634190967089  13.814198774699717  13.278643731699404 1
ion Ag   0.002114389158283   7.403903734831081   8.989174607083722 1
ion Ag   0.003958258236150   1.052808217557660   4.580519033254719 1
ion Ag   3.836060058126209   8.609096693960787   0.522456753371875 1
ion Ag   3.828813540679935   2.111617648185319  24.102373548571112 1
ion Ag   0.003482059937961  11.767175258681805   2.512510966369432 1
ion Ag  -0.004438945589306   5.281706277590523  26.166937400504686 1

# Forces in Cartesian coordinates:
force Ag  -0.000006272010101   0.000096060956741   0.000077870839125 1
force Ag   0.000003651971379  -0.000132105714570   0.000082501577222 1
force Ag  -0.000009170585862   0.000072085797412  -0.000036789691954 1
force Ag  -0.000010669502423  -0.000035762313822   0.000135058671051 1
force Ag  -0.000003529976764   0.000053725750653  -0.000123253534449 1
force Ag   0.000002955457809   0.000148875045602  -0.000070953495951 1
force Ag  -0.000000536268686  -0.000001275277520  -0.000030806091405 1
force Ag   0.000003324391915   0.000083307278693  -0.000120892104749 1
force Ag   0.000006559174810   0.000192209323737  -0.000178212159967 1
force Ag   0.000016227948304   0.000149888165751  -0.000178499865090 1
force Ag  -0.000005356449734  -0.000078681335720   0.000075953979931 1
force Ag  -0.000003107933295   0.000124283348937  -0.000297873424955 1
force Ag   0.000006955523945   0.000036810538836   0.000093549153854 1
force Ag   0.000000166906360  -0.000120653036728   0.000299853823633 1
force Ag  -0.000002698909433  -0.000144908323308   0.000066747949352 1
force Ag  -0.000005394308709  -0.000187432655331   0.000180083949151 1
force Ag  -0.000005542095533  -0.000079490573101   0.000122048983918 1
force Ag  -0.000000655003933   0.000008641921886   0.000026945183452 1
force Ag  -0.000005233670641   0.000141119951112  -0.000087384726104 1
force Ag  -0.000000118478208  -0.000051382088585   0.000119163046989 1
force Ag   0.000014230968841   0.000043461673895  -0.000138948893223 1
force Ag   0.000007891990579  -0.000069499483308   0.000031335521685 1
force Ag   0.000010814143854   0.000075480888955  -0.000062130221391 1
force Ag  -0.000012108185212  -0.000146936411861   0.000179954201908 1
force Ag   0.000008419070408  -0.000099164558600  -0.000078181748509 1
force Ag  -0.000008125540858  -0.000031988473289  -0.000085929407682 1

# Energy components:
   A_diel =        0.0650150909552998
   Eewald =    41268.0692759824960376
       EH =    44707.1221840563448495
     Eloc =   -90416.0701610270625679
      Enl =      102.6099153823748367
     EvdW =       -0.3964288301323602
      Exc =     -376.7087174987906337
 Exc_core =        5.4124348911124862
       KE =      872.0129052872835018
  MuShift =        0.0223114377946502
-------------------------------------
     Etot =    -3837.8612652276146946
       TS =        0.0006569455375347
-------------------------------------
        F =    -3837.8619221731523794
      muN =      -84.5537074964837103
-------------------------------------
        G =    -3753.3082146766687401


Dumping 'jdft.fillings' ... done
Dumping 'jdft.wfns' ... done
Dumping 'jdft.fluidState' ... done
Dumping 'jdft.ionpos' ... done
Dumping 'jdft.lattice' ... done
Dumping 'jdft.eigenvals' ... done
Dumping 'jdft.eigStats' ... 
	eMin: -3.553295 at state 0 ( [ +0.000000 +0.000000 +0.000000 ] spin 1 )
	HOMO: -0.171924 at state 13 ( [ +0.333333 +0.250000 +0.000000 ] spin 1 )
	mu  : -0.171300
	LUMO: -0.171005 at state 34 ( [ -0.111111 +0.500000 +0.000000 ] spin 1 )
	eMax: +0.143721 at state 7 ( [ +0.111111 -0.250000 +0.000000 ] spin 1 )
	HOMO-LUMO gap: +0.000919
	Optical gap  : +0.005323 at state 38 ( [ +0.000000 +0.500000 +0.000000 ] spin -1 )
Dumping 'jdft.Ecomponents' ... done
IonicMinimize: Iter:   8  G: -3753.308214676668740  |grad|_K:  9.889e-05  alpha:  1.000e+00  linmin: -1.962e-01  t[s]:  74801.94
IonicMinimize: Converged (|grad|_K<1.000000e-04).

#--- Lowdin population analysis ---
# oxidation-state Ag -0.001 -0.005 -0.045 +0.000 +0.002 +0.005 +0.001 +0.005 +0.001 -0.076 +0.232 -0.029 +0.178 -0.029 +0.005 +0.001 +0.005 +0.001 -0.005 +0.002 +0.000 -0.045 +0.232 -0.076 -0.001 +0.178
# magnetic-moments Ag -0.000 +0.000 -0.000 +0.000 -0.000 +0.000 +0.000 +0.000 +0.000 +0.000 +0.000 +0.000 -0.000 +0.000 +0.000 +0.000 +0.000 +0.000 +0.000 +0.000 +0.000 -0.000 -0.000 -0.000 +0.000 -0.000


Dumping 'jdft.n_up' ... done
Dumping 'jdft.n_dn' ... done
Dumping 'jdft.tau_up' ... done
Dumping 'jdft.tau_dn' ... done
Dumping 'jdft.eigenvals' ... done
Dumping 'jdft.eigStats' ... 
	eMin: -3.553295 at state 0 ( [ +0.000000 +0.000000 +0.000000 ] spin 1 )
	HOMO: -0.171924 at state 13 ( [ +0.333333 +0.250000 +0.000000 ] spin 1 )
	mu  : -0.171300
	LUMO: -0.171005 at state 34 ( [ -0.111111 +0.500000 +0.000000 ] spin 1 )
	eMax: +0.143721 at state 7 ( [ +0.111111 -0.250000 +0.000000 ] spin 1 )
	HOMO-LUMO gap: +0.000919
	Optical gap  : +0.005323 at state 38 ( [ +0.000000 +0.500000 +0.000000 ] spin -1 )
Dumping 'jdft.kPts' ... done
Dumping 'jdft.dosUp' ... done.
Dumping 'jdft.dosDn' ... done.
End date and time: Mon Dec  6 21:00:14 2021  (Duration: 0-20:48:16.55)
Done!
