
*************** JDFTx 1.6.0  ***************

Start date and time: Mon Dec  6 17:09:55 2021
Executable /projects/musgravc/apps/jdftx-1.6.1/build/jdftx with command-line: -i in
Running on hosts (process indices):  shas0304.rc.int.colorado.edu (0-23)
Divided in process groups (process indices):  0 (0)  1 (1)  2 (2)  3 (3)  4 (4)  5 (5)  6 (6)  7 (7)  8 (8)  9 (9)  10 (10)  11 (11)  12 (12)  13 (13)  14 (14)  15 (15)  16 (16)  17 (17)  18 (18)  19 (19)  20 (20)  21 (21)  22 (22)  23 (23)
Resource initialization completed at t[s]:      0.00
Run totals: 24 processes, 24 threads, 0 GPUs


Input parsed successfully to the following command list (including defaults):

basis kpoint-dependent
converge-empty-states yes
coords-type Cartesian
core-overlap-check none
coulomb-interaction Periodic
davidson-band-ratio 1.1
density-of-states Etol 1.000000e-06 Esigma 1.000000e-03 \
		Complete \
	Total \
	OrthoOrbital Ag 1   s \
	OrthoOrbital Ag 1   p \
	OrthoOrbital Ag 1   px \
	OrthoOrbital Ag 1   py \
	OrthoOrbital Ag 1   pz \
	OrthoOrbital Ag 1   d \
	OrthoOrbital Ag 1   dxy \
	OrthoOrbital Ag 1   dyz \
	OrthoOrbital Ag 1   dz2 \
	OrthoOrbital Ag 1   dxz \
	OrthoOrbital Ag 1   dx2-y2 \
	OrthoOrbital Ag 2   s \
	OrthoOrbital Ag 2   p \
	OrthoOrbital Ag 2   px \
	OrthoOrbital Ag 2   py \
	OrthoOrbital Ag 2   pz \
	OrthoOrbital Ag 2   d \
	OrthoOrbital Ag 2   dxy \
	OrthoOrbital Ag 2   dyz \
	OrthoOrbital Ag 2   dz2 \
	OrthoOrbital Ag 2   dxz \
	OrthoOrbital Ag 2   dx2-y2 \
	OrthoOrbital Ag 3   s \
	OrthoOrbital Ag 3   p \
	OrthoOrbital Ag 3   px \
	OrthoOrbital Ag 3   py \
	OrthoOrbital Ag 3   pz \
	OrthoOrbital Ag 3   d \
	OrthoOrbital Ag 3   dxy \
	OrthoOrbital Ag 3   dyz \
	OrthoOrbital Ag 3   dz2 \
	OrthoOrbital Ag 3   dxz \
	OrthoOrbital Ag 3   dx2-y2 \
	OrthoOrbital Ag 4   s \
	OrthoOrbital Ag 4   p \
	OrthoOrbital Ag 4   px \
	OrthoOrbital Ag 4   py \
	OrthoOrbital Ag 4   pz \
	OrthoOrbital Ag 4   d \
	OrthoOrbital Ag 4   dxy \
	OrthoOrbital Ag 4   dyz \
	OrthoOrbital Ag 4   dz2 \
	OrthoOrbital Ag 4   dxz \
	OrthoOrbital Ag 4   dx2-y2 \
	OrthoOrbital Ag 5   s \
	OrthoOrbital Ag 5   p \
	OrthoOrbital Ag 5   px \
	OrthoOrbital Ag 5   py \
	OrthoOrbital Ag 5   pz \
	OrthoOrbital Ag 5   d \
	OrthoOrbital Ag 5   dxy \
	OrthoOrbital Ag 5   dyz \
	OrthoOrbital Ag 5   dz2 \
	OrthoOrbital Ag 5   dxz \
	OrthoOrbital Ag 5   dx2-y2 \
	OrthoOrbital Ag 6   s \
	OrthoOrbital Ag 6   p \
	OrthoOrbital Ag 6   px \
	OrthoOrbital Ag 6   py \
	OrthoOrbital Ag 6   pz \
	OrthoOrbital Ag 6   d \
	OrthoOrbital Ag 6   dxy \
	OrthoOrbital Ag 6   dyz \
	OrthoOrbital Ag 6   dz2 \
	OrthoOrbital Ag 6   dxz \
	OrthoOrbital Ag 6   dx2-y2 \
	OrthoOrbital Ag 7   s \
	OrthoOrbital Ag 7   p \
	OrthoOrbital Ag 7   px \
	OrthoOrbital Ag 7   py \
	OrthoOrbital Ag 7   pz \
	OrthoOrbital Ag 7   d \
	OrthoOrbital Ag 7   dxy \
	OrthoOrbital Ag 7   dyz \
	OrthoOrbital Ag 7   dz2 \
	OrthoOrbital Ag 7   dxz \
	OrthoOrbital Ag 7   dx2-y2 \
	OrthoOrbital Ag 8   s \
	OrthoOrbital Ag 8   p \
	OrthoOrbital Ag 8   px \
	OrthoOrbital Ag 8   py \
	OrthoOrbital Ag 8   pz \
	OrthoOrbital Ag 8   d \
	OrthoOrbital Ag 8   dxy \
	OrthoOrbital Ag 8   dyz \
	OrthoOrbital Ag 8   dz2 \
	OrthoOrbital Ag 8   dxz \
	OrthoOrbital Ag 8   dx2-y2 \
	OrthoOrbital Ag 9   s \
	OrthoOrbital Ag 9   p \
	OrthoOrbital Ag 9   px \
	OrthoOrbital Ag 9   py \
	OrthoOrbital Ag 9   pz \
	OrthoOrbital Ag 9   d \
	OrthoOrbital Ag 9   dxy \
	OrthoOrbital Ag 9   dyz \
	OrthoOrbital Ag 9   dz2 \
	OrthoOrbital Ag 9   dxz \
	OrthoOrbital Ag 9   dx2-y2 \
	OrthoOrbital Ag 10   s \
	OrthoOrbital Ag 10   p \
	OrthoOrbital Ag 10   px \
	OrthoOrbital Ag 10   py \
	OrthoOrbital Ag 10   pz \
	OrthoOrbital Ag 10   d \
	OrthoOrbital Ag 10   dxy \
	OrthoOrbital Ag 10   dyz \
	OrthoOrbital Ag 10   dz2 \
	OrthoOrbital Ag 10   dxz \
	OrthoOrbital Ag 10   dx2-y2 \
	OrthoOrbital Ag 11   s \
	OrthoOrbital Ag 11   p \
	OrthoOrbital Ag 11   px \
	OrthoOrbital Ag 11   py \
	OrthoOrbital Ag 11   pz \
	OrthoOrbital Ag 11   d \
	OrthoOrbital Ag 11   dxy \
	OrthoOrbital Ag 11   dyz \
	OrthoOrbital Ag 11   dz2 \
	OrthoOrbital Ag 11   dxz \
	OrthoOrbital Ag 11   dx2-y2 \
	OrthoOrbital Ag 12   s \
	OrthoOrbital Ag 12   p \
	OrthoOrbital Ag 12   px \
	OrthoOrbital Ag 12   py \
	OrthoOrbital Ag 12   pz \
	OrthoOrbital Ag 12   d \
	OrthoOrbital Ag 12   dxy \
	OrthoOrbital Ag 12   dyz \
	OrthoOrbital Ag 12   dz2 \
	OrthoOrbital Ag 12   dxz \
	OrthoOrbital Ag 12   dx2-y2 \
	OrthoOrbital Ag 13   s \
	OrthoOrbital Ag 13   p \
	OrthoOrbital Ag 13   px \
	OrthoOrbital Ag 13   py \
	OrthoOrbital Ag 13   pz \
	OrthoOrbital Ag 13   d \
	OrthoOrbital Ag 13   dxy \
	OrthoOrbital Ag 13   dyz \
	OrthoOrbital Ag 13   dz2 \
	OrthoOrbital Ag 13   dxz \
	OrthoOrbital Ag 13   dx2-y2 \
	OrthoOrbital Ag 14   s \
	OrthoOrbital Ag 14   p \
	OrthoOrbital Ag 14   px \
	OrthoOrbital Ag 14   py \
	OrthoOrbital Ag 14   pz \
	OrthoOrbital Ag 14   d \
	OrthoOrbital Ag 14   dxy \
	OrthoOrbital Ag 14   dyz \
	OrthoOrbital Ag 14   dz2 \
	OrthoOrbital Ag 14   dxz \
	OrthoOrbital Ag 14   dx2-y2 \
	OrthoOrbital Ag 15   s \
	OrthoOrbital Ag 15   p \
	OrthoOrbital Ag 15   px \
	OrthoOrbital Ag 15   py \
	OrthoOrbital Ag 15   pz \
	OrthoOrbital Ag 15   d \
	OrthoOrbital Ag 15   dxy \
	OrthoOrbital Ag 15   dyz \
	OrthoOrbital Ag 15   dz2 \
	OrthoOrbital Ag 15   dxz \
	OrthoOrbital Ag 15   dx2-y2 \
	OrthoOrbital Ag 16   s \
	OrthoOrbital Ag 16   p \
	OrthoOrbital Ag 16   px \
	OrthoOrbital Ag 16   py \
	OrthoOrbital Ag 16   pz \
	OrthoOrbital Ag 16   d \
	OrthoOrbital Ag 16   dxy \
	OrthoOrbital Ag 16   dyz \
	OrthoOrbital Ag 16   dz2 \
	OrthoOrbital Ag 16   dxz \
	OrthoOrbital Ag 16   dx2-y2 \
	OrthoOrbital Ag 17   s \
	OrthoOrbital Ag 17   p \
	OrthoOrbital Ag 17   px \
	OrthoOrbital Ag 17   py \
	OrthoOrbital Ag 17   pz \
	OrthoOrbital Ag 17   d \
	OrthoOrbital Ag 17   dxy \
	OrthoOrbital Ag 17   dyz \
	OrthoOrbital Ag 17   dz2 \
	OrthoOrbital Ag 17   dxz \
	OrthoOrbital Ag 17   dx2-y2 \
	OrthoOrbital Ag 18   s \
	OrthoOrbital Ag 18   p \
	OrthoOrbital Ag 18   px \
	OrthoOrbital Ag 18   py \
	OrthoOrbital Ag 18   pz \
	OrthoOrbital Ag 18   d \
	OrthoOrbital Ag 18   dxy \
	OrthoOrbital Ag 18   dyz \
	OrthoOrbital Ag 18   dz2 \
	OrthoOrbital Ag 18   dxz \
	OrthoOrbital Ag 18   dx2-y2 \
	OrthoOrbital Ag 19   s \
	OrthoOrbital Ag 19   p \
	OrthoOrbital Ag 19   px \
	OrthoOrbital Ag 19   py \
	OrthoOrbital Ag 19   pz \
	OrthoOrbital Ag 19   d \
	OrthoOrbital Ag 19   dxy \
	OrthoOrbital Ag 19   dyz \
	OrthoOrbital Ag 19   dz2 \
	OrthoOrbital Ag 19   dxz \
	OrthoOrbital Ag 19   dx2-y2 \
	OrthoOrbital Ag 20   s \
	OrthoOrbital Ag 20   p \
	OrthoOrbital Ag 20   px \
	OrthoOrbital Ag 20   py \
	OrthoOrbital Ag 20   pz \
	OrthoOrbital Ag 20   d \
	OrthoOrbital Ag 20   dxy \
	OrthoOrbital Ag 20   dyz \
	OrthoOrbital Ag 20   dz2 \
	OrthoOrbital Ag 20   dxz \
	OrthoOrbital Ag 20   dx2-y2 \
	OrthoOrbital Ag 21   s \
	OrthoOrbital Ag 21   p \
	OrthoOrbital Ag 21   px \
	OrthoOrbital Ag 21   py \
	OrthoOrbital Ag 21   pz \
	OrthoOrbital Ag 21   d \
	OrthoOrbital Ag 21   dxy \
	OrthoOrbital Ag 21   dyz \
	OrthoOrbital Ag 21   dz2 \
	OrthoOrbital Ag 21   dxz \
	OrthoOrbital Ag 21   dx2-y2 \
	OrthoOrbital Ag 22   s \
	OrthoOrbital Ag 22   p \
	OrthoOrbital Ag 22   px \
	OrthoOrbital Ag 22   py \
	OrthoOrbital Ag 22   pz \
	OrthoOrbital Ag 22   d \
	OrthoOrbital Ag 22   dxy \
	OrthoOrbital Ag 22   dyz \
	OrthoOrbital Ag 22   dz2 \
	OrthoOrbital Ag 22   dxz \
	OrthoOrbital Ag 22   dx2-y2 \
	OrthoOrbital Ag 23   s \
	OrthoOrbital Ag 23   p \
	OrthoOrbital Ag 23   px \
	OrthoOrbital Ag 23   py \
	OrthoOrbital Ag 23   pz \
	OrthoOrbital Ag 23   d \
	OrthoOrbital Ag 23   dxy \
	OrthoOrbital Ag 23   dyz \
	OrthoOrbital Ag 23   dz2 \
	OrthoOrbital Ag 23   dxz \
	OrthoOrbital Ag 23   dx2-y2 \
	OrthoOrbital Ag 24   s \
	OrthoOrbital Ag 24   p \
	OrthoOrbital Ag 24   px \
	OrthoOrbital Ag 24   py \
	OrthoOrbital Ag 24   pz \
	OrthoOrbital Ag 24   d \
	OrthoOrbital Ag 24   dxy \
	OrthoOrbital Ag 24   dyz \
	OrthoOrbital Ag 24   dz2 \
	OrthoOrbital Ag 24   dxz \
	OrthoOrbital Ag 24   dx2-y2 \
	OrthoOrbital Ag 25   s \
	OrthoOrbital Ag 25   p \
	OrthoOrbital Ag 25   px \
	OrthoOrbital Ag 25   py \
	OrthoOrbital Ag 25   pz \
	OrthoOrbital Ag 25   d \
	OrthoOrbital Ag 25   dxy \
	OrthoOrbital Ag 25   dyz \
	OrthoOrbital Ag 25   dz2 \
	OrthoOrbital Ag 25   dxz \
	OrthoOrbital Ag 25   dx2-y2 \
	OrthoOrbital Ag 26   s \
	OrthoOrbital Ag 26   p \
	OrthoOrbital Ag 26   px \
	OrthoOrbital Ag 26   py \
	OrthoOrbital Ag 26   pz \
	OrthoOrbital Ag 26   d \
	OrthoOrbital Ag 26   dxy \
	OrthoOrbital Ag 26   dyz \
	OrthoOrbital Ag 26   dz2 \
	OrthoOrbital Ag 26   dxz \
	OrthoOrbital Ag 26   dx2-y2 \
	OrthoOrbital Ag 27   s \
	OrthoOrbital Ag 27   p \
	OrthoOrbital Ag 27   px \
	OrthoOrbital Ag 27   py \
	OrthoOrbital Ag 27   pz \
	OrthoOrbital Ag 27   d \
	OrthoOrbital Ag 27   dxy \
	OrthoOrbital Ag 27   dyz \
	OrthoOrbital Ag 27   dz2 \
	OrthoOrbital Ag 27   dxz \
	OrthoOrbital Ag 27   dx2-y2 \
	OrthoOrbital Ag 28   s \
	OrthoOrbital Ag 28   p \
	OrthoOrbital Ag 28   px \
	OrthoOrbital Ag 28   py \
	OrthoOrbital Ag 28   pz \
	OrthoOrbital Ag 28   d \
	OrthoOrbital Ag 28   dxy \
	OrthoOrbital Ag 28   dyz \
	OrthoOrbital Ag 28   dz2 \
	OrthoOrbital Ag 28   dxz \
	OrthoOrbital Ag 28   dx2-y2 \
	OrthoOrbital Ag 29   s \
	OrthoOrbital Ag 29   p \
	OrthoOrbital Ag 29   px \
	OrthoOrbital Ag 29   py \
	OrthoOrbital Ag 29   pz \
	OrthoOrbital Ag 29   d \
	OrthoOrbital Ag 29   dxy \
	OrthoOrbital Ag 29   dyz \
	OrthoOrbital Ag 29   dz2 \
	OrthoOrbital Ag 29   dxz \
	OrthoOrbital Ag 29   dx2-y2 \
	OrthoOrbital Ag 30   s \
	OrthoOrbital Ag 30   p \
	OrthoOrbital Ag 30   px \
	OrthoOrbital Ag 30   py \
	OrthoOrbital Ag 30   pz \
	OrthoOrbital Ag 30   d \
	OrthoOrbital Ag 30   dxy \
	OrthoOrbital Ag 30   dyz \
	OrthoOrbital Ag 30   dz2 \
	OrthoOrbital Ag 30   dxz \
	OrthoOrbital Ag 30   dx2-y2 \
	OrthoOrbital Ag 31   s \
	OrthoOrbital Ag 31   p \
	OrthoOrbital Ag 31   px \
	OrthoOrbital Ag 31   py \
	OrthoOrbital Ag 31   pz \
	OrthoOrbital Ag 31   d \
	OrthoOrbital Ag 31   dxy \
	OrthoOrbital Ag 31   dyz \
	OrthoOrbital Ag 31   dz2 \
	OrthoOrbital Ag 31   dxz \
	OrthoOrbital Ag 31   dx2-y2 \
	OrthoOrbital Ag 32   s \
	OrthoOrbital Ag 32   p \
	OrthoOrbital Ag 32   px \
	OrthoOrbital Ag 32   py \
	OrthoOrbital Ag 32   pz \
	OrthoOrbital Ag 32   d \
	OrthoOrbital Ag 32   dxy \
	OrthoOrbital Ag 32   dyz \
	OrthoOrbital Ag 32   dz2 \
	OrthoOrbital Ag 32   dxz \
	OrthoOrbital Ag 32   dx2-y2 \
	OrthoOrbital Ag 33   s \
	OrthoOrbital Ag 33   p \
	OrthoOrbital Ag 33   px \
	OrthoOrbital Ag 33   py \
	OrthoOrbital Ag 33   pz \
	OrthoOrbital Ag 33   d \
	OrthoOrbital Ag 33   dxy \
	OrthoOrbital Ag 33   dyz \
	OrthoOrbital Ag 33   dz2 \
	OrthoOrbital Ag 33   dxz \
	OrthoOrbital Ag 33   dx2-y2 \
	OrthoOrbital Ag 34   s \
	OrthoOrbital Ag 34   p \
	OrthoOrbital Ag 34   px \
	OrthoOrbital Ag 34   py \
	OrthoOrbital Ag 34   pz \
	OrthoOrbital Ag 34   d \
	OrthoOrbital Ag 34   dxy \
	OrthoOrbital Ag 34   dyz \
	OrthoOrbital Ag 34   dz2 \
	OrthoOrbital Ag 34   dxz \
	OrthoOrbital Ag 34   dx2-y2 \
	OrthoOrbital Ag 35   s \
	OrthoOrbital Ag 35   p \
	OrthoOrbital Ag 35   px \
	OrthoOrbital Ag 35   py \
	OrthoOrbital Ag 35   pz \
	OrthoOrbital Ag 35   d \
	OrthoOrbital Ag 35   dxy \
	OrthoOrbital Ag 35   dyz \
	OrthoOrbital Ag 35   dz2 \
	OrthoOrbital Ag 35   dxz \
	OrthoOrbital Ag 35   dx2-y2 \
	OrthoOrbital Ag 36   s \
	OrthoOrbital Ag 36   p \
	OrthoOrbital Ag 36   px \
	OrthoOrbital Ag 36   py \
	OrthoOrbital Ag 36   pz \
	OrthoOrbital Ag 36   d \
	OrthoOrbital Ag 36   dxy \
	OrthoOrbital Ag 36   dyz \
	OrthoOrbital Ag 36   dz2 \
	OrthoOrbital Ag 36   dxz \
	OrthoOrbital Ag 36   dx2-y2 \
	OrthoOrbital Ag 37   s \
	OrthoOrbital Ag 37   p \
	OrthoOrbital Ag 37   px \
	OrthoOrbital Ag 37   py \
	OrthoOrbital Ag 37   pz \
	OrthoOrbital Ag 37   d \
	OrthoOrbital Ag 37   dxy \
	OrthoOrbital Ag 37   dyz \
	OrthoOrbital Ag 37   dz2 \
	OrthoOrbital Ag 37   dxz \
	OrthoOrbital Ag 37   dx2-y2 \
	OrthoOrbital Ag 38   s \
	OrthoOrbital Ag 38   p \
	OrthoOrbital Ag 38   px \
	OrthoOrbital Ag 38   py \
	OrthoOrbital Ag 38   pz \
	OrthoOrbital Ag 38   d \
	OrthoOrbital Ag 38   dxy \
	OrthoOrbital Ag 38   dyz \
	OrthoOrbital Ag 38   dz2 \
	OrthoOrbital Ag 38   dxz \
	OrthoOrbital Ag 38   dx2-y2 \
	OrthoOrbital Ag 39   s \
	OrthoOrbital Ag 39   p \
	OrthoOrbital Ag 39   px \
	OrthoOrbital Ag 39   py \
	OrthoOrbital Ag 39   pz \
	OrthoOrbital Ag 39   d \
	OrthoOrbital Ag 39   dxy \
	OrthoOrbital Ag 39   dyz \
	OrthoOrbital Ag 39   dz2 \
	OrthoOrbital Ag 39   dxz \
	OrthoOrbital Ag 39   dx2-y2 \
	OrthoOrbital Ag 40   s \
	OrthoOrbital Ag 40   p \
	OrthoOrbital Ag 40   px \
	OrthoOrbital Ag 40   py \
	OrthoOrbital Ag 40   pz \
	OrthoOrbital Ag 40   d \
	OrthoOrbital Ag 40   dxy \
	OrthoOrbital Ag 40   dyz \
	OrthoOrbital Ag 40   dz2 \
	OrthoOrbital Ag 40   dxz \
	OrthoOrbital Ag 40   dx2-y2 \
	OrthoOrbital Ag 41   s \
	OrthoOrbital Ag 41   p \
	OrthoOrbital Ag 41   px \
	OrthoOrbital Ag 41   py \
	OrthoOrbital Ag 41   pz \
	OrthoOrbital Ag 41   d \
	OrthoOrbital Ag 41   dxy \
	OrthoOrbital Ag 41   dyz \
	OrthoOrbital Ag 41   dz2 \
	OrthoOrbital Ag 41   dxz \
	OrthoOrbital Ag 41   dx2-y2 \
	OrthoOrbital Ag 42   s \
	OrthoOrbital Ag 42   p \
	OrthoOrbital Ag 42   px \
	OrthoOrbital Ag 42   py \
	OrthoOrbital Ag 42   pz \
	OrthoOrbital Ag 42   d \
	OrthoOrbital Ag 42   dxy \
	OrthoOrbital Ag 42   dyz \
	OrthoOrbital Ag 42   dz2 \
	OrthoOrbital Ag 42   dxz \
	OrthoOrbital Ag 42   dx2-y2 \
	OrthoOrbital Ag 43   s \
	OrthoOrbital Ag 43   p \
	OrthoOrbital Ag 43   px \
	OrthoOrbital Ag 43   py \
	OrthoOrbital Ag 43   pz \
	OrthoOrbital Ag 43   d \
	OrthoOrbital Ag 43   dxy \
	OrthoOrbital Ag 43   dyz \
	OrthoOrbital Ag 43   dz2 \
	OrthoOrbital Ag 43   dxz \
	OrthoOrbital Ag 43   dx2-y2 \
	OrthoOrbital Ag 44   s \
	OrthoOrbital Ag 44   p \
	OrthoOrbital Ag 44   px \
	OrthoOrbital Ag 44   py \
	OrthoOrbital Ag 44   pz \
	OrthoOrbital Ag 44   d \
	OrthoOrbital Ag 44   dxy \
	OrthoOrbital Ag 44   dyz \
	OrthoOrbital Ag 44   dz2 \
	OrthoOrbital Ag 44   dxz \
	OrthoOrbital Ag 44   dx2-y2
dump End ElecDensity KEdensity BandEigs EigStats RhoAtom DOS Kpoints
dump Ionic State IonicPositions Lattice EigStats Ecomponents
dump 
dump 
dump 
dump 
dump 
dump 
dump 
dump 
dump-name jdft.$VAR
elec-cutoff 20
elec-eigen-algo Davidson
elec-ex-corr gga-PBE
elec-initial-magnetization 0.000000 no
elec-n-bands 502
elec-smearing Fermi 0.001
electronic-minimize  \
	dirUpdateScheme      FletcherReeves \
	linminMethod         DirUpdateRecommended \
	nIterations          100 \
	history              15 \
	knormThreshold       0 \
	energyDiffThreshold  1e-07 \
	nEnergyDiff          2 \
	alphaTstart          1 \
	alphaTmin            1e-10 \
	updateTestStepSize   yes \
	alphaTreduceFactor   0.1 \
	alphaTincreaseFactor 3 \
	nAlphaAdjustMax      3 \
	wolfeEnergy          0.0001 \
	wolfeGradient        0.9 \
	fdTest               no
exchange-regularization WignerSeitzTruncated
fluid LinearPCM 298.000000 1.013250
fluid-anion F- 0.5 MeanFieldLJ \
	epsBulk 1 \
	pMol 0 \
	epsInf 1 \
	Pvap 0 \
	sigmaBulk 0 \
	Rvdw 2.24877 \
	Res 0 \
	tauNuc 343133
fluid-cation Na+ 0.5 MeanFieldLJ \
	epsBulk 1 \
	pMol 0 \
	epsInf 1 \
	Pvap 0 \
	sigmaBulk 0 \
	Rvdw 2.19208 \
	Res 0 \
	tauNuc 343133
fluid-ex-corr lda-TF lda-PZ
fluid-gummel-loop 10 1.000000e-05
fluid-minimize  \
	dirUpdateScheme      PolakRibiere \
	linminMethod         DirUpdateRecommended \
	nIterations          400 \
	history              15 \
	knormThreshold       1e-11 \
	energyDiffThreshold  0 \
	nEnergyDiff          2 \
	alphaTstart          1 \
	alphaTmin            1e-10 \
	updateTestStepSize   yes \
	alphaTreduceFactor   0.1 \
	alphaTincreaseFactor 3 \
	nAlphaAdjustMax      6 \
	wolfeEnergy          0.0001 \
	wolfeGradient        0.9 \
	fdTest               no
fluid-solvent H2O 55.338 ScalarEOS \
	epsBulk 78.4 \
	pMol 0.92466 \
	epsInf 1.77 \
	Pvap 1.06736e-10 \
	sigmaBulk 4.62e-05 \
	Rvdw 2.61727 \
	Res 1.42 \
	tauNuc 343133 \
	poleEl 15 7 1
forces-output-coords Positions
ion Ag   0.000000000000000  16.179012000000000  70.684631999999993 1
ion Ag   0.000000000000000  23.112863000000001  67.415947000000003 1
ion Ag   0.000000000000000   6.933851000000001  69.050252999999998 1
ion Ag   0.000000000000000  13.867728000000000  65.781640999999979 1
ion Ag   0.000000000000000  20.801579000000000  62.512955999999996 1
ion Ag   0.000000000000000  18.490295000000000  57.609965000000003 1
ion Ag   0.000000000000000   0.000000000000000  36.363765999999998 1
ion Ag   0.000000000000000   4.622567000000000  64.147261999999998 1
ion Ag   0.000000000000000  11.556419000000000  60.878650000000000 1
ion Ag   0.000000000000000   2.311284000000000  59.244343000000001 1
ion Ag   5.420446999999999   9.245134999999999  55.975658999999993 1
ion Ag   0.000000000000000  16.179012000000000  52.707045999999998 1
ion Ag   5.420446999999999  23.112863000000001  49.438360999999993 1
ion Ag   5.420446999999999  13.867728000000000  47.804054999999991 1
ion Ag   5.420446999999999  20.801579000000000  44.535370000000000 1
ion Ag   5.420446999999999   0.000000000000000  54.341351999999993 1
ion Ag   0.000000000000000   6.933851000000001  51.072668000000000 1
ion Ag   5.420446999999999   4.622567000000000  46.169676999999993 1
ion Ag   5.420446999999999  11.556419000000000  42.901063999999991 1
ion Ag   5.420446999999999  18.490295000000000  39.632378999999993 1
ion Ag   0.000000000000000   2.311284000000000  41.266756999999991 1
ion Ag   5.420446999999999   9.245134999999999  37.998072999999998 1
ion Ag   2.710223000000000  18.490295000000000  66.598758000000004 1
ion Ag   2.710223000000000   0.000000000000000  63.330144999999995 1
ion Ag   2.710223000000000   9.245134999999999  64.964451999999980 1
ion Ag   2.710223000000000  16.179012000000000  61.695838999999999 1
ion Ag   2.710223000000000  23.112863000000001  58.427154000000002 1
ion Ag   2.710223000000000  20.801579000000000  53.524162999999994 1
ion Ag   2.710223000000000   2.311284000000000  68.233136000000002 1
ion Ag   2.710223000000000   6.933851000000001  60.061459999999990 1
ion Ag   2.710223000000000  13.867728000000000  56.792847999999992 1
ion Ag   2.710223000000000   4.622567000000000  55.158468999999990 1
ion Ag   2.710223000000000  11.556419000000000  51.889856999999999 1
ion Ag   2.710223000000000  18.490295000000000  48.621171999999994 1
ion Ag   2.710223000000000   0.000000000000000  45.352558999999999 1
ion Ag   2.710223000000000  16.179012000000000  43.718252999999997 1
ion Ag   2.710223000000000  23.112863000000001  40.449567999999992 1
ion Ag   2.710223000000000   2.311284000000000  50.255549999999992 1
ion Ag   2.710223000000000   9.245134999999999  46.986865999999992 1
ion Ag   2.710223000000000   6.933851000000001  42.083874999999992 1
ion Ag   2.710223000000000  13.867728000000000  38.815261999999997 1
ion Ag   2.710223000000000  20.801579000000000  71.501748999999990 1
ion Ag   2.710223000000000   4.622567000000000  37.180883999999999 1
ion Ag   2.710223000000000  11.556419000000000  69.867442999999994 1
ion-species /projects/musgravc/apps/jdftx-1.6.0/build/pseudopotentials/GBRV_v1.5/$ID_pbe_v1.uspp
ion-species /projects/musgravc/apps/jdftx-1.6.0/build/pseudopotentials/GBRV_v1.5/$ID_pbe_v1.2.uspp
ion-species /projects/musgravc/apps/jdftx-1.6.0/build/pseudopotentials/GBRV_v1.5/$ID_pbe_v1.4.uspp
ion-species /projects/musgravc/apps/jdftx-1.6.0/build/pseudopotentials/GBRV_v1.5/$ID_pbe_v1.5.uspp
ion-width Ecut
ionic-minimize  \
	dirUpdateScheme      L-BFGS \
	linminMethod         DirUpdateRecommended \
	nIterations          100 \
	history              15 \
	knormThreshold       0.0001 \
	energyDiffThreshold  1e-06 \
	nEnergyDiff          2 \
	alphaTstart          1 \
	alphaTmin            1e-10 \
	updateTestStepSize   yes \
	alphaTreduceFactor   0.1 \
	alphaTincreaseFactor 3 \
	nAlphaAdjustMax      3 \
	wolfeEnergy          0.0001 \
	wolfeGradient        0.9 \
	fdTest               no
kpoint   0.000000000000   0.000000000000   0.000000000000  1.00000000000000
kpoint-folding 11 2 1 
latt-move-scale 0 0 0
latt-scale 1 1 1 
lattice  \
	   5.420447000000000    0.000000000000000    0.000000000000000  \
	   0.000000000000000   25.424147000000001    0.000000000000000  \
	   0.000000000000000   -0.000000000000000   71.910343999999995 
lattice-minimize  \
	dirUpdateScheme      L-BFGS \
	linminMethod         DirUpdateRecommended \
	nIterations          0 \
	history              15 \
	knormThreshold       0 \
	energyDiffThreshold  1e-06 \
	nEnergyDiff          2 \
	alphaTstart          1 \
	alphaTmin            1e-10 \
	updateTestStepSize   yes \
	alphaTreduceFactor   0.1 \
	alphaTincreaseFactor 3 \
	nAlphaAdjustMax      3 \
	wolfeEnergy          0.0001 \
	wolfeGradient        0.9 \
	fdTest               no
lcao-params 30 1e-06 0.001
pcm-variant CANDLE
spintype z-spin
subspace-rotation-factor 1 yes
symmetries none
symmetry-threshold 0.0001
van-der-waals D3


Applied RMS atom displacement 0 bohrs to make symmetries exact.

---------- Initializing the Grid ----------
R = 
[      5.42045            0            0  ]
[            0      25.4241            0  ]
[            0            0      71.9103  ]
unit cell volume = 9909.98
G =
[    1.15916         -0          0  ]
[          0   0.247135          0  ]
[         -0          0  0.0873753  ]
Minimum fftbox size, Smin = [  24  104  292  ]
Chosen fftbox size, S = [  24  108  294  ]

---------- Exchange Correlation functional ----------
Initalized PBE GGA exchange.
Initalized PBE GGA correlation.

---------- Setting up pseudopotentials ----------
Width of ionic core gaussian charges (only for fluid interactions / plotting) set to 0.397384

Reading pseudopotential file '/projects/musgravc/apps/jdftx-1.6.0/build/pseudopotentials/GBRV_v1.5/ag_pbe_v1.4.uspp':
  Title: Ag.  Created by USPP 7.3.6 on 1-4-15
  Reference state energy: -147.606242.  19 valence electrons in orbitals:
    |400>  occupation: 2  eigenvalue: -3.637437
    |410>  occupation: 6  eigenvalue: -2.297267
    |420>  occupation: 10  eigenvalue: -0.417763
    |500>  occupation: 0.5  eigenvalue: -0.283525
    |510>  occupation: 0  eigenvalue: -0.122889
  lMax: 2  lLocal: 0  QijEcut: 5.5
  6 projectors sampled on a log grid with 717 points:
    l: 0  eig: -0.283528  rCut: 1.5
    l: 0  eig: -3.637440  rCut: 1.5
    l: 1  eig: -0.122892  rCut: 1.5
    l: 1  eig: -2.297267  rCut: 1.5
    l: 2  eig: -0.417762  rCut: 1.7
    l: 2  eig: -1.000000  rCut: 1.7
  Partial core density with radius 1.2
  Transforming core density to a uniform radial grid of dG=0.02 with 1164 points.
  Transforming local potential to a uniform radial grid of dG=0.02 with 1164 points.
  Transforming nonlocal projectors to a uniform radial grid of dG=0.02 with 432 points.
  Transforming density augmentations to a uniform radial grid of dG=0.02 with 1164 points.
  Transforming atomic orbitals to a uniform radial grid of dG=0.02 with 432 points.
  Core radius for overlap checks: 1.70 bohrs.

Initialized 1 species with 44 total atoms.

Folded 1 k-points by 11x2x1 to 22 k-points.

---------- Setting up k-points, bands, fillings ----------
No reducable k-points. 
Computing the number of bands and number of electrons
Calculating initial fillings.
nElectrons: 836.000000   nBands: 502   nStates: 44

----- Setting up reduced wavefunction bases (one per k-point) -----
average nbasis = 42326.136 , ideal nbasis = 42336.198

----- Initializing Supercell corresponding to k-point mesh -----
Lattice vector linear combinations in supercell:
[  11   0   0  ]
[   0   2   0  ]
[   0   0   1  ]
Supercell lattice vectors:
[  59.6249  0  0  ]
[  0  50.8483  0  ]
[  0  0  71.9103  ]

Initializing DFT-D3 calculator:
	Parameters set for gga-PBE functional
	s6:  1.000  s_r6:  1.217
	s8:  0.722  s_r8:  1.000
	Per-atom parameters loaded for:
	Ag:  sqrtQ[a0]:  5.443  Rcov[a0]:  2.173  CN: [ 0.00 0.97 ]

Initializing DFT-D2 calculator for fluid / solvation:
	Ag:  C6:  427.91 Eh-a0^6  R0: 3.097 a0

---------- Setting up ewald sum ----------
Optimum gaussian width for ewald sums = 4.560638 bohr.
Real space sum over 665 unit cells with max indices [  9  3  2  ]
Reciprocal space sum over 7497 terms with max indices [  3  10  25  ]

Computing DFT-D3 correction:
# coordination-number Ag 6.867 8.404 6.872 9.200 9.210 9.213 5.360 9.202 9.212 9.212 9.213 9.213 9.212 9.212 9.205 9.213 9.213 9.211 9.201 6.897 9.195 6.871 9.195 9.205 9.201 9.211 9.212 9.213 6.897 9.212 9.213 9.213 9.213 9.212 9.210 9.202 8.404 9.213 9.212 9.200 6.872 5.360 6.867 6.871
# diagonal-C6 Ag 268.61 268.61 268.61 268.61 268.61 268.61 268.61 268.61 268.61 268.61 268.61 268.61 268.61 268.61 268.61 268.61 268.61 268.61 268.61 268.61 268.61 268.61 268.61 268.61 268.61 268.61 268.61 268.61 268.61 268.61 268.61 268.61 268.61 268.61 268.61 268.61 268.61 268.61 268.61 268.61 268.61 268.61 268.61 268.61
EvdW_6 =   -0.306790
EvdW_8 =   -0.403444

---------- Allocating electronic variables ----------
Initializing wave functions:  linear combination of atomic orbitals
Ag pseudo-atom occupations:   s ( 2 1 )  p ( 6 0 )  d ( 10 )
	FillingsUpdate:  mu: +0.120888028  nElectrons: 836.000000  magneticMoment: [ Abs: 0.00228  Tot: +0.00002 ]
LCAOMinimize: Iter:   0  F: -6494.0944273127834094  |grad|_K:  9.416e-04  alpha:  1.000e+00
	FillingsUpdate:  mu: +0.168506860  nElectrons: 836.000000  magneticMoment: [ Abs: 0.00221  Tot: +0.00004 ]
LCAOMinimize: Iter:   1  F: -6494.2966050458853715  |grad|_K:  4.342e-04  alpha:  2.266e-02  linmin: -1.016e-01  cgtest:  7.704e-01  t[s]:    365.45
LCAOMinimize: Encountered beta<0, resetting CG.
LCAOMinimize: 	Predicted alpha/alphaT>3.000000, increasing alphaT to 6.799119e-02.
	FillingsUpdate:  mu: +0.277570096  nElectrons: 836.000000  magneticMoment: [ Abs: 0.00199  Tot: +0.00008 ]
LCAOMinimize: Iter:   2  F: -6494.4382885075292506  |grad|_K:  5.714e-04  alpha:  1.023e-01  linmin: -4.111e-03  cgtest:  4.950e-02  t[s]:    535.94
	FillingsUpdate:  mu: +0.237650945  nElectrons: 836.000000  magneticMoment: [ Abs: 0.00163  Tot: -0.00003 ]
LCAOMinimize: Iter:   3  F: -6494.6482463213569645  |grad|_K:  3.298e-04  alpha:  8.644e-02  linmin: -4.191e-03  cgtest: -4.055e-01  t[s]:    671.69
	FillingsUpdate:  mu: +0.281587505  nElectrons: 836.000000  magneticMoment: [ Abs: 0.00134  Tot: -0.00009 ]
LCAOMinimize: Iter:   4  F: -6494.7453778166081975  |grad|_K:  1.763e-04  alpha:  1.159e-01  linmin: -4.162e-03  cgtest: -4.547e-03  t[s]:    807.52
	FillingsUpdate:  mu: +0.249506791  nElectrons: 836.000000  magneticMoment: [ Abs: 0.00132  Tot: -0.00013 ]
LCAOMinimize: Iter:   5  F: -6494.7595765828291405  |grad|_K:  9.851e-05  alpha:  5.965e-02  linmin: -1.069e-03  cgtest: -4.418e-02  t[s]:    943.23
	FillingsUpdate:  mu: +0.251333734  nElectrons: 836.000000  magneticMoment: [ Abs: 0.00132  Tot: -0.00015 ]
LCAOMinimize: Iter:   6  F: -6494.7634560542282998  |grad|_K:  7.900e-05  alpha:  5.487e-02  linmin: -4.790e-04  cgtest:  2.306e-02  t[s]:   1079.01
	FillingsUpdate:  mu: +0.250816895  nElectrons: 836.000000  magneticMoment: [ Abs: 0.00132  Tot: -0.00015 ]
LCAOMinimize: Iter:   7  F: -6494.7645278740965296  |grad|_K:  5.099e-05  alpha:  2.405e-02  linmin:  1.120e-03  cgtest: -2.649e-02  t[s]:   1214.05
LCAOMinimize: 	Predicted alpha/alphaT>3.000000, increasing alphaT to 7.215155e-02.
	FillingsUpdate:  mu: +0.242068711  nElectrons: 836.000000  magneticMoment: [ Abs: 0.00133  Tot: -0.00017 ]
LCAOMinimize: Iter:   8  F: -6494.7664408470163835  |grad|_K:  3.236e-05  alpha:  1.035e-01  linmin:  1.706e-03  cgtest:  7.686e-02  t[s]:   1384.06
	FillingsUpdate:  mu: +0.247345216  nElectrons: 836.000000  magneticMoment: [ Abs: 0.00133  Tot: -0.00018 ]
LCAOMinimize: Iter:   9  F: -6494.7669100318771598  |grad|_K:  2.356e-05  alpha:  6.251e-02  linmin: -5.445e-05  cgtest:  1.323e-02  t[s]:   1520.62
	FillingsUpdate:  mu: +0.245063749  nElectrons: 836.000000  magneticMoment: [ Abs: 0.00134  Tot: -0.00018 ]
LCAOMinimize: Iter:  10  F: -6494.7672586192220479  |grad|_K:  1.458e-05  alpha:  8.688e-02  linmin: -5.470e-05  cgtest: -1.260e-02  t[s]:   1655.60
	FillingsUpdate:  mu: +0.246324475  nElectrons: 836.000000  magneticMoment: [ Abs: 0.00135  Tot: -0.00019 ]
LCAOMinimize: Iter:  11  F: -6494.7674288417847492  |grad|_K:  2.094e-05  alpha:  1.109e-01  linmin:  1.078e-04  cgtest:  1.277e-04  t[s]:   1790.71
	FillingsUpdate:  mu: +0.246154324  nElectrons: 836.000000  magneticMoment: [ Abs: 0.00135  Tot: -0.00019 ]
LCAOMinimize: Iter:  12  F: -6494.7675086121998902  |grad|_K:  1.221e-05  alpha:  2.516e-02  linmin: -2.351e-04  cgtest:  1.922e-02  t[s]:   1925.92
	FillingsUpdate:  mu: +0.244258293  nElectrons: 836.000000  magneticMoment: [ Abs: 0.00135  Tot: -0.00019 ]
LCAOMinimize: Iter:  13  F: -6494.7675555230080136  |grad|_K:  6.980e-06  alpha:  4.343e-02  linmin:  2.891e-04  cgtest: -1.268e-02  t[s]:   2061.71
	FillingsUpdate:  mu: +0.244864585  nElectrons: 836.000000  magneticMoment: [ Abs: 0.00136  Tot: -0.00019 ]
LCAOMinimize: Iter:  14  F: -6494.7675921403770189  |grad|_K:  4.344e-06  alpha:  1.046e-01  linmin:  4.199e-04  cgtest:  6.372e-03  t[s]:   2196.53
	FillingsUpdate:  mu: +0.244384435  nElectrons: 836.000000  magneticMoment: [ Abs: 0.00136  Tot: -0.00019 ]
LCAOMinimize: Iter:  15  F: -6494.7676048068515229  |grad|_K:  5.110e-06  alpha:  9.331e-02  linmin:  1.789e-05  cgtest:  3.225e-03  t[s]:   2332.59
	FillingsUpdate:  mu: +0.244619932  nElectrons: 836.000000  magneticMoment: [ Abs: 0.00136  Tot: -0.00019 ]
LCAOMinimize: Iter:  16  F: -6494.7676104632846545  |grad|_K:  3.806e-06  alpha:  2.998e-02  linmin: -2.606e-05  cgtest: -7.304e-04  t[s]:   2468.45
	FillingsUpdate:  mu: +0.245133418  nElectrons: 836.000000  magneticMoment: [ Abs: 0.00136  Tot: -0.00020 ]
LCAOMinimize: Iter:  17  F: -6494.7676141937154171  |grad|_K:  1.979e-06  alpha:  3.562e-02  linmin: -3.303e-05  cgtest: -3.004e-03  t[s]:   2604.10
LCAOMinimize: 	Predicted alpha/alphaT>3.000000, increasing alphaT to 1.068746e-01.
	FillingsUpdate:  mu: +0.244966896  nElectrons: 836.000000  magneticMoment: [ Abs: 0.00136  Tot: -0.00020 ]
LCAOMinimize: Iter:  18  F: -6494.7676177652865590  |grad|_K:  1.294e-06  alpha:  1.261e-01  linmin: -3.607e-05  cgtest:  1.056e-03  t[s]:   2774.49
	FillingsUpdate:  mu: +0.245138816  nElectrons: 836.000000  magneticMoment: [ Abs: 0.00136  Tot: -0.00020 ]
LCAOMinimize: Iter:  19  F: -6494.7676185471727877  |grad|_K:  1.093e-06  alpha:  6.462e-02  linmin: -2.635e-05  cgtest:  8.440e-05  t[s]:   2910.60
	FillingsUpdate:  mu: +0.245090049  nElectrons: 836.000000  magneticMoment: [ Abs: 0.00137  Tot: -0.00020 ]
LCAOMinimize: Iter:  20  F: -6494.7676188463155995  |grad|_K:  9.131e-07  alpha:  3.470e-02  linmin: -3.967e-06  cgtest: -4.569e-04  t[s]:   3046.75
LCAOMinimize: Converged (|Delta F|<1.000000e-06 for 2 iters).
----- createFluidSolver() ----- (Fluid-side solver setup)
   Initializing fluid molecule 'H2O'
     Initializing site 'O'
       Electron density: proportional to exp(-r/0.36935)*erfc((r-0.51523)/0.36823) with norm 6.826
       Charge density: gaussian nuclear width 0.478731 with net site charge 0.826
       Polarizability: cuspless exponential with width 0.32 and norm 3.73
       Hard sphere radius: 2.57003 bohrs
       Positions in reference frame:
         [ +0.000000 +0.000000 +0.000000 ]
     Initializing site 'H'
       Electron density: proportional to exp(-r/0.34641)*erfc((r-0)/0.390882) with norm 0.587
       Charge density: gaussian nuclear width 0.377945 with net site charge -0.413
       Polarizability: cuspless exponential with width 0.39 and norm 3.3
       Positions in reference frame:
         [ +0.000000 -1.441945 +1.122523 ]
         [ +0.000000 +1.441945 +1.122523 ]
     Net charge: 0   dipole magnitude: 0.927204
     Initializing spherical shell mfKernel with radius 2.61727 Bohr
     deltaS corrections:
       site 'O': -7.54299
       site 'H': -6.83917
   Initializing fluid molecule 'Na+'
     Initializing site 'Na'
       Electron density: proportional to exp(-r/0.19682)*erfc((r-0.71491)/0.41314) with norm 8.1383
       Charge density: gaussian nuclear width 0.365347 with net site charge -1
       Hard sphere radius: 1.86327 bohrs
       Positions in reference frame:
         [ +0.000000 +0.000000 +0.000000 ]
     Net charge: -1   dipole magnitude: 0
     Initializing gaussian mfKernel with width: 1.55004 Bohr
     deltaS corrections:
       site 'Na': -22.3555
   Initializing fluid molecule 'F-'
     Initializing site 'F'
       Electron density: proportional to exp(-r/0.38886)*erfc((r-0)/0.438782) with norm 8
       Charge density: gaussian nuclear width 0.374796 with net site charge 1
       Hard sphere radius: 2.39995 bohrs
       Positions in reference frame:
         [ +0.000000 +0.000000 +0.000000 ]
     Net charge: 1   dipole magnitude: 0
     Initializing gaussian mfKernel with width: 1.59012 Bohr
     deltaS corrections:
       site 'F': -9.04335

Correction to mu due to finite nuclear width = -0.0837015
   Cavity determined by nc: 0.00142 and sigma: 0.707107
   Nonlocal vdW cavity from gaussian model electron density with norm = 8 and sigma = 0.993594 bohr
   Charge asymmetry in cavity with sensitivity pCavity = 36.5 e-bohr/Eh
   Electrostatic cavity expanded by eta = 1.46 bohrs
   Weighted density cavitation model constrained by Nbulk: 0.0049383 bohr^-3, Pvap: 3.14029 kPa, Rvdw: 2.61727 bohr and sigmaBulk: 4.62e-05 Eh/bohr^2 at T: 298 K.
   Weighted density dispersion model using vdW pair potentials with single solvent site with sqrtC6eff: 0.77 SI.


---- Citations for features of the code used in this run ----

   Software package:
      R. Sundararaman, K. Letchworth-Weaver, K.A. Schwarz, D. Gunceler, Y. Ozhabes and T.A. Arias, 'JDFTx: software for joint density-functional theory', SoftwareX 6, 278 (2017)

   gga-PBE exchange-correlation functional:
      J.P. Perdew, K. Burke and M. Ernzerhof, Phys. Rev. Lett. 77, 3865 (1996)

   Pseudopotentials:
      KF Garrity, JW Bennett, KM Rabe and D Vanderbilt, Comput. Mater. Sci. 81, 446 (2014)

   DFT-D3 dispersion correction:
      S. Grimme, J. Antony, S. Ehrlich and H. Krieg, J. Chem. Phys. 132, 154104 (2010)

   DFT-D2 dispersion correction:
      S. Grimme, J. Comput. Chem. 27, 1787 (2006)

   Charge-asymmetric nonlocally-determined local-electric (CANDLE) solvation model:
      R. Sundararaman and W.A. Goddard III, J. Chem. Phys. 142, 064107 (2015)

   Total energy minimization with Auxiliary Hamiltonian:
      C. Freysoldt, S. Boeck, and J. Neugebauer, Phys. Rev. B 79, 241103(R) (2009)

   Linear-tetrahedron sampling for density of states:
      G. Lehmann and M. Taut, Phys. status solidi (b) 54, 469 (1972)

This list may not be complete. Please suggest additional citations or
report any other bugs at https://github.com/shankar1729/jdftx/issues

Initialization completed successfully at t[s]:   3092.10


Computing DFT-D3 correction:
# coordination-number Ag 6.867 8.404 6.872 9.200 9.210 9.213 5.360 9.202 9.212 9.212 9.213 9.213 9.212 9.212 9.205 9.213 9.213 9.211 9.201 6.897 9.195 6.871 9.195 9.205 9.201 9.211 9.212 9.213 6.897 9.212 9.213 9.213 9.213 9.212 9.210 9.202 8.404 9.213 9.212 9.200 6.872 5.360 6.867 6.871
# diagonal-C6 Ag 268.61 268.61 268.61 268.61 268.61 268.61 268.61 268.61 268.61 268.61 268.61 268.61 268.61 268.61 268.61 268.61 268.61 268.61 268.61 268.61 268.61 268.61 268.61 268.61 268.61 268.61 268.61 268.61 268.61 268.61 268.61 268.61 268.61 268.61 268.61 268.61 268.61 268.61 268.61 268.61 268.61 268.61 268.61 268.61
EvdW_6 =   -0.306790
EvdW_8 =   -0.403444
Fluid solver invoked on fresh (random / LCAO) wavefunctions
Running a vacuum solve first:

-------- Initial electronic minimization -----------
	FillingsUpdate:  mu: +0.245090049  nElectrons: 836.000000  magneticMoment: [ Abs: 0.00137  Tot: -0.00020 ]
ElecMinimize: Iter:   0  F: -6494.767618846316509  |grad|_K:  2.160e-05  alpha:  1.000e+00
	FillingsUpdate:  mu: +0.250952219  nElectrons: 836.000000  magneticMoment: [ Abs: 0.00106  Tot: -0.00020 ]
	SubspaceRotationAdjust: set factor to 0.999
ElecMinimize: Iter:   1  F: -6494.954036077157070  |grad|_K:  1.481e-05  alpha:  4.260e-01  linmin:  1.609e-05  t[s]:   3492.35
	FillingsUpdate:  mu: +0.238485336  nElectrons: 836.000000  magneticMoment: [ Abs: 0.00088  Tot: -0.00017 ]
	SubspaceRotationAdjust: set factor to 0.527
ElecMinimize: Iter:   2  F: -6494.996474281448172  |grad|_K:  2.939e-05  alpha:  2.072e-01  linmin:  3.972e-05  t[s]:   3752.39
	FillingsUpdate:  mu: +0.242937098  nElectrons: 836.000000  magneticMoment: [ Abs: 0.00080  Tot: -0.00016 ]
	SubspaceRotationAdjust: set factor to 0.214
ElecMinimize: Iter:   3  F: -6495.011590030610023  |grad|_K:  7.256e-06  alpha:  2.053e-02  linmin:  9.250e-04  t[s]:   4013.46
ElecMinimize: 	Predicted alpha/alphaT>3.000000, increasing alphaT to 6.158480e-02.
ElecMinimize: 	Predicted alpha/alphaT>3.000000, increasing alphaT to 1.847544e-01.
	FillingsUpdate:  mu: +0.253698930  nElectrons: 836.000000  magneticMoment: [ Abs: 0.00065  Tot: -0.00015 ]
	SubspaceRotationAdjust: set factor to 0.132
	SubspaceRotationAdjust: resetting CG because factor has changed by 0.132028
ElecMinimize: 	State modified externally: resetting search direction.
ElecMinimize: Iter:   4  F: -6495.022542402028193  |grad|_K:  5.991e-06  alpha:  2.455e-01
	FillingsUpdate:  mu: +0.249351423  nElectrons: 836.000000  magneticMoment: [ Abs: 0.00062  Tot: -0.00014 ]
	SubspaceRotationAdjust: set factor to 0.163
ElecMinimize: Iter:   5  F: -6495.027233592121775  |grad|_K:  3.251e-06  alpha:  1.385e-01  linmin:  8.288e-06  t[s]:   4790.61
	FillingsUpdate:  mu: +0.241909313  nElectrons: 836.000000  magneticMoment: [ Abs: 0.00053  Tot: -0.00013 ]
	SubspaceRotationAdjust: set factor to 0.127
ElecMinimize: Iter:   6  F: -6495.030398682640225  |grad|_K:  2.815e-06  alpha:  3.186e-01  linmin:  3.041e-05  t[s]:   5050.23
	FillingsUpdate:  mu: +0.250207961  nElectrons: 836.000000  magneticMoment: [ Abs: 0.00044  Tot: -0.00013 ]
	SubspaceRotationAdjust: set factor to 0.085
ElecMinimize: Iter:   7  F: -6495.032684112416973  |grad|_K:  1.599e-06  alpha:  3.070e-01  linmin: -1.502e-06  t[s]:   5310.59
	FillingsUpdate:  mu: +0.248600190  nElectrons: 836.000000  magneticMoment: [ Abs: 0.00039  Tot: -0.00011 ]
	SubspaceRotationAdjust: set factor to 0.0816
ElecMinimize: Iter:   8  F: -6495.033942109677810  |grad|_K:  1.269e-06  alpha:  5.236e-01  linmin:  3.563e-05  t[s]:   5571.37
	FillingsUpdate:  mu: +0.248644441  nElectrons: 836.000000  magneticMoment: [ Abs: 0.00038  Tot: -0.00011 ]
	SubspaceRotationAdjust: set factor to 0.0709
ElecMinimize: Iter:   9  F: -6495.034366776274510  |grad|_K:  7.482e-07  alpha:  2.810e-01  linmin: -5.434e-06  t[s]:   5832.00
	FillingsUpdate:  mu: +0.249685438  nElectrons: 836.000000  magneticMoment: [ Abs: 0.00039  Tot: -0.00010 ]
	SubspaceRotationAdjust: set factor to 0.072
ElecMinimize: Iter:  10  F: -6495.034611423821843  |grad|_K:  6.608e-07  alpha:  4.648e-01  linmin:  7.293e-06  t[s]:   6092.60
	FillingsUpdate:  mu: +0.249512970  nElectrons: 836.000000  magneticMoment: [ Abs: 0.00040  Tot: -0.00009 ]
	SubspaceRotationAdjust: set factor to 0.082
ElecMinimize: Iter:  11  F: -6495.034831180226320  |grad|_K:  6.526e-07  alpha:  5.360e-01  linmin:  1.476e-05  t[s]:   6352.88
	FillingsUpdate:  mu: +0.249222173  nElectrons: 836.000000  magneticMoment: [ Abs: 0.00041  Tot: -0.00007 ]
	SubspaceRotationAdjust: set factor to 0.0947
ElecMinimize: Iter:  12  F: -6495.035027795239330  |grad|_K:  6.338e-07  alpha:  4.924e-01  linmin:  1.015e-05  t[s]:   6613.07
	FillingsUpdate:  mu: +0.249716494  nElectrons: 836.000000  magneticMoment: [ Abs: 0.00042  Tot: -0.00006 ]
	SubspaceRotationAdjust: set factor to 0.094
ElecMinimize: Iter:  13  F: -6495.035237637848695  |grad|_K:  6.294e-07  alpha:  5.576e-01  linmin:  1.213e-05  t[s]:   6873.50
	FillingsUpdate:  mu: +0.249976329  nElectrons: 836.000000  magneticMoment: [ Abs: 0.00040  Tot: -0.00004 ]
	SubspaceRotationAdjust: set factor to 0.0772
ElecMinimize: Iter:  14  F: -6495.035365534279663  |grad|_K:  6.118e-07  alpha:  3.443e-01  linmin: -5.073e-07  t[s]:   7134.93
	FillingsUpdate:  mu: +0.249992867  nElectrons: 836.000000  magneticMoment: [ Abs: 0.00034  Tot: -0.00002 ]
	SubspaceRotationAdjust: set factor to 0.0766
ElecMinimize: Iter:  15  F: -6495.035551533886974  |grad|_K:  5.257e-07  alpha:  5.292e-01  linmin:  6.628e-06  t[s]:   7394.90
	FillingsUpdate:  mu: +0.250112327  nElectrons: 836.000000  magneticMoment: [ Abs: 0.00028  Tot: -0.00000 ]
	SubspaceRotationAdjust: set factor to 0.0797
ElecMinimize: Iter:  16  F: -6495.035657180254020  |grad|_K:  3.898e-07  alpha:  4.079e-01  linmin: -1.655e-06  t[s]:   7655.75
	FillingsUpdate:  mu: +0.250323551  nElectrons: 836.000000  magneticMoment: [ Abs: 0.00023  Tot: +0.00000 ]
	SubspaceRotationAdjust: set factor to 0.069
ElecMinimize: Iter:  17  F: -6495.035707954560166  |grad|_K:  2.771e-07  alpha:  3.551e-01  linmin: -1.897e-06  t[s]:   7916.15
	FillingsUpdate:  mu: +0.250503412  nElectrons: 836.000000  magneticMoment: [ Abs: 0.00018  Tot: +0.00001 ]
	SubspaceRotationAdjust: set factor to 0.0604
ElecMinimize: Iter:  18  F: -6495.035732499772166  |grad|_K:  1.940e-07  alpha:  3.397e-01  linmin: -8.016e-07  t[s]:   8177.09
	FillingsUpdate:  mu: +0.250515173  nElectrons: 836.000000  magneticMoment: [ Abs: 0.00013  Tot: +0.00001 ]
	SubspaceRotationAdjust: set factor to 0.0676
ElecMinimize: Iter:  19  F: -6495.035748339216298  |grad|_K:  1.512e-07  alpha:  4.474e-01  linmin:  4.091e-07  t[s]:   8438.80
	FillingsUpdate:  mu: +0.250457925  nElectrons: 836.000000  magneticMoment: [ Abs: 0.00011  Tot: +0.00001 ]
	SubspaceRotationAdjust: set factor to 0.0707
ElecMinimize: Iter:  20  F: -6495.035756024539296  |grad|_K:  1.066e-07  alpha:  3.574e-01  linmin: -2.294e-07  t[s]:   8699.39
	FillingsUpdate:  mu: +0.250499070  nElectrons: 836.000000  magneticMoment: [ Abs: 0.00010  Tot: +0.00001 ]
	SubspaceRotationAdjust: set factor to 0.0791
ElecMinimize: Iter:  21  F: -6495.035760346159805  |grad|_K:  8.050e-08  alpha:  4.043e-01  linmin: -5.189e-07  t[s]:   8960.12
	FillingsUpdate:  mu: +0.250554238  nElectrons: 836.000000  magneticMoment: [ Abs: 0.00010  Tot: +0.00001 ]
	SubspaceRotationAdjust: set factor to 0.103
ElecMinimize: Iter:  22  F: -6495.035762985973633  |grad|_K:  7.108e-08  alpha:  4.330e-01  linmin:  1.739e-07  t[s]:   9221.39
	FillingsUpdate:  mu: +0.250498401  nElectrons: 836.000000  magneticMoment: [ Abs: 0.00011  Tot: +0.00001 ]
	SubspaceRotationAdjust: set factor to 0.124
ElecMinimize: Iter:  23  F: -6495.035765517407526  |grad|_K:  7.924e-08  alpha:  5.329e-01  linmin:  6.321e-07  t[s]:   9481.89
	FillingsUpdate:  mu: +0.250442177  nElectrons: 836.000000  magneticMoment: [ Abs: 0.00011  Tot: +0.00001 ]
	SubspaceRotationAdjust: set factor to 0.127
ElecMinimize: Iter:  24  F: -6495.035768061232375  |grad|_K:  8.428e-08  alpha:  4.309e-01  linmin:  5.263e-07  t[s]:   9743.44
	FillingsUpdate:  mu: +0.250459499  nElectrons: 836.000000  magneticMoment: [ Abs: 0.00012  Tot: +0.00001 ]
	SubspaceRotationAdjust: set factor to 0.116
ElecMinimize: Iter:  25  F: -6495.035770078450696  |grad|_K:  7.814e-08  alpha:  3.021e-01  linmin:  2.504e-07  t[s]:  10004.17
	FillingsUpdate:  mu: +0.250462008  nElectrons: 836.000000  magneticMoment: [ Abs: 0.00011  Tot: +0.00001 ]
	SubspaceRotationAdjust: set factor to 0.114
ElecMinimize: Iter:  26  F: -6495.035772396834545  |grad|_K:  7.047e-08  alpha:  4.047e-01  linmin:  1.419e-06  t[s]:  10266.43
	FillingsUpdate:  mu: +0.250367062  nElectrons: 836.000000  magneticMoment: [ Abs: 0.00010  Tot: +0.00001 ]
	SubspaceRotationAdjust: set factor to 0.116
ElecMinimize: Iter:  27  F: -6495.035774285625848  |grad|_K:  6.198e-08  alpha:  4.062e-01  linmin:  2.869e-07  t[s]:  10527.35
	FillingsUpdate:  mu: +0.250336411  nElectrons: 836.000000  magneticMoment: [ Abs: 0.00008  Tot: +0.00001 ]
	SubspaceRotationAdjust: set factor to 0.122
ElecMinimize: Iter:  28  F: -6495.035775802072749  |grad|_K:  4.934e-08  alpha:  4.201e-01  linmin:  2.074e-07  t[s]:  10789.31
	FillingsUpdate:  mu: +0.250348273  nElectrons: 836.000000  magneticMoment: [ Abs: 0.00006  Tot: +0.00000 ]
	SubspaceRotationAdjust: set factor to 0.134
ElecMinimize: Iter:  29  F: -6495.035776642787823  |grad|_K:  3.789e-08  alpha:  3.679e-01  linmin: -4.272e-07  t[s]:  11050.46
	FillingsUpdate:  mu: +0.250327561  nElectrons: 836.000000  magneticMoment: [ Abs: 0.00005  Tot: +0.00000 ]
	SubspaceRotationAdjust: set factor to 0.157
ElecMinimize: Iter:  30  F: -6495.035777189938926  |grad|_K:  3.101e-08  alpha:  4.043e-01  linmin: -8.784e-08  t[s]:  11310.77
	FillingsUpdate:  mu: +0.250327749  nElectrons: 836.000000  magneticMoment: [ Abs: 0.00003  Tot: +0.00000 ]
	SubspaceRotationAdjust: set factor to 0.183
ElecMinimize: Iter:  31  F: -6495.035777530049927  |grad|_K:  2.831e-08  alpha:  3.750e-01  linmin: -5.942e-08  t[s]:  11573.07
	FillingsUpdate:  mu: +0.250332787  nElectrons: 836.000000  magneticMoment: [ Abs: 0.00003  Tot: +0.00000 ]
	SubspaceRotationAdjust: set factor to 0.15
ElecMinimize: Iter:  32  F: -6495.035777755118943  |grad|_K:  3.076e-08  alpha:  2.985e-01  linmin: -9.415e-08  t[s]:  11834.18
	FillingsUpdate:  mu: +0.250333512  nElectrons: 836.000000  magneticMoment: [ Abs: 0.00003  Tot: +0.00000 ]
	SubspaceRotationAdjust: set factor to 0.136
ElecMinimize: Iter:  33  F: -6495.035777917305495  |grad|_K:  2.287e-08  alpha:  1.831e-01  linmin: -1.507e-07  t[s]:  12095.69
	FillingsUpdate:  mu: +0.250335458  nElectrons: 836.000000  magneticMoment: [ Abs: 0.00003  Tot: +0.00000 ]
	SubspaceRotationAdjust: set factor to 0.17
ElecMinimize: Iter:  34  F: -6495.035778088714324  |grad|_K:  1.903e-08  alpha:  3.535e-01  linmin:  2.945e-06  t[s]:  12356.71
	FillingsUpdate:  mu: +0.250354261  nElectrons: 836.000000  magneticMoment: [ Abs: 0.00003  Tot: +0.00000 ]
	SubspaceRotationAdjust: set factor to 0.205
ElecMinimize: Iter:  35  F: -6495.035778223836132  |grad|_K:  1.813e-08  alpha:  4.090e-01  linmin:  4.810e-07  t[s]:  12617.90
	FillingsUpdate:  mu: +0.250355525  nElectrons: 836.000000  magneticMoment: [ Abs: 0.00003  Tot: +0.00000 ]
	SubspaceRotationAdjust: set factor to 0.202
ElecMinimize: Iter:  36  F: -6495.035778343401034  |grad|_K:  2.110e-08  alpha:  3.884e-01  linmin:  1.519e-07  t[s]:  12878.29
	FillingsUpdate:  mu: +0.250356854  nElectrons: 836.000000  magneticMoment: [ Abs: 0.00003  Tot: +0.00000 ]
	SubspaceRotationAdjust: set factor to 0.155
ElecMinimize: Iter:  37  F: -6495.035778406517238  |grad|_K:  1.847e-08  alpha:  1.499e-01  linmin: -3.516e-08  t[s]:  13140.01
	FillingsUpdate:  mu: +0.250365364  nElectrons: 836.000000  magneticMoment: [ Abs: 0.00003  Tot: +0.00000 ]
	SubspaceRotationAdjust: set factor to 0.167
ElecMinimize: Iter:  38  F: -6495.035778495815066  |grad|_K:  1.394e-08  alpha:  2.736e-01  linmin: -8.704e-07  t[s]:  13402.01
ElecMinimize: Converged (|Delta F|<1.000000e-07 for 2 iters).
Setting wave functions to eigenvectors of Hamiltonian
Converging empty states (this may take a while): |deigs|: 6.895e-03
Vacuum energy after initial minimize, F = -6495.035778495815066


-------- Electronic minimization -----------
	Linear fluid (dielectric constant: 78.4, screening length: 8.12261 Bohr) occupying 0.386714 of unit cell:	Completed after 26 iterations at t[s]:  14577.16
	FillingsUpdate:  mu: -0.153401558  nElectrons: 836.000000  magneticMoment: [ Abs: 0.00001  Tot: +0.00000 ]
ElecMinimize: Iter:   0  F: -6495.037482712991732  |grad|_K:  4.240e-07  alpha:  1.000e+00
	Linear fluid (dielectric constant: 78.4, screening length: 8.12261 Bohr) occupying 0.387407 of unit cell:	Completed after 21 iterations at t[s]:  14796.11
	Linear fluid (dielectric constant: 78.4, screening length: 8.12261 Bohr) occupying 0.387224 of unit cell:	Completed after 16 iterations at t[s]:  14865.77
	FillingsUpdate:  mu: -0.147455895  nElectrons: 836.000000  magneticMoment: [ Abs: 0.00000  Tot: +0.00000 ]
	SubspaceRotationAdjust: set factor to 0.118
ElecMinimize: Iter:   1  F: -6495.037605925680509  |grad|_K:  5.986e-07  alpha:  7.321e-01  linmin: -1.936e-07  t[s]:  14967.87
	Linear fluid (dielectric constant: 78.4, screening length: 8.12261 Bohr) occupying 0.388320 of unit cell:	Completed after 22 iterations at t[s]:  15069.01
	Linear fluid (dielectric constant: 78.4, screening length: 8.12261 Bohr) occupying 0.387723 of unit cell:	Completed after 20 iterations at t[s]:  15140.16
	FillingsUpdate:  mu: -0.150020746  nElectrons: 836.000000  magneticMoment: [ Abs: 0.00000  Tot: +0.00000 ]
	SubspaceRotationAdjust: set factor to 0.0961
ElecMinimize: Iter:   2  F: -6495.037716925996392  |grad|_K:  3.797e-07  alpha:  3.280e-01  linmin: -6.849e-08  t[s]:  15242.20
	Linear fluid (dielectric constant: 78.4, screening length: 8.12261 Bohr) occupying 0.387970 of unit cell:	Completed after 12 iterations at t[s]:  15341.28
	Linear fluid (dielectric constant: 78.4, screening length: 8.12261 Bohr) occupying 0.388161 of unit cell:	Completed after 11 iterations at t[s]:  15410.28
	FillingsUpdate:  mu: -0.149580015  nElectrons: 836.000000  magneticMoment: [ Abs: 0.00000  Tot: +0.00000 ]
	SubspaceRotationAdjust: set factor to 0.123
ElecMinimize: Iter:   3  F: -6495.037796578879352  |grad|_K:  2.794e-07  alpha:  5.855e-01  linmin: -2.444e-07  t[s]:  15512.56
	Linear fluid (dielectric constant: 78.4, screening length: 8.12261 Bohr) occupying 0.388401 of unit cell:	Completed after 16 iterations at t[s]:  15612.15
	Linear fluid (dielectric constant: 78.4, screening length: 8.12261 Bohr) occupying 0.388361 of unit cell:	Completed after 11 iterations at t[s]:  15681.37
	FillingsUpdate:  mu: -0.148295480  nElectrons: 836.000000  magneticMoment: [ Abs: 0.00000  Tot: +0.00000 ]
	SubspaceRotationAdjust: set factor to 0.132
ElecMinimize: Iter:   4  F: -6495.037832357604202  |grad|_K:  2.498e-07  alpha:  4.856e-01  linmin: -4.840e-08  t[s]:  15783.20
	Linear fluid (dielectric constant: 78.4, screening length: 8.12261 Bohr) occupying 0.388502 of unit cell:	Completed after 13 iterations at t[s]:  15882.50
	Linear fluid (dielectric constant: 78.4, screening length: 8.12261 Bohr) occupying 0.388497 of unit cell:	Completed after 2 iterations at t[s]:  15949.73
	FillingsUpdate:  mu: -0.148873516  nElectrons: 836.000000  magneticMoment: [ Abs: 0.00000  Tot: +0.00000 ]
	SubspaceRotationAdjust: set factor to 0.147
ElecMinimize: Iter:   5  F: -6495.037859901643060  |grad|_K:  1.911e-07  alpha:  4.689e-01  linmin:  4.859e-08  t[s]:  16052.23
	Linear fluid (dielectric constant: 78.4, screening length: 8.12261 Bohr) occupying 0.388577 of unit cell:	Completed after 11 iterations at t[s]:  16150.98
	Linear fluid (dielectric constant: 78.4, screening length: 8.12261 Bohr) occupying 0.388598 of unit cell:	Completed after 7 iterations at t[s]:  16219.22
	FillingsUpdate:  mu: -0.148514308  nElectrons: 836.000000  magneticMoment: [ Abs: 0.00000  Tot: +0.00000 ]
	SubspaceRotationAdjust: set factor to 0.164
ElecMinimize: Iter:   6  F: -6495.037880398283960  |grad|_K:  1.598e-07  alpha:  5.970e-01  linmin: -8.184e-08  t[s]:  16321.46
	Linear fluid (dielectric constant: 78.4, screening length: 8.12261 Bohr) occupying 0.388667 of unit cell:	Completed after 7 iterations at t[s]:  16419.28
	Linear fluid (dielectric constant: 78.4, screening length: 8.12261 Bohr) occupying 0.388658 of unit cell:	Completed after 3 iterations at t[s]:  16486.66
	FillingsUpdate:  mu: -0.148684424  nElectrons: 836.000000  magneticMoment: [ Abs: 0.00000  Tot: +0.00000 ]
	SubspaceRotationAdjust: set factor to 0.181
ElecMinimize: Iter:   7  F: -6495.037892751912295  |grad|_K:  1.359e-07  alpha:  5.135e-01  linmin: -6.219e-09  t[s]:  16588.63
	Linear fluid (dielectric constant: 78.4, screening length: 8.12261 Bohr) occupying 0.388712 of unit cell:	Completed after 12 iterations at t[s]:  16687.88
	Linear fluid (dielectric constant: 78.4, screening length: 8.12261 Bohr) occupying 0.388706 of unit cell:	Completed after 2 iterations at t[s]:  16754.88
	FillingsUpdate:  mu: -0.148217869  nElectrons: 836.000000  magneticMoment: [ Abs: 0.00000  Tot: +0.00000 ]
	SubspaceRotationAdjust: set factor to 0.193
ElecMinimize: Iter:   8  F: -6495.037900750760855  |grad|_K:  1.072e-07  alpha:  4.605e-01  linmin:  5.203e-08  t[s]:  16856.95
	Linear fluid (dielectric constant: 78.4, screening length: 8.12261 Bohr) occupying 0.388735 of unit cell:	Completed after 13 iterations at t[s]:  16956.38
	Linear fluid (dielectric constant: 78.4, screening length: 8.12261 Bohr) occupying 0.388731 of unit cell:	Completed after 6 iterations at t[s]:  17023.74
	FillingsUpdate:  mu: -0.148755197  nElectrons: 836.000000  magneticMoment: [ Abs: 0.00000  Tot: +0.00000 ]
	SubspaceRotationAdjust: set factor to 0.177
ElecMinimize: Iter:   9  F: -6495.037904909005192  |grad|_K:  9.246e-08  alpha:  3.864e-01  linmin: -1.390e-07  t[s]:  17125.66
	Linear fluid (dielectric constant: 78.4, screening length: 8.12261 Bohr) occupying 0.388761 of unit cell:	Completed after 13 iterations at t[s]:  17226.16
	Linear fluid (dielectric constant: 78.4, screening length: 8.12261 Bohr) occupying 0.388756 of unit cell:	Completed after 5 iterations at t[s]:  17294.01
	FillingsUpdate:  mu: -0.148207342  nElectrons: 836.000000  magneticMoment: [ Abs: 0.00000  Tot: +0.00000 ]
	SubspaceRotationAdjust: set factor to 0.136
ElecMinimize: Iter:  10  F: -6495.037907524045295  |grad|_K:  6.918e-08  alpha:  3.245e-01  linmin:  4.349e-08  t[s]:  17395.96
	Linear fluid (dielectric constant: 78.4, screening length: 8.12261 Bohr) occupying 0.388767 of unit cell:	Completed after 11 iterations at t[s]:  17494.71
	Linear fluid (dielectric constant: 78.4, screening length: 8.12261 Bohr) occupying 0.388768 of unit cell:	Completed after 2 iterations at t[s]:  17562.14
	FillingsUpdate:  mu: -0.148506807  nElectrons: 836.000000  magneticMoment: [ Abs: 0.00000  Tot: +0.00000 ]
	SubspaceRotationAdjust: set factor to 0.139
ElecMinimize: Iter:  11  F: -6495.037909132910499  |grad|_K:  4.815e-08  alpha:  3.575e-01  linmin: -6.375e-07  t[s]:  17664.29
	Linear fluid (dielectric constant: 78.4, screening length: 8.12261 Bohr) occupying 0.388775 of unit cell:	Completed after 2 iterations at t[s]:  17760.88
	Linear fluid (dielectric constant: 78.4, screening length: 8.12261 Bohr) occupying 0.388777 of unit cell:	Completed after 2 iterations at t[s]:  17829.49
	FillingsUpdate:  mu: -0.148535572  nElectrons: 836.000000  magneticMoment: [ Abs: 0.00000  Tot: +0.00000 ]
	SubspaceRotationAdjust: set factor to 0.164
ElecMinimize: Iter:  12  F: -6495.037910069150712  |grad|_K:  3.458e-08  alpha:  4.241e-01  linmin: -5.581e-08  t[s]:  17932.02
	Linear fluid (dielectric constant: 78.4, screening length: 8.12261 Bohr) occupying 0.388783 of unit cell:	Completed after 7 iterations at t[s]:  18029.76
	Linear fluid (dielectric constant: 78.4, screening length: 8.12261 Bohr) occupying 0.388783 of unit cell:	Completed after 0 iterations at t[s]:  18096.31
	FillingsUpdate:  mu: -0.148381891  nElectrons: 836.000000  magneticMoment: [ Abs: 0.00000  Tot: +0.00000 ]
	SubspaceRotationAdjust: set factor to 0.152
ElecMinimize: Iter:  13  F: -6495.037910543384896  |grad|_K:  2.841e-08  alpha:  4.215e-01  linmin:  1.023e-06  t[s]:  18198.28
	Linear fluid (dielectric constant: 78.4, screening length: 8.12261 Bohr) occupying 0.388783 of unit cell:	Completed after 7 iterations at t[s]:  18295.77
	Linear fluid (dielectric constant: 78.4, screening length: 8.12261 Bohr) occupying 0.388783 of unit cell:	Completed after 0 iterations at t[s]:  18362.80
	FillingsUpdate:  mu: -0.148519999  nElectrons: 836.000000  magneticMoment: [ Abs: 0.00000  Tot: +0.00000 ]
	SubspaceRotationAdjust: set factor to 0.123
ElecMinimize: Iter:  14  F: -6495.037910811049187  |grad|_K:  2.318e-08  alpha:  3.522e-01  linmin:  8.530e-06  t[s]:  18464.86
	Linear fluid (dielectric constant: 78.4, screening length: 8.12261 Bohr) occupying 0.388783 of unit cell:	Completed after 3 iterations at t[s]:  18561.67
	Linear fluid (dielectric constant: 78.4, screening length: 8.12261 Bohr) occupying 0.388783 of unit cell:	Completed after 0 iterations at t[s]:  18628.22
	FillingsUpdate:  mu: -0.148483895  nElectrons: 836.000000  magneticMoment: [ Abs: 0.00000  Tot: +0.00000 ]
	SubspaceRotationAdjust: set factor to 0.13
ElecMinimize: Iter:  15  F: -6495.037910975716841  |grad|_K:  1.506e-08  alpha:  3.468e-01  linmin: -1.842e-05  t[s]:  18731.43
	Linear fluid (dielectric constant: 78.4, screening length: 8.12261 Bohr) occupying 0.388782 of unit cell:	Completed after 3 iterations at t[s]:  18828.24
	Linear fluid (dielectric constant: 78.4, screening length: 8.12261 Bohr) occupying 0.388782 of unit cell:	Completed after 0 iterations at t[s]:  18894.72
	FillingsUpdate:  mu: -0.148459367  nElectrons: 836.000000  magneticMoment: [ Abs: 0.00000  Tot: +0.00000 ]
	SubspaceRotationAdjust: set factor to 0.154
ElecMinimize: Iter:  16  F: -6495.037911074611657  |grad|_K:  1.162e-08  alpha:  4.224e-01  linmin: -4.775e-04  t[s]:  18997.03
	Linear fluid (dielectric constant: 78.4, screening length: 8.12261 Bohr) occupying 0.388779 of unit cell:	Completed after 2 iterations at t[s]:  19093.98
	Linear fluid (dielectric constant: 78.4, screening length: 8.12261 Bohr) occupying 0.388779 of unit cell:	Completed after 0 iterations at t[s]:  19160.79
	FillingsUpdate:  mu: -0.148467181  nElectrons: 836.000000  magneticMoment: [ Abs: 0.00000  Tot: +0.00000 ]
	SubspaceRotationAdjust: set factor to 0.184
ElecMinimize: Iter:  17  F: -6495.037911144400823  |grad|_K:  1.014e-08  alpha:  4.904e-01  linmin: -3.637e-06  t[s]:  19263.15
ElecMinimize: Converged (|Delta F|<1.000000e-07 for 2 iters).
Setting wave functions to eigenvectors of Hamiltonian
Converging empty states (this may take a while): |deigs|: 6.129e-05
Single-point solvation energy estimate, DeltaF = -0.002132648585757

Computing DFT-D3 correction:
# coordination-number Ag 6.867 8.404 6.872 9.200 9.210 9.213 5.360 9.202 9.212 9.212 9.213 9.213 9.212 9.212 9.205 9.213 9.213 9.211 9.201 6.897 9.195 6.871 9.195 9.205 9.201 9.211 9.212 9.213 6.897 9.212 9.213 9.213 9.213 9.212 9.210 9.202 8.404 9.213 9.212 9.200 6.872 5.360 6.867 6.871
# diagonal-C6 Ag 268.61 268.61 268.61 268.61 268.61 268.61 268.61 268.61 268.61 268.61 268.61 268.61 268.61 268.61 268.61 268.61 268.61 268.61 268.61 268.61 268.61 268.61 268.61 268.61 268.61 268.61 268.61 268.61 268.61 268.61 268.61 268.61 268.61 268.61 268.61 268.61 268.61 268.61 268.61 268.61 268.61 268.61 268.61 268.61
EvdW_6 =   -0.306790
EvdW_8 =   -0.403444

# Ionic positions in cartesian coordinates:
ion Ag   0.000000000000000  16.179012000000000  70.684631999999993 1
ion Ag   0.000000000000000  23.112863000000001  67.415947000000003 1
ion Ag   0.000000000000000   6.933851000000001  69.050252999999998 1
ion Ag   0.000000000000000  13.867728000000000  65.781640999999979 1
ion Ag   0.000000000000000  20.801579000000000  62.512955999999996 1
ion Ag   0.000000000000000  18.490295000000000  57.609965000000003 1
ion Ag   0.000000000000000   0.000000000000000  36.363765999999998 1
ion Ag   0.000000000000000   4.622567000000000  64.147261999999998 1
ion Ag   0.000000000000000  11.556419000000000  60.878650000000000 1
ion Ag   0.000000000000000   2.311284000000000  59.244343000000001 1
ion Ag   5.420446999999999   9.245134999999999  55.975658999999993 1
ion Ag   0.000000000000000  16.179012000000000  52.707045999999998 1
ion Ag   5.420446999999999  23.112863000000001  49.438360999999993 1
ion Ag   5.420446999999999  13.867728000000000  47.804054999999991 1
ion Ag   5.420446999999999  20.801579000000000  44.535370000000000 1
ion Ag   5.420446999999999   0.000000000000000  54.341351999999993 1
ion Ag   0.000000000000000   6.933851000000001  51.072668000000000 1
ion Ag   5.420446999999999   4.622567000000000  46.169676999999993 1
ion Ag   5.420446999999999  11.556419000000000  42.901063999999991 1
ion Ag   5.420446999999999  18.490295000000000  39.632378999999993 1
ion Ag   0.000000000000000   2.311284000000000  41.266756999999991 1
ion Ag   5.420446999999999   9.245134999999999  37.998072999999998 1
ion Ag   2.710223000000000  18.490295000000000  66.598758000000004 1
ion Ag   2.710223000000000   0.000000000000000  63.330144999999995 1
ion Ag   2.710223000000000   9.245134999999999  64.964451999999980 1
ion Ag   2.710223000000000  16.179012000000000  61.695838999999999 1
ion Ag   2.710223000000000  23.112863000000001  58.427154000000002 1
ion Ag   2.710223000000000  20.801579000000000  53.524162999999994 1
ion Ag   2.710223000000000   2.311284000000000  68.233136000000002 1
ion Ag   2.710223000000000   6.933851000000001  60.061459999999990 1
ion Ag   2.710223000000000  13.867728000000000  56.792847999999992 1
ion Ag   2.710223000000000   4.622567000000000  55.158468999999990 1
ion Ag   2.710223000000000  11.556419000000000  51.889856999999999 1
ion Ag   2.710223000000000  18.490295000000000  48.621171999999994 1
ion Ag   2.710223000000000   0.000000000000000  45.352558999999999 1
ion Ag   2.710223000000000  16.179012000000000  43.718252999999997 1
ion Ag   2.710223000000000  23.112863000000001  40.449567999999992 1
ion Ag   2.710223000000000   2.311284000000000  50.255549999999992 1
ion Ag   2.710223000000000   9.245134999999999  46.986865999999992 1
ion Ag   2.710223000000000   6.933851000000001  42.083874999999992 1
ion Ag   2.710223000000000  13.867728000000000  38.815261999999997 1
ion Ag   2.710223000000000  20.801579000000000  71.501748999999990 1
ion Ag   2.710223000000000   4.622567000000000  37.180883999999999 1
ion Ag   2.710223000000000  11.556419000000000  69.867442999999994 1

# Forces in Cartesian coordinates:
force Ag   0.000007089137584  -0.001239304798764   0.003500454381154 1
force Ag  -0.000002421912182   0.003277947102434   0.004255442146878 1
force Ag  -0.000004262009719  -0.000607041820332   0.003074568949095 1
force Ag  -0.000000298209007   0.000194874904623  -0.001342009284059 1
force Ag  -0.000009985623811  -0.000198813271237  -0.000351523387117 1
force Ag  -0.000010786705250   0.000062096180881   0.000177643257335 1
force Ag   0.000005952615309  -0.001104116990075   0.002040578242618 1
force Ag  -0.000003055451054  -0.000280270141360  -0.001455865032838 1
force Ag   0.000004213991897  -0.000341610137533   0.000473667859917 1
force Ag   0.000008712480837   0.000029882966905   0.000199173719656 1
force Ag  -0.000004715393607  -0.000290372482449   0.000297817533786 1
force Ag   0.000006900535024   0.000394459724400   0.000132383488522 1
force Ag  -0.000000646188655   0.000157371273578   0.000165185126618 1
force Ag   0.000001563775103   0.000190335646951  -0.000384250031004 1
force Ag  -0.000007530390161   0.000558320898781   0.000933904551200 1
force Ag   0.000007995828846   0.000088548098029   0.000301162368146 1
force Ag  -0.000000304937842   0.000115248848827   0.000213513329463 1
force Ag  -0.000005273038190  -0.000152270367593  -0.000454627152134 1
force Ag   0.000005743646267  -0.000166983587551   0.001524861081435 1
force Ag  -0.000007892655482   0.001287447446396  -0.004387359317872 1
force Ag   0.000005761915485  -0.000431710977485   0.001519748072366 1
force Ag   0.000005584979015   0.000443211086060  -0.003041288892275 1
force Ag  -0.000006960429810   0.000509396449888  -0.001597021749497 1
force Ag   0.000007864460816  -0.000631828086716  -0.000970338548686 1
force Ag  -0.000006842992886   0.000065210559766  -0.001597800474994 1
force Ag   0.000005574437143   0.000275153687235   0.000446572717573 1
force Ag   0.000000088325323  -0.000298582675136  -0.000090424878740 1
force Ag  -0.000007886843970  -0.000143738851640  -0.000182926566312 1
force Ag   0.000010302132118  -0.001190004770909   0.004292387728443 1
force Ag  -0.000003833303257  -0.000166521647455   0.000414370655985 1
force Ag   0.000000075339352  -0.000087064057047  -0.000121199129177 1
force Ag  -0.000007366023281  -0.000272974814309  -0.000012163812144 1
force Ag   0.000003430511802   0.000183065378103  -0.000192981363980 1
force Ag  -0.000008251550376   0.000056871740255  -0.000156839589508 1
force Ag   0.000008065310617   0.000139671862927   0.000320394829428 1
force Ag   0.000003300614466   0.000394299325450   0.001397830325172 1
force Ag   0.000002233811329  -0.003414452663646  -0.004343260520978 1
force Ag   0.000009465181812   0.000022910105524  -0.000089968732511 1
force Ag  -0.000003567435966   0.000230430755780  -0.000457153038053 1
force Ag   0.000000061824113  -0.000178677981971   0.001266355220732 1
force Ag  -0.000000256695895   0.000629056958930  -0.003155727675514 1
force Ag  -0.000009675454788   0.000970714322874  -0.002101830103299 1
force Ag  -0.000007172204534   0.001434664023862  -0.003569901234942 1
force Ag  -0.000003195991197  -0.000554573445438   0.002973570188456 1

# Energy components:
   A_diel =       -0.0027965458986583
   Eewald =    43147.6487808023521211
       EH =    49119.9064570675182040
     Eloc =   -99782.7415539813810028
      Enl =      173.4733194100607534
     EvdW =       -0.7102335260881020
      Exc =     -637.8364796630019100
 Exc_core =        9.1595137266386200
       KE =     1476.0666758759512049
-------------------------------------
     Etot =    -6495.0363168338590185
       TS =        0.0015943105414637
-------------------------------------
        F =    -6495.0379111444008231


Dumping 'jdft.fillings' ... done
Dumping 'jdft.wfns' ... done
Dumping 'jdft.fluidState' ... done
Dumping 'jdft.ionpos' ... done
Dumping 'jdft.lattice' ... done
Dumping 'jdft.eigenvals' ... done
Dumping 'jdft.eigStats' ... 
	eMin: -3.534278 at state 0 ( [ +0.000000 +0.000000 +0.000000 ] spin 1 )
	HOMO: -0.148590 at state 33 ( [ +0.454545 +0.500000 +0.000000 ] spin -1 )
	mu  : -0.148467
	LUMO: -0.148398 at state 25 ( [ +0.090909 +0.500000 +0.000000 ] spin -1 )
	eMax: +0.198567 at state 2 ( [ +0.090909 +0.000000 +0.000000 ] spin 1 )
	HOMO-LUMO gap: +0.000192
	Optical gap  : +0.000457 at state 43 ( [ -0.090909 +0.500000 +0.000000 ] spin -1 )
Dumping 'jdft.Ecomponents' ... done
IonicMinimize: Iter:   0  F: -6495.037911144400823  |grad|_K:  1.236e-03  t[s]:  20390.06

#--- Lowdin population analysis ---
# oxidation-state Ag +0.001 -0.061 +0.014 -0.005 +0.003 +0.002 +0.110 -0.005 +0.002 +0.002 +0.003 +0.003 +0.002 +0.002 -0.001 +0.004 +0.005 +0.003 -0.005 +0.031 -0.012 +0.012 -0.012 -0.001 -0.005 +0.004 +0.002 +0.004 +0.031 +0.002 +0.005 +0.003 +0.003 +0.002 +0.003 -0.005 -0.062 +0.002 +0.002 -0.005 +0.014 +0.110 +0.002 +0.012
# magnetic-moments Ag +0.000 +0.000 +0.000 +0.000 +0.000 +0.000 -0.000 +0.000 +0.000 +0.000 +0.000 +0.000 +0.000 +0.000 +0.000 +0.000 +0.000 +0.000 +0.000 +0.000 +0.000 -0.000 +0.000 +0.000 +0.000 +0.000 +0.000 +0.000 +0.000 +0.000 +0.000 +0.000 +0.000 +0.000 +0.000 +0.000 +0.000 +0.000 +0.000 +0.000 +0.000 +0.000 -0.000 +0.000


Computing DFT-D3 correction:
# coordination-number Ag 6.859 8.403 6.865 9.196 9.210 9.213 5.363 9.196 9.213 9.214 9.212 9.213 9.213 9.214 9.201 9.213 9.212 9.213 9.196 6.892 9.188 6.865 9.189 9.201 9.196 9.213 9.214 9.213 6.892 9.215 9.211 9.213 9.212 9.214 9.209 9.195 8.403 9.212 9.213 9.196 6.864 5.364 6.859 6.865
# diagonal-C6 Ag 268.61 268.61 268.61 268.61 268.61 268.61 268.61 268.61 268.61 268.61 268.61 268.61 268.61 268.61 268.61 268.61 268.61 268.61 268.61 268.61 268.61 268.61 268.61 268.61 268.61 268.61 268.61 268.61 268.61 268.61 268.61 268.61 268.61 268.61 268.61 268.61 268.61 268.61 268.61 268.61 268.61 268.61 268.61 268.61
EvdW_6 =   -0.306771
EvdW_8 =   -0.403403

-------- Electronic minimization -----------
	Linear fluid (dielectric constant: 78.4, screening length: 8.12261 Bohr) occupying 0.388605 of unit cell:	Completed after 15 iterations at t[s]:  20502.95
	FillingsUpdate:  mu: -0.148878684  nElectrons: 836.000000  magneticMoment: [ Abs: 0.00000  Tot: +0.00000 ]
ElecMinimize: Iter:   0  F: -6495.038047747448218  |grad|_K:  1.538e-07  alpha:  1.000e+00
	Linear fluid (dielectric constant: 78.4, screening length: 8.12261 Bohr) occupying 0.388641 of unit cell:	Completed after 17 iterations at t[s]:  20721.30
	Linear fluid (dielectric constant: 78.4, screening length: 8.12261 Bohr) occupying 0.388618 of unit cell:	Completed after 16 iterations at t[s]:  20791.61
	FillingsUpdate:  mu: -0.148450368  nElectrons: 836.000000  magneticMoment: [ Abs: 0.00000  Tot: +0.00000 ]
	SubspaceRotationAdjust: set factor to 0.11
ElecMinimize: Iter:   1  F: -6495.038055686623011  |grad|_K:  1.792e-07  alpha:  3.573e-01  linmin:  2.122e-05  t[s]:  20893.58
	Linear fluid (dielectric constant: 78.4, screening length: 8.12261 Bohr) occupying 0.388636 of unit cell:	Completed after 11 iterations at t[s]:  20992.85
	Linear fluid (dielectric constant: 78.4, screening length: 8.12261 Bohr) occupying 0.388646 of unit cell:	Completed after 10 iterations at t[s]:  21061.91
	FillingsUpdate:  mu: -0.148787498  nElectrons: 836.000000  magneticMoment: [ Abs: 0.00000  Tot: +0.00000 ]
	SubspaceRotationAdjust: set factor to 0.118
ElecMinimize: Iter:   2  F: -6495.038072973796261  |grad|_K:  1.654e-07  alpha:  5.718e-01  linmin: -2.252e-05  t[s]:  21163.11
	Linear fluid (dielectric constant: 78.4, screening length: 8.12261 Bohr) occupying 0.388678 of unit cell:	Completed after 9 iterations at t[s]:  21261.85
	Linear fluid (dielectric constant: 78.4, screening length: 8.12261 Bohr) occupying 0.388687 of unit cell:	Completed after 3 iterations at t[s]:  21329.19
	FillingsUpdate:  mu: -0.148669732  nElectrons: 836.000000  magneticMoment: [ Abs: 0.00000  Tot: +0.00000 ]
	SubspaceRotationAdjust: set factor to 0.133
ElecMinimize: Iter:   3  F: -6495.038091847072792  |grad|_K:  1.579e-07  alpha:  7.321e-01  linmin:  1.802e-06  t[s]:  21431.62
	Linear fluid (dielectric constant: 78.4, screening length: 8.12261 Bohr) occupying 0.388730 of unit cell:	Completed after 13 iterations at t[s]:  21531.75
	Linear fluid (dielectric constant: 78.4, screening length: 8.12261 Bohr) occupying 0.388709 of unit cell:	Completed after 10 iterations at t[s]:  21601.22
	FillingsUpdate:  mu: -0.148416596  nElectrons: 836.000000  magneticMoment: [ Abs: 0.00000  Tot: +0.00000 ]
	SubspaceRotationAdjust: set factor to 0.123
ElecMinimize: Iter:   4  F: -6495.038100698719973  |grad|_K:  1.050e-07  alpha:  3.774e-01  linmin:  3.554e-06  t[s]:  21703.52
	Linear fluid (dielectric constant: 78.4, screening length: 8.12261 Bohr) occupying 0.388717 of unit cell:	Completed after 10 iterations at t[s]:  21803.07
	Linear fluid (dielectric constant: 78.4, screening length: 8.12261 Bohr) occupying 0.388718 of unit cell:	Completed after 0 iterations at t[s]:  21869.90
	FillingsUpdate:  mu: -0.148581245  nElectrons: 836.000000  magneticMoment: [ Abs: 0.00000  Tot: +0.00000 ]
	SubspaceRotationAdjust: set factor to 0.115
ElecMinimize: Iter:   5  F: -6495.038104816391751  |grad|_K:  5.914e-08  alpha:  3.968e-01  linmin: -1.923e-04  t[s]:  21972.48
	Linear fluid (dielectric constant: 78.4, screening length: 8.12261 Bohr) occupying 0.388720 of unit cell:	Completed after 7 iterations at t[s]:  22070.86
	Linear fluid (dielectric constant: 78.4, screening length: 8.12261 Bohr) occupying 0.388720 of unit cell:	Completed after 0 iterations at t[s]:  22137.64
	FillingsUpdate:  mu: -0.148518477  nElectrons: 836.000000  magneticMoment: [ Abs: 0.00000  Tot: +0.00000 ]
	SubspaceRotationAdjust: set factor to 0.124
ElecMinimize: Iter:   6  F: -6495.038106187862468  |grad|_K:  3.936e-08  alpha:  4.123e-01  linmin:  1.563e-05  t[s]:  22240.04
	Linear fluid (dielectric constant: 78.4, screening length: 8.12261 Bohr) occupying 0.388721 of unit cell:	Completed after 3 iterations at t[s]:  22337.70
	Linear fluid (dielectric constant: 78.4, screening length: 8.12261 Bohr) occupying 0.388721 of unit cell:	Completed after 0 iterations at t[s]:  22404.79
	FillingsUpdate:  mu: -0.148513566  nElectrons: 836.000000  magneticMoment: [ Abs: 0.00000  Tot: +0.00000 ]
	SubspaceRotationAdjust: set factor to 0.137
ElecMinimize: Iter:   7  F: -6495.038106737079943  |grad|_K:  2.524e-08  alpha:  3.767e-01  linmin:  2.130e-04  t[s]:  22507.10
	Linear fluid (dielectric constant: 78.4, screening length: 8.12261 Bohr) occupying 0.388720 of unit cell:	Completed after 2 iterations at t[s]:  22603.94
	Linear fluid (dielectric constant: 78.4, screening length: 8.12261 Bohr) occupying 0.388720 of unit cell:	Completed after 0 iterations at t[s]:  22670.68
	FillingsUpdate:  mu: -0.148521246  nElectrons: 836.000000  magneticMoment: [ Abs: 0.00000  Tot: +0.00000 ]
	SubspaceRotationAdjust: set factor to 0.159
ElecMinimize: Iter:   8  F: -6495.038106970065201  |grad|_K:  1.796e-08  alpha:  3.928e-01  linmin: -3.367e-04  t[s]:  22772.88
	Linear fluid (dielectric constant: 78.4, screening length: 8.12261 Bohr) occupying 0.388719 of unit cell:	Completed after 2 iterations at t[s]:  22869.95
	Linear fluid (dielectric constant: 78.4, screening length: 8.12261 Bohr) occupying 0.388719 of unit cell:	Completed after 0 iterations at t[s]:  22936.79
	FillingsUpdate:  mu: -0.148534266  nElectrons: 836.000000  magneticMoment: [ Abs: 0.00000  Tot: +0.00000 ]
	SubspaceRotationAdjust: set factor to 0.188
ElecMinimize: Iter:   9  F: -6495.038107089590085  |grad|_K:  1.293e-08  alpha:  3.821e-01  linmin: -6.330e-05  t[s]:  23038.93
	Linear fluid (dielectric constant: 78.4, screening length: 8.12261 Bohr) occupying 0.388718 of unit cell:	Completed after 2 iterations at t[s]:  23136.06
	Linear fluid (dielectric constant: 78.4, screening length: 8.12261 Bohr) occupying 0.388718 of unit cell:	Completed after 0 iterations at t[s]:  23202.73
	FillingsUpdate:  mu: -0.148540287  nElectrons: 836.000000  magneticMoment: [ Abs: 0.00000  Tot: +0.00000 ]
	SubspaceRotationAdjust: set factor to 0.224
ElecMinimize: Iter:  10  F: -6495.038107167782073  |grad|_K:  9.943e-09  alpha:  4.887e-01  linmin: -3.287e-04  t[s]:  23305.11
	Linear fluid (dielectric constant: 78.4, screening length: 8.12261 Bohr) occupying 0.388717 of unit cell:	Completed after 2 iterations at t[s]:  23402.08
	Linear fluid (dielectric constant: 78.4, screening length: 8.12261 Bohr) occupying 0.388717 of unit cell:	Completed after 0 iterations at t[s]:  23468.61
	FillingsUpdate:  mu: -0.148537623  nElectrons: 836.000000  magneticMoment: [ Abs: 0.00000  Tot: +0.00000 ]
	SubspaceRotationAdjust: set factor to 0.276
ElecMinimize: Iter:  11  F: -6495.038107217274955  |grad|_K:  9.417e-09  alpha:  4.992e-01  linmin: -1.010e-04  t[s]:  23570.79
ElecMinimize: Converged (|Delta F|<1.000000e-07 for 2 iters).
Setting wave functions to eigenvectors of Hamiltonian
Converging empty states (this may take a while): |deigs|: 4.820e-09

Computing DFT-D3 correction:
# coordination-number Ag 6.859 8.403 6.865 9.196 9.210 9.213 5.363 9.196 9.213 9.214 9.212 9.213 9.213 9.214 9.201 9.213 9.212 9.213 9.196 6.892 9.188 6.865 9.189 9.201 9.196 9.213 9.214 9.213 6.892 9.215 9.211 9.213 9.212 9.214 9.209 9.195 8.403 9.212 9.213 9.196 6.864 5.364 6.859 6.865
# diagonal-C6 Ag 268.61 268.61 268.61 268.61 268.61 268.61 268.61 268.61 268.61 268.61 268.61 268.61 268.61 268.61 268.61 268.61 268.61 268.61 268.61 268.61 268.61 268.61 268.61 268.61 268.61 268.61 268.61 268.61 268.61 268.61 268.61 268.61 268.61 268.61 268.61 268.61 268.61 268.61 268.61 268.61 268.61 268.61 268.61 268.61
EvdW_6 =   -0.306771
EvdW_8 =   -0.403403
IonicMinimize: 	Wolfe criterion not satisfied: alpha: 1  (E-E0)/|gdotd0|: -0.972983  gdotd/gdotd0: 0.949106 (taking cubic step)

Computing DFT-D3 correction:
# coordination-number Ag 6.841 8.400 6.849 9.186 9.209 9.214 5.370 9.184 9.217 9.217 9.210 9.213 9.215 9.218 9.194 9.213 9.209 9.217 9.186 6.884 9.173 6.853 9.175 9.193 9.188 9.218 9.216 9.214 6.883 9.220 9.209 9.213 9.209 9.217 9.207 9.183 8.400 9.212 9.217 9.187 6.848 5.371 6.841 6.852
# diagonal-C6 Ag 268.61 268.61 268.61 268.61 268.61 268.61 268.61 268.61 268.61 268.61 268.61 268.61 268.61 268.61 268.61 268.61 268.61 268.61 268.61 268.61 268.61 268.61 268.61 268.61 268.61 268.61 268.61 268.61 268.61 268.61 268.61 268.61 268.61 268.61 268.61 268.61 268.61 268.61 268.61 268.61 268.61 268.61 268.61 268.61
EvdW_6 =   -0.306735
EvdW_8 =   -0.403324

-------- Electronic minimization -----------
	Linear fluid (dielectric constant: 78.4, screening length: 8.12261 Bohr) occupying 0.388412 of unit cell:	Completed after 17 iterations at t[s]:  23966.23
	FillingsUpdate:  mu: -0.148703612  nElectrons: 836.000000  magneticMoment: [ Abs: 0.00000  Tot: +0.00000 ]
ElecMinimize: Iter:   0  F: -6495.038228619866459  |grad|_K:  3.338e-07  alpha:  1.000e+00
	Linear fluid (dielectric constant: 78.4, screening length: 8.12261 Bohr) occupying 0.388463 of unit cell:	Completed after 20 iterations at t[s]:  24185.17
	Linear fluid (dielectric constant: 78.4, screening length: 8.12261 Bohr) occupying 0.388429 of unit cell:	Completed after 18 iterations at t[s]:  24255.92
	FillingsUpdate:  mu: -0.149541060  nElectrons: 836.000000  magneticMoment: [ Abs: 0.00000  Tot: +0.00000 ]
	SubspaceRotationAdjust: set factor to 0.155
ElecMinimize: Iter:   1  F: -6495.038268468129900  |grad|_K:  5.115e-07  alpha:  3.823e-01  linmin:  5.789e-05  t[s]:  24357.95
	Linear fluid (dielectric constant: 78.4, screening length: 8.12261 Bohr) occupying 0.388511 of unit cell:	Completed after 15 iterations at t[s]:  24458.10
	Linear fluid (dielectric constant: 78.4, screening length: 8.12261 Bohr) occupying 0.388503 of unit cell:	Completed after 9 iterations at t[s]:  24527.24
	FillingsUpdate:  mu: -0.149149530  nElectrons: 836.000000  magneticMoment: [ Abs: 0.00000  Tot: +0.00000 ]
	SubspaceRotationAdjust: set factor to 0.154
ElecMinimize: Iter:   2  F: -6495.038352697259143  |grad|_K:  3.636e-07  alpha:  3.432e-01  linmin: -8.637e-08  t[s]:  24629.51
	Linear fluid (dielectric constant: 78.4, screening length: 8.12261 Bohr) occupying 0.388553 of unit cell:	Completed after 11 iterations at t[s]:  24730.17
	Linear fluid (dielectric constant: 78.4, screening length: 8.12261 Bohr) occupying 0.388585 of unit cell:	Completed after 10 iterations at t[s]:  24799.27
	FillingsUpdate:  mu: -0.148496654  nElectrons: 836.000000  magneticMoment: [ Abs: 0.00000  Tot: +0.00000 ]
	SubspaceRotationAdjust: set factor to 0.18
ElecMinimize: Iter:   3  F: -6495.038423259363299  |grad|_K:  2.988e-07  alpha:  5.673e-01  linmin: -5.058e-06  t[s]:  24901.47
	Linear fluid (dielectric constant: 78.4, screening length: 8.12261 Bohr) occupying 0.388639 of unit cell:	Completed after 13 iterations at t[s]:  25000.57
	Linear fluid (dielectric constant: 78.4, screening length: 8.12261 Bohr) occupying 0.388612 of unit cell:	Completed after 11 iterations at t[s]:  25069.97
	FillingsUpdate:  mu: -0.148596347  nElectrons: 836.000000  magneticMoment: [ Abs: 0.00000  Tot: +0.00000 ]
	SubspaceRotationAdjust: set factor to 0.135
ElecMinimize: Iter:   4  F: -6495.038447723482022  |grad|_K:  1.931e-07  alpha:  2.918e-01  linmin: -1.688e-08  t[s]:  25172.73
	Linear fluid (dielectric constant: 78.4, screening length: 8.12261 Bohr) occupying 0.388625 of unit cell:	Completed after 11 iterations at t[s]:  25271.63
	Linear fluid (dielectric constant: 78.4, screening length: 8.12261 Bohr) occupying 0.388624 of unit cell:	Completed after 0 iterations at t[s]:  25338.65
	FillingsUpdate:  mu: -0.148594479  nElectrons: 836.000000  magneticMoment: [ Abs: 0.00000  Tot: +0.00000 ]
	SubspaceRotationAdjust: set factor to 0.0987
ElecMinimize: Iter:   5  F: -6495.038457869223748  |grad|_K:  1.122e-07  alpha:  2.892e-01  linmin:  7.965e-05  t[s]:  25440.61
	Linear fluid (dielectric constant: 78.4, screening length: 8.12261 Bohr) occupying 0.388628 of unit cell:	Completed after 7 iterations at t[s]:  25538.97
	Linear fluid (dielectric constant: 78.4, screening length: 8.12261 Bohr) occupying 0.388629 of unit cell:	Completed after 2 iterations at t[s]:  25606.44
	FillingsUpdate:  mu: -0.148625698  nElectrons: 836.000000  magneticMoment: [ Abs: 0.00000  Tot: +0.00000 ]
	SubspaceRotationAdjust: set factor to 0.122
ElecMinimize: Iter:   6  F: -6495.038461694914076  |grad|_K:  6.615e-08  alpha:  3.246e-01  linmin: -8.243e-05  t[s]:  25708.71
[...]


Computing DFT-D3 correction:
# coordination-number Ag 6.695 8.307 6.746 8.936 9.045 9.059 5.462 8.885 9.008 9.048 8.993 9.051 9.087 9.008 9.005 9.085 9.026 9.055 8.942 6.696 8.929 6.757 8.924 8.989 8.931 9.043 9.077 9.091 6.688 8.997 9.016 9.047 8.998 9.064 9.053 8.897 8.315 9.062 9.026 8.952 6.746 5.464 6.695 6.749
# diagonal-C6 Ag 268.61 268.61 268.61 268.61 268.61 268.61 268.61 268.61 268.61 268.61 268.61 268.61 268.61 268.61 268.61 268.61 268.61 268.61 268.61 268.61 268.61 268.61 268.61 268.61 268.61 268.61 268.61 268.61 268.61 268.61 268.61 268.61 268.61 268.61 268.61 268.61 268.61 268.61 268.61 268.61 268.61 268.61 268.61 268.61
EvdW_6 =   -0.303153
EvdW_8 =   -0.398152

-------- Electronic minimization -----------
	Linear fluid (dielectric constant: 78.4, screening length: 8.12261 Bohr) occupying 0.383840 of unit cell:	Completed after 15 iterations at t[s]:  80016.31
	FillingsUpdate:  mu: -0.151326544  nElectrons: 836.000000  magneticMoment: [ Abs: 0.00000  Tot: -0.00000 ]
ElecMinimize: Iter:   0  F: -6495.041871103881931  |grad|_K:  4.576e-07  alpha:  1.000e+00
	Linear fluid (dielectric constant: 78.4, screening length: 8.12261 Bohr) occupying 0.383912 of unit cell:	Completed after 23 iterations at t[s]:  80235.75
	Linear fluid (dielectric constant: 78.4, screening length: 8.12261 Bohr) occupying 0.383859 of unit cell:	Completed after 23 iterations at t[s]:  80308.08
	FillingsUpdate:  mu: -0.147962933  nElectrons: 836.000000  magneticMoment: [ Abs: 0.00000  Tot: -0.00000 ]
	SubspaceRotationAdjust: set factor to 0.146
ElecMinimize: Iter:   1  F: -6495.041927869498977  |grad|_K:  4.658e-07  alpha:  2.867e-01  linmin: -1.232e-04  t[s]:  80409.53
	Linear fluid (dielectric constant: 78.4, screening length: 8.12261 Bohr) occupying 0.383826 of unit cell:	Completed after 16 iterations at t[s]:  80509.62
	Linear fluid (dielectric constant: 78.4, screening length: 8.12261 Bohr) occupying 0.383816 of unit cell:	Completed after 13 iterations at t[s]:  80579.74
	FillingsUpdate:  mu: -0.150234615  nElectrons: 836.000000  magneticMoment: [ Abs: 0.00000  Tot: -0.00000 ]
	SubspaceRotationAdjust: set factor to 0.164
ElecMinimize: Iter:   2  F: -6495.042003403122180  |grad|_K:  3.325e-07  alpha:  3.685e-01  linmin: -2.588e-06  t[s]:  80682.37
	Linear fluid (dielectric constant: 78.4, screening length: 8.12261 Bohr) occupying 0.383795 of unit cell:	Completed after 10 iterations at t[s]:  80781.65
	Linear fluid (dielectric constant: 78.4, screening length: 8.12261 Bohr) occupying 0.383771 of unit cell:	Completed after 10 iterations at t[s]:  80850.77
	FillingsUpdate:  mu: -0.150526204  nElectrons: 836.000000  magneticMoment: [ Abs: 0.00000  Tot: -0.00000 ]
	SubspaceRotationAdjust: set factor to 0.191
ElecMinimize: Iter:   3  F: -6495.042083621991878  |grad|_K:  3.687e-07  alpha:  7.709e-01  linmin: -4.797e-06  t[s]:  80953.16
	Linear fluid (dielectric constant: 78.4, screening length: 8.12261 Bohr) occupying 0.383731 of unit cell:	Completed after 20 iterations at t[s]:  81054.16
	Linear fluid (dielectric constant: 78.4, screening length: 8.12261 Bohr) occupying 0.383751 of unit cell:	Completed after 16 iterations at t[s]:  81125.08
	FillingsUpdate:  mu: -0.148965727  nElectrons: 836.000000  magneticMoment: [ Abs: 0.00000  Tot: -0.00000 ]
	SubspaceRotationAdjust: set factor to 0.174
ElecMinimize: Iter:   4  F: -6495.042133704597290  |grad|_K:  2.899e-07  alpha:  3.911e-01  linmin: -2.946e-06  t[s]:  81227.46
	Linear fluid (dielectric constant: 78.4, screening length: 8.12261 Bohr) occupying 0.383713 of unit cell:	Completed after 17 iterations at t[s]:  81327.85
	Linear fluid (dielectric constant: 78.4, screening length: 8.12261 Bohr) occupying 0.383719 of unit cell:	Completed after 11 iterations at t[s]:  81397.95
	FillingsUpdate:  mu: -0.150596908  nElectrons: 836.000000  magneticMoment: [ Abs: 0.00000  Tot: -0.00000 ]
	SubspaceRotationAdjust: set factor to 0.122
ElecMinimize: Iter:   5  F: -6495.042159731551692  |grad|_K:  2.012e-07  alpha:  3.293e-01  linmin: -2.733e-06  t[s]:  81500.46
	Linear fluid (dielectric constant: 78.4, screening length: 8.12261 Bohr) occupying 0.383716 of unit cell:	Completed after 14 iterations at t[s]:  81600.23
	Linear fluid (dielectric constant: 78.4, screening length: 8.12261 Bohr) occupying 0.383717 of unit cell:	Completed after 2 iterations at t[s]:  81667.71
	FillingsUpdate:  mu: -0.149805563  nElectrons: 836.000000  magneticMoment: [ Abs: 0.00000  Tot: -0.00000 ]
	SubspaceRotationAdjust: set factor to 0.122
ElecMinimize: Iter:   6  F: -6495.042171326407697  |grad|_K:  1.189e-07  alpha:  3.046e-01  linmin:  4.101e-05  t[s]:  81770.77
	Linear fluid (dielectric constant: 78.4, screening length: 8.12261 Bohr) occupying 0.383716 of unit cell:	Completed after 7 iterations at t[s]:  81869.22
	Linear fluid (dielectric constant: 78.4, screening length: 8.12261 Bohr) occupying 0.383715 of unit cell:	Completed after 2 iterations at t[s]:  81936.95
	FillingsUpdate:  mu: -0.149856516  nElectrons: 836.000000  magneticMoment: [ Abs: 0.00000  Tot: -0.00000 ]
	SubspaceRotationAdjust: set factor to 0.134
ElecMinimize: Iter:   7  F: -6495.042176470548839  |grad|_K:  7.261e-08  alpha:  3.885e-01  linmin:  5.580e-05  t[s]:  82040.85
	Linear fluid (dielectric constant: 78.4, screening length: 8.12261 Bohr) occupying 0.383714 of unit cell:	Completed after 10 iterations at t[s]:  82139.76
	Linear fluid (dielectric constant: 78.4, screening length: 8.12261 Bohr) occupying 0.383714 of unit cell:	Completed after 0 iterations at t[s]:  82207.03
	FillingsUpdate:  mu: -0.150132961  nElectrons: 836.000000  magneticMoment: [ Abs: 0.00000  Tot: -0.00000 ]
	SubspaceRotationAdjust: set factor to 0.128
ElecMinimize: Iter:   8  F: -6495.042178270437034  |grad|_K:  4.631e-08  alpha:  3.638e-01  linmin:  3.136e-04  t[s]:  82308.94
	Linear fluid (dielectric constant: 78.4, screening length: 8.12261 Bohr) occupying 0.383717 of unit cell:	Completed after 6 iterations at t[s]:  82407.79
	Linear fluid (dielectric constant: 78.4, screening length: 8.12261 Bohr) occupying 0.383717 of unit cell:	Completed after 3 iterations at t[s]:  82475.39
	FillingsUpdate:  mu: -0.149933376  nElectrons: 836.000000  magneticMoment: [ Abs: 0.00000  Tot: -0.00000 ]
	SubspaceRotationAdjust: set factor to 0.126
ElecMinimize: Iter:   9  F: -6495.042179080181086  |grad|_K:  3.012e-08  alpha:  4.067e-01  linmin: -3.526e-04  t[s]:  82578.04
	Linear fluid (dielectric constant: 78.4, screening length: 8.12261 Bohr) occupying 0.383717 of unit cell:	Completed after 4 iterations at t[s]:  82676.48
	Linear fluid (dielectric constant: 78.4, screening length: 8.12261 Bohr) occupying 0.383717 of unit cell:	Completed after 0 iterations at t[s]:  82743.27
	FillingsUpdate:  mu: -0.149970816  nElectrons: 836.000000  magneticMoment: [ Abs: 0.00000  Tot: -0.00000 ]
	SubspaceRotationAdjust: set factor to 0.151
ElecMinimize: Iter:  10  F: -6495.042179426973235  |grad|_K:  2.366e-08  alpha:  3.992e-01  linmin: -7.995e-05  t[s]:  82845.81
	Linear fluid (dielectric constant: 78.4, screening length: 8.12261 Bohr) occupying 0.383717 of unit cell:	Completed after 5 iterations at t[s]:  82943.98
	Linear fluid (dielectric constant: 78.4, screening length: 8.12261 Bohr) occupying 0.383717 of unit cell:	Completed after 0 iterations at t[s]:  83011.06
	FillingsUpdate:  mu: -0.150038731  nElectrons: 836.000000  magneticMoment: [ Abs: 0.00000  Tot: -0.00000 ]
	SubspaceRotationAdjust: set factor to 0.179
ElecMinimize: Iter:  11  F: -6495.042179632688203  |grad|_K:  1.869e-08  alpha:  3.896e-01  linmin: -3.267e-04  t[s]:  83113.45
	Linear fluid (dielectric constant: 78.4, screening length: 8.12261 Bohr) occupying 0.383717 of unit cell:	Completed after 4 iterations at t[s]:  83211.20
	Linear fluid (dielectric constant: 78.4, screening length: 8.12261 Bohr) occupying 0.383717 of unit cell:	Completed after 0 iterations at t[s]:  83278.98
	FillingsUpdate:  mu: -0.149991996  nElectrons: 836.000000  magneticMoment: [ Abs: 0.00000  Tot: -0.00000 ]
	SubspaceRotationAdjust: set factor to 0.202
ElecMinimize: Iter:  12  F: -6495.042179790078990  |grad|_K:  1.586e-08  alpha:  4.654e-01  linmin: -3.437e-04  t[s]:  83381.57
	Linear fluid (dielectric constant: 78.4, screening length: 8.12261 Bohr) occupying 0.383716 of unit cell:	Completed after 2 iterations at t[s]:  83478.84
	Linear fluid (dielectric constant: 78.4, screening length: 8.12261 Bohr) occupying 0.383716 of unit cell:	Completed after 0 iterations at t[s]:  83546.18
	FillingsUpdate:  mu: -0.149969542  nElectrons: 836.000000  magneticMoment: [ Abs: 0.00000  Tot: -0.00000 ]
	SubspaceRotationAdjust: set factor to 0.248
ElecMinimize: Iter:  13  F: -6495.042179909464721  |grad|_K:  1.560e-08  alpha:  4.807e-01  linmin: -1.101e-04  t[s]:  83648.56
	Linear fluid (dielectric constant: 78.4, screening length: 8.12261 Bohr) occupying 0.383715 of unit cell:	Completed after 5 iterations at t[s]:  83746.60
	Linear fluid (dielectric constant: 78.4, screening length: 8.12261 Bohr) occupying 0.383715 of unit cell:	Completed after 0 iterations at t[s]:  83813.72
	FillingsUpdate:  mu: -0.150037554  nElectrons: 836.000000  magneticMoment: [ Abs: 0.00000  Tot: -0.00000 ]
	SubspaceRotationAdjust: set factor to 0.227
ElecMinimize: Iter:  14  F: -6495.042180002463283  |grad|_K:  1.663e-08  alpha:  3.864e-01  linmin:  5.779e-04  t[s]:  83915.34
	Linear fluid (dielectric constant: 78.4, screening length: 8.12261 Bohr) occupying 0.383715 of unit cell:	Completed after 6 iterations at t[s]:  84013.32
	Linear fluid (dielectric constant: 78.4, screening length: 8.12261 Bohr) occupying 0.383715 of unit cell:	Completed after 2 iterations at t[s]:  84080.79
	FillingsUpdate:  mu: -0.149953971  nElectrons: 836.000000  magneticMoment: [ Abs: 0.00000  Tot: +0.00000 ]
	SubspaceRotationAdjust: set factor to 0.164
ElecMinimize: Iter:  15  F: -6495.042180047766124  |grad|_K:  1.172e-08  alpha:  2.167e-01  linmin:  6.838e-05  t[s]:  84183.41
ElecMinimize: Converged (|Delta F|<1.000000e-07 for 2 iters).
Setting wave functions to eigenvectors of Hamiltonian
Converging empty states (this may take a while): |deigs|: 6.652e-08

Computing DFT-D3 correction:
# coordination-number Ag 6.695 8.307 6.746 8.936 9.045 9.059 5.462 8.885 9.008 9.048 8.993 9.051 9.087 9.008 9.005 9.085 9.026 9.055 8.942 6.696 8.929 6.757 8.924 8.989 8.931 9.043 9.077 9.091 6.688 8.997 9.016 9.047 8.998 9.064 9.053 8.897 8.315 9.062 9.026 8.952 6.746 5.464 6.695 6.749
# diagonal-C6 Ag 268.61 268.61 268.61 268.61 268.61 268.61 268.61 268.61 268.61 268.61 268.61 268.61 268.61 268.61 268.61 268.61 268.61 268.61 268.61 268.61 268.61 268.61 268.61 268.61 268.61 268.61 268.61 268.61 268.61 268.61 268.61 268.61 268.61 268.61 268.61 268.61 268.61 268.61 268.61 268.61 268.61 268.61 268.61 268.61
EvdW_6 =   -0.303153
EvdW_8 =   -0.398152

# Ionic positions in cartesian coordinates:
ion Ag  -0.000145523466062  16.168289259678684  70.875326321429725 1
ion Ag   0.000037559849791  23.249906589971225  67.609897736360665 1
ion Ag   0.000170526733070   6.949775092122806  69.325387052278330 1
ion Ag  -0.000592539683640  13.866458425971290  65.898513489808792 1
ion Ag  -0.000171694796470  20.817107681963979  62.587866245908977 1
ion Ag  -0.000588421416534  18.470471991835939  57.642877891441621 1
ion Ag   0.000214597292111  -0.018218421030315  36.333477657246846 1
ion Ag   0.000175927756384   4.575676227116880  64.332132223604546 1
ion Ag   0.000063302881778  11.526636788811246  60.963950509828400 1
ion Ag   0.000158338698481   2.291549649667661  59.316785985498605 1
ion Ag   5.420335246458735   9.218460996791345  56.008799435544887 1
ion Ag  -0.000102843526234  16.191849385057125  52.680768570582053 1
ion Ag   5.420488030732204  23.126408453059600  49.407483983179745 1
ion Ag   5.420188023592541  13.904246705378901  47.689164195808225 1
ion Ag   5.420329192751145  20.807382345029989  44.430260923158627 1
ion Ag   5.420691264691547   0.000377719945632  54.345541456595484 1
ion Ag   0.000303215670167   6.954544778510611  51.048800531439895 1
ion Ag   5.420708342549046   4.632632589028183  46.088875113616218 1
ion Ag   5.420363119203385  11.581570506992643  42.763078617302867 1
ion Ag   5.420834663585229  18.459665216035418  39.275159270009418 1
ion Ag   0.000331636439816   2.271648985606433  41.192047947830538 1
ion Ag   5.421358025694170   9.244183454333752  37.776568623751743 1
ion Ag   2.709845086538544  18.535488399723040  66.674570469157885 1
ion Ag   2.710442279066476  -0.005931241070798  63.436131906406736 1
ion Ag   2.710203938593227   9.218446417734656  65.104521523295261 1
ion Ag   2.709927578299295  16.171757255392745  61.775475422057468 1
ion Ag   2.710144350068341  23.094532847400007  58.452667167247199 1
ion Ag   2.709964089702676  20.796793620046888  53.512434504801099 1
ion Ag   2.710194404572789   2.344489482768219  68.600029175749384 1
ion Ag   2.710499869004749   6.892680046572534  60.175933675091613 1
ion Ag   2.709845355454886  13.845691536220238  56.811853453921749 1
ion Ag   2.710223105816796   4.607529158630642  55.178360722372361 1
ion Ag   2.710245373375725  11.577913758649020  51.854656845826987 1
ion Ag   2.710054868397153  18.507793660664785  48.544767784036196 1
ion Ag   2.710384823593259  -0.014401097690295  45.276951300154622 1
ion Ag   2.710112918318596  16.225039838746078  43.538111358233756 1
ion Ag   2.710352455139378  22.980640978551918  40.261397533747740 1
ion Ag   2.710670417241003   2.328727989451314  50.216729064555111 1
ion Ag   2.710087141752241   9.273804120186625  46.900365268697549 1
ion Ag   2.710911242074930   6.937457075750840  41.968029065240472 1
ion Ag   2.710257135366773  13.854727008163913  38.545217911336664 1
ion Ag   2.709881990442954  20.821070612046409  71.537237872706299 1
ion Ag   2.710018591094044   4.639597321078129  36.990763113181458 1
ion Ag   2.709511994395497  11.558458789104073  70.092369079955901 1

# Forces in Cartesian coordinates:
force Ag  -0.000005756779690   0.000026345632389   0.000031571634805 1
force Ag  -0.000001701484169   0.000199110765652  -0.000159701321100 1
force Ag  -0.000007619993344  -0.000047214920260  -0.000202952986944 1
force Ag   0.000002262752952   0.000072378126798   0.000051050460840 1
force Ag  -0.000001663084333   0.000076669052774  -0.000162826272405 1
force Ag   0.000000616886260   0.000058846534662   0.000053229348959 1
force Ag   0.000005041574386  -0.000129908749626  -0.000048143125785 1
force Ag  -0.000000185694344  -0.000165422799304  -0.000165402681332 1
force Ag  -0.000000030669174   0.000121258861025  -0.000013666405805 1
force Ag   0.000001320799676  -0.000047156937928   0.000038493034882 1
force Ag  -0.000000415842042  -0.000038262947221   0.000179779568997 1
force Ag   0.000000134004248   0.000034144356062  -0.000128925326668 1
force Ag   0.000000739150824  -0.000075834265682  -0.000078868201911 1
force Ag   0.000001480107165   0.000000896772160   0.000196300237686 1
force Ag   0.000000266118370  -0.000027839658206  -0.000050863472301 1
force Ag  -0.000001099167314  -0.000058777626143   0.000166288785417 1
force Ag  -0.000003818854950  -0.000030095432570  -0.000094166700620 1
force Ag   0.000000952459686  -0.000094494498616   0.000216502688781 1
force Ag   0.000003532406570  -0.000076799218099  -0.000118995788373 1
force Ag  -0.000004218676547  -0.000013859510406   0.000041584992649 1
force Ag   0.000001936008449   0.000023119727817  -0.000071429862023 1
force Ag  -0.000007167414448   0.000081543150254  -0.000084543104588 1
force Ag  -0.000001242889104   0.000027647835101   0.000042774963226 1
force Ag  -0.000000549662426   0.000023792607845  -0.000010578790627 1
force Ag  -0.000000687228253   0.000078292217271   0.000050019180400 1
force Ag  -0.000000107034146   0.000061375419057  -0.000245365831382 1
force Ag  -0.000001201719750   0.000104513637900   0.000153870207099 1
force Ag  -0.000000409134151   0.000057093574278  -0.000040610296585 1
force Ag   0.000001667142013   0.000011812588715  -0.000131031251220 1
force Ag  -0.000002343743933  -0.000006901556383  -0.000136288398064 1
force Ag   0.000001693333008   0.000014919975582   0.000178780076522 1
force Ag   0.000001710771577  -0.000064211202607   0.000218191345646 1
force Ag   0.000000696883840   0.000032787089728  -0.000086859824691 1
force Ag  -0.000000822188502   0.000033035157054   0.000006656453378 1
force Ag   0.000000977550271  -0.000036607715730   0.000122345135004 1
force Ag   0.000002160396800   0.000104618439630   0.000100247447215 1
force Ag  -0.000002138111173  -0.000118197903155   0.000072430031108 1
force Ag   0.000001439856502  -0.000051756692393   0.000018394513217 1
force Ag   0.000000374182130  -0.000115846736010   0.000027819458742 1
force Ag  -0.000003039377002  -0.000068932276072  -0.000080798248841 1
force Ag   0.000008613160397   0.000064651200719   0.000137911555320 1
force Ag  -0.000008540326870   0.000278282915265  -0.000024639821188 1
force Ag   0.000013279855131  -0.000066290317624  -0.000068247682579 1
force Ag   0.000004568785239  -0.000019625396676   0.000028587696404 1

# Energy components:
   A_diel =       -0.0028067822445558
   Eewald =    41969.2888535147867515
       EH =    47941.6290386581677012
     Eloc =   -97426.0096294827380916
      Enl =      173.5257366040903548
     EvdW =       -0.7013042743862108
      Exc =     -637.7099035050723614
 Exc_core =        9.1595143705673685
       KE =     1475.7796673652958361
-------------------------------------
     Etot =    -6495.0408335315387376
       TS =        0.0013465162274880
-------------------------------------
        F =    -6495.0421800477661236


Dumping 'jdft.fillings' ... done
Dumping 'jdft.wfns' ... done
Dumping 'jdft.fluidState' ... done
Dumping 'jdft.ionpos' ... done
Dumping 'jdft.lattice' ... done
Dumping 'jdft.eigenvals' ... done
Dumping 'jdft.eigStats' ... 
	eMin: -3.534577 at state 0 ( [ +0.000000 +0.000000 +0.000000 ] spin 1 )
	HOMO: -0.149971 at state 43 ( [ -0.090909 +0.500000 +0.000000 ] spin -1 )
	mu  : -0.149954
	LUMO: -0.149775 at state 3 ( [ +0.090909 +0.500000 +0.000000 ] spin 1 )
	eMax: +0.195791 at state 42 ( [ -0.090909 +0.000000 +0.000000 ] spin -1 )
	HOMO-LUMO gap: +0.000196
	Optical gap  : +0.000196 at state 43 ( [ -0.090909 +0.500000 +0.000000 ] spin -1 )
Dumping 'jdft.Ecomponents' ... done
IonicMinimize: Iter:   8  F: -6495.042180047766124  |grad|_K:  8.410e-05  alpha:  1.000e+00  linmin: -4.937e-01  t[s]:  84601.64
IonicMinimize: Converged (|grad|_K<1.000000e-04).

#--- Lowdin population analysis ---
# oxidation-state Ag +0.003 -0.066 +0.008 -0.002 +0.003 +0.002 +0.105 +0.000 +0.003 +0.002 +0.004 +0.002 +0.002 +0.003 -0.000 +0.002 +0.005 +0.003 -0.002 +0.032 -0.007 +0.007 -0.007 -0.000 -0.002 +0.003 +0.002 +0.002 +0.032 +0.003 +0.006 +0.002 +0.004 +0.002 +0.003 +0.000 -0.066 +0.002 +0.002 -0.002 +0.008 +0.105 +0.003 +0.007
# magnetic-moments Ag +0.000 +0.000 -0.000 +0.000 +0.000 +0.000 -0.000 +0.000 -0.000 +0.000 +0.000 +0.000 -0.000 +0.000 -0.000 -0.000 +0.000 -0.000 -0.000 -0.000 +0.000 +0.000 +0.000 -0.000 -0.000 +0.000 +0.000 -0.000 +0.000 +0.000 +0.000 +0.000 -0.000 +0.000 -0.000 -0.000 -0.000 -0.000 +0.000 -0.000 -0.000 +0.000 -0.000 +0.000


Dumping 'jdft.n_up' ... done
Dumping 'jdft.n_dn' ... done
Dumping 'jdft.tau_up' ... done
Dumping 'jdft.tau_dn' ... done
Dumping 'jdft.eigenvals' ... done
Dumping 'jdft.eigStats' ... 
	eMin: -3.534577 at state 0 ( [ +0.000000 +0.000000 +0.000000 ] spin 1 )
	HOMO: -0.149971 at state 43 ( [ -0.090909 +0.500000 +0.000000 ] spin -1 )
	mu  : -0.149954
	LUMO: -0.149775 at state 3 ( [ +0.090909 +0.500000 +0.000000 ] spin 1 )
	eMax: +0.195791 at state 42 ( [ -0.090909 +0.000000 +0.000000 ] spin -1 )
	HOMO-LUMO gap: +0.000196
	Optical gap  : +0.000196 at state 43 ( [ -0.090909 +0.500000 +0.000000 ] spin -1 )
Dumping 'jdft.kPts' ... done
Dumping 'jdft.dosUp' ... done.
Dumping 'jdft.dosDn' ... done.
End date and time: Tue Dec  7 16:42:28 2021  (Duration: 0-23:32:33.06)
Done!
