
*************** JDFTx 1.6.0  ***************

Start date and time: Mon Dec  6 15:24:22 2021
Executable /projects/musgravc/apps/jdftx-1.6.1/build/jdftx with command-line: -i in
Running on hosts (process indices):  shas0662.rc.int.colorado.edu (0-23)
Divided in process groups (process indices):  0 (0)  1 (1)  2 (2)  3 (3)  4 (4)  5 (5)  6 (6)  7 (7)  8 (8)  9 (9)  10 (10)  11 (11)  12 (12)  13 (13)  14 (14)  15 (15)  16 (16)  17 (17)  18 (18)  19 (19)  20 (20)  21 (21)  22 (22)  23 (23)
Resource initialization completed at t[s]:      0.00
Run totals: 24 processes, 24 threads, 0 GPUs


Input parsed successfully to the following command list (including defaults):

basis kpoint-dependent
converge-empty-states yes
coords-type Cartesian
core-overlap-check none
coulomb-interaction Periodic
davidson-band-ratio 1.1
density-of-states Etol 1.000000e-06 Esigma 1.000000e-03 \
		Complete \
	Total \
	OrthoOrbital Cu 1   s \
	OrthoOrbital Cu 1   p \
	OrthoOrbital Cu 1   px \
	OrthoOrbital Cu 1   py \
	OrthoOrbital Cu 1   pz \
	OrthoOrbital Cu 1   d \
	OrthoOrbital Cu 1   dxy \
	OrthoOrbital Cu 1   dyz \
	OrthoOrbital Cu 1   dz2 \
	OrthoOrbital Cu 1   dxz \
	OrthoOrbital Cu 1   dx2-y2 \
	OrthoOrbital Cu 2   s \
	OrthoOrbital Cu 2   p \
	OrthoOrbital Cu 2   px \
	OrthoOrbital Cu 2   py \
	OrthoOrbital Cu 2   pz \
	OrthoOrbital Cu 2   d \
	OrthoOrbital Cu 2   dxy \
	OrthoOrbital Cu 2   dyz \
	OrthoOrbital Cu 2   dz2 \
	OrthoOrbital Cu 2   dxz \
	OrthoOrbital Cu 2   dx2-y2 \
	OrthoOrbital Cu 3   s \
	OrthoOrbital Cu 3   p \
	OrthoOrbital Cu 3   px \
	OrthoOrbital Cu 3   py \
	OrthoOrbital Cu 3   pz \
	OrthoOrbital Cu 3   d \
	OrthoOrbital Cu 3   dxy \
	OrthoOrbital Cu 3   dyz \
	OrthoOrbital Cu 3   dz2 \
	OrthoOrbital Cu 3   dxz \
	OrthoOrbital Cu 3   dx2-y2 \
	OrthoOrbital Cu 4   s \
	OrthoOrbital Cu 4   p \
	OrthoOrbital Cu 4   px \
	OrthoOrbital Cu 4   py \
	OrthoOrbital Cu 4   pz \
	OrthoOrbital Cu 4   d \
	OrthoOrbital Cu 4   dxy \
	OrthoOrbital Cu 4   dyz \
	OrthoOrbital Cu 4   dz2 \
	OrthoOrbital Cu 4   dxz \
	OrthoOrbital Cu 4   dx2-y2 \
	OrthoOrbital Cu 5   s \
	OrthoOrbital Cu 5   p \
	OrthoOrbital Cu 5   px \
	OrthoOrbital Cu 5   py \
	OrthoOrbital Cu 5   pz \
	OrthoOrbital Cu 5   d \
	OrthoOrbital Cu 5   dxy \
	OrthoOrbital Cu 5   dyz \
	OrthoOrbital Cu 5   dz2 \
	OrthoOrbital Cu 5   dxz \
	OrthoOrbital Cu 5   dx2-y2 \
	OrthoOrbital Cu 6   s \
	OrthoOrbital Cu 6   p \
	OrthoOrbital Cu 6   px \
	OrthoOrbital Cu 6   py \
	OrthoOrbital Cu 6   pz \
	OrthoOrbital Cu 6   d \
	OrthoOrbital Cu 6   dxy \
	OrthoOrbital Cu 6   dyz \
	OrthoOrbital Cu 6   dz2 \
	OrthoOrbital Cu 6   dxz \
	OrthoOrbital Cu 6   dx2-y2 \
	OrthoOrbital Cu 7   s \
	OrthoOrbital Cu 7   p \
	OrthoOrbital Cu 7   px \
	OrthoOrbital Cu 7   py \
	OrthoOrbital Cu 7   pz \
	OrthoOrbital Cu 7   d \
	OrthoOrbital Cu 7   dxy \
	OrthoOrbital Cu 7   dyz \
	OrthoOrbital Cu 7   dz2 \
	OrthoOrbital Cu 7   dxz \
	OrthoOrbital Cu 7   dx2-y2 \
	OrthoOrbital Cu 8   s \
	OrthoOrbital Cu 8   p \
	OrthoOrbital Cu 8   px \
	OrthoOrbital Cu 8   py \
	OrthoOrbital Cu 8   pz \
	OrthoOrbital Cu 8   d \
	OrthoOrbital Cu 8   dxy \
	OrthoOrbital Cu 8   dyz \
	OrthoOrbital Cu 8   dz2 \
	OrthoOrbital Cu 8   dxz \
	OrthoOrbital Cu 8   dx2-y2 \
	OrthoOrbital Cu 9   s \
	OrthoOrbital Cu 9   p \
	OrthoOrbital Cu 9   px \
	OrthoOrbital Cu 9   py \
	OrthoOrbital Cu 9   pz \
	OrthoOrbital Cu 9   d \
	OrthoOrbital Cu 9   dxy \
	OrthoOrbital Cu 9   dyz \
	OrthoOrbital Cu 9   dz2 \
	OrthoOrbital Cu 9   dxz \
	OrthoOrbital Cu 9   dx2-y2 \
	OrthoOrbital Cu 10   s \
	OrthoOrbital Cu 10   p \
	OrthoOrbital Cu 10   px \
	OrthoOrbital Cu 10   py \
	OrthoOrbital Cu 10   pz \
	OrthoOrbital Cu 10   d \
	OrthoOrbital Cu 10   dxy \
	OrthoOrbital Cu 10   dyz \
	OrthoOrbital Cu 10   dz2 \
	OrthoOrbital Cu 10   dxz \
	OrthoOrbital Cu 10   dx2-y2 \
	OrthoOrbital Cu 11   s \
	OrthoOrbital Cu 11   p \
	OrthoOrbital Cu 11   px \
	OrthoOrbital Cu 11   py \
	OrthoOrbital Cu 11   pz \
	OrthoOrbital Cu 11   d \
	OrthoOrbital Cu 11   dxy \
	OrthoOrbital Cu 11   dyz \
	OrthoOrbital Cu 11   dz2 \
	OrthoOrbital Cu 11   dxz \
	OrthoOrbital Cu 11   dx2-y2
dump End ElecDensity KEdensity BandEigs EigStats RhoAtom DOS Kpoints
dump Ionic State IonicPositions Lattice EigStats Ecomponents
dump 
dump 
dump 
dump 
dump 
dump 
dump 
dump 
dump-name jdft.$VAR
elec-cutoff 20
elec-eigen-algo Davidson
elec-ex-corr gga-PBE
elec-initial-magnetization 0.000000 no
elec-n-bands 126
elec-smearing Fermi 0.001
electronic-minimize  \
	dirUpdateScheme      FletcherReeves \
	linminMethod         DirUpdateRecommended \
	nIterations          100 \
	history              15 \
	knormThreshold       0 \
	energyDiffThreshold  1e-07 \
	nEnergyDiff          2 \
	alphaTstart          1 \
	alphaTmin            1e-10 \
	updateTestStepSize   yes \
	alphaTreduceFactor   0.1 \
	alphaTincreaseFactor 3 \
	nAlphaAdjustMax      3 \
	wolfeEnergy          0.0001 \
	wolfeGradient        0.9 \
	fdTest               no
exchange-regularization WignerSeitzTruncated
fluid LinearPCM 298.000000 1.013250
fluid-anion F- 0.5 MeanFieldLJ \
	epsBulk 1 \
	pMol 0 \
	epsInf 1 \
	Pvap 0 \
	sigmaBulk 0 \
	Rvdw 2.24877 \
	Res 0 \
	tauNuc 343133
fluid-cation Na+ 0.5 MeanFieldLJ \
	epsBulk 1 \
	pMol 0 \
	epsInf 1 \
	Pvap 0 \
	sigmaBulk 0 \
	Rvdw 2.19208 \
	Res 0 \
	tauNuc 343133
fluid-ex-corr lda-TF lda-PZ
fluid-gummel-loop 10 1.000000e-05
fluid-minimize  \
	dirUpdateScheme      PolakRibiere \
	linminMethod         DirUpdateRecommended \
	nIterations          400 \
	history              15 \
	knormThreshold       1e-11 \
	energyDiffThreshold  0 \
	nEnergyDiff          2 \
	alphaTstart          1 \
	alphaTmin            1e-10 \
	updateTestStepSize   yes \
	alphaTreduceFactor   0.1 \
	alphaTincreaseFactor 3 \
	nAlphaAdjustMax      6 \
	wolfeEnergy          0.0001 \
	wolfeGradient        0.9 \
	fdTest               no
fluid-solvent H2O 55.338 ScalarEOS \
	epsBulk 78.4 \
	pMol 0.92466 \
	epsInf 1.77 \
	Pvap 1.06736e-10 \
	sigmaBulk 4.62e-05 \
	Rvdw 2.61727 \
	Res 1.42 \
	tauNuc 343133 \
	poleEl 15 7 1
forces-output-coords Positions
ion Cu   0.000000000000000   0.000000000000000  21.341210000000004 1
ion Cu  -0.000002000000000   4.311577000000001   1.016280000000000 1
ion Cu   2.383314000000000   0.718595000000000   3.048773000000001 1
ion Cu   2.383311000000000   5.030171000000000   5.081266000000001 1
ion Cu   0.000000000000000   1.437190000000000   7.113759000000001 1
ion Cu  -0.000002000000000   5.748766000000000   9.146252000000002 1
ion Cu   2.383314000000000   2.155784000000001  11.178745000000001 1
ion Cu   2.383311000000000   6.467361000000001  13.211238000000002 1
ion Cu   0.000000000000000   2.874379000000000  15.243731000000004 1
ion Cu  -0.000002000000000   7.185956000000001  17.276224000000003 1
ion Cu   2.383314000000000   3.592974000000000  19.308717000000005 1
ion-species /projects/musgravc/apps/jdftx-1.6.0/build/pseudopotentials/GBRV_v1.5/$ID_pbe_v1.uspp
ion-species /projects/musgravc/apps/jdftx-1.6.0/build/pseudopotentials/GBRV_v1.5/$ID_pbe_v1.2.uspp
ion-species /projects/musgravc/apps/jdftx-1.6.0/build/pseudopotentials/GBRV_v1.5/$ID_pbe_v1.4.uspp
ion-species /projects/musgravc/apps/jdftx-1.6.0/build/pseudopotentials/GBRV_v1.5/$ID_pbe_v1.5.uspp
ion-width Ecut
ionic-minimize  \
	dirUpdateScheme      L-BFGS \
	linminMethod         DirUpdateRecommended \
	nIterations          100 \
	history              15 \
	knormThreshold       0.0001 \
	energyDiffThreshold  1e-06 \
	nEnergyDiff          2 \
	alphaTstart          1 \
	alphaTmin            1e-10 \
	updateTestStepSize   yes \
	alphaTreduceFactor   0.1 \
	alphaTincreaseFactor 3 \
	nAlphaAdjustMax      3 \
	wolfeEnergy          0.0001 \
	wolfeGradient        0.9 \
	fdTest               no
kpoint   0.000000000000   0.000000000000   0.000000000000  1.00000000000000
kpoint-folding 13 7 1 
latt-move-scale 0 0 0
latt-scale 1 1 1 
lattice  \
	   4.766623000000000   -2.383311000000000    0.000000000000000  \
	   0.000000000000000    7.904551000000000    0.000000000000000  \
	   0.000000000000000    0.000000000000000   67.072337000000005 
lattice-minimize  \
	dirUpdateScheme      L-BFGS \
	linminMethod         DirUpdateRecommended \
	nIterations          0 \
	history              15 \
	knormThreshold       0 \
	energyDiffThreshold  1e-06 \
	nEnergyDiff          2 \
	alphaTstart          1 \
	alphaTmin            1e-10 \
	updateTestStepSize   yes \
	alphaTreduceFactor   0.1 \
	alphaTincreaseFactor 3 \
	nAlphaAdjustMax      3 \
	wolfeEnergy          0.0001 \
	wolfeGradient        0.9 \
	fdTest               no
lcao-params 30 1e-06 0.001
pcm-variant CANDLE
spintype z-spin
subspace-rotation-factor 1 yes
symmetries none
symmetry-threshold 0.0001
van-der-waals D3


Applied RMS atom displacement 0 bohrs to make symmetries exact.

---------- Initializing the Grid ----------
R = 
[      4.76662     -2.38331            0  ]
[            0      7.90455            0  ]
[            0            0      67.0723  ]
unit cell volume = 2527.15
G =
[    1.31816   0.397441         -0  ]
[          0   0.794882          0  ]
[          0         -0  0.0936777  ]
Minimum fftbox size, Smin = [  20  36  272  ]
Chosen fftbox size, S = [  20  36  280  ]

---------- Exchange Correlation functional ----------
Initalized PBE GGA exchange.
Initalized PBE GGA correlation.

---------- Setting up pseudopotentials ----------
Width of ionic core gaussian charges (only for fluid interactions / plotting) set to 0.397384

Reading pseudopotential file '/projects/musgravc/apps/jdftx-1.6.0/build/pseudopotentials/GBRV_v1.5/cu_pbe_v1.2.uspp':
  Title: Cu.  Created by USPP 7.3.6 on 3-2-2014
  Reference state energy: -201.059491.  19 valence electrons in orbitals:
    |300>  occupation: 2  eigenvalue: -5.020764
    |310>  occupation: 6  eigenvalue: -3.445588
    |320>  occupation: 8  eigenvalue: -0.925168
    |400>  occupation: 2  eigenvalue: -0.567638
    |410>  occupation: 0  eigenvalue: -0.326154
  lMax: 2  lLocal: 3  QijEcut: 6
  6 projectors sampled on a log grid with 613 points:
    l: 0  eig: -5.020767  rCut: 1.4
    l: 0  eig: -0.567640  rCut: 1.4
    l: 1  eig: -3.445589  rCut: 1.55
    l: 1  eig: -0.326157  rCut: 1.55
    l: 2  eig: -0.925170  rCut: 1.5
    l: 2  eig: 1.500000  rCut: 1.5
  Partial core density with radius 0.8
  Transforming core density to a uniform radial grid of dG=0.02 with 1309 points.
  Transforming local potential to a uniform radial grid of dG=0.02 with 1309 points.
  Transforming nonlocal projectors to a uniform radial grid of dG=0.02 with 432 points.
  Transforming density augmentations to a uniform radial grid of dG=0.02 with 1309 points.
  Transforming atomic orbitals to a uniform radial grid of dG=0.02 with 432 points.
  Core radius for overlap checks: 1.55 bohrs.

Initialized 1 species with 11 total atoms.

Folded 1 k-points by 13x7x1 to 91 k-points.

---------- Setting up k-points, bands, fillings ----------
No reducable k-points. 
Computing the number of bands and number of electrons
Calculating initial fillings.
nElectrons: 209.000000   nBands: 126   nStates: 182

----- Setting up reduced wavefunction bases (one per k-point) -----
average nbasis = 10795.527 , ideal nbasis = 10796.188

----- Initializing Supercell corresponding to k-point mesh -----
Lattice vector linear combinations in supercell:
[  13   0   0  ]
[   0   7   0  ]
[   0   0   1  ]
Supercell lattice vectors:
[  61.9661  -16.6832  0  ]
[  0  55.3319  0  ]
[  0  0  67.0723  ]

Initializing DFT-D3 calculator:
	Parameters set for gga-PBE functional
	s6:  1.000  s_r6:  1.217
	s8:  0.722  s_r8:  1.000
	Per-atom parameters loaded for:
	Cu:  sqrtQ[a0]:  5.226  Rcov[a0]:  1.909  CN: [ 0.00 0.96 ]

Initializing DFT-D2 calculator for fluid / solvation:
	Cu:  C6:  187.33 Eh-a0^6  R0: 2.952 a0

---------- Setting up ewald sum ----------
Optimum gaussian width for ewald sums = 3.643805 bohr.
Real space sum over 1235 unit cells with max indices [  9  6  2  ]
Reciprocal space sum over 4543 terms with max indices [  3  5  29  ]

Computing DFT-D3 correction:
# coordination-number Cu 5.335 5.335 7.621 9.125 9.154 9.158 9.159 9.158 9.154 9.125 7.621
# diagonal-C6 Cu 175.00 175.00 175.00 175.00 175.00 175.00 175.00 175.00 175.00 175.00 175.00
EvdW_6 =   -0.066615
EvdW_8 =   -0.099284

---------- Allocating electronic variables ----------
Initializing wave functions:  linear combination of atomic orbitals
Cu pseudo-atom occupations:   s ( 2 1 )  p ( 6 0 )  d ( 10 )
	FillingsUpdate:  mu: -4.887389068  nElectrons: 209.000000  magneticMoment: [ Abs: 0.12300  Tot: -0.00265 ]
LCAOMinimize: Iter:   0  F: -2160.2533909876578946  |grad|_K:  3.121e-02  alpha:  1.000e+00
LCAOMinimize: 	Step increased F by 6.292355e+02, reducing alpha to 4.281311e-02.
LCAOMinimize: 	Step increased F by 8.039692e+01, reducing alpha to 4.281311e-03.
	FillingsUpdate:  mu: -3.988344444  nElectrons: 209.000000  magneticMoment: [ Abs: 0.12473  Tot: -0.00549 ]
LCAOMinimize: Iter:   1  F: -2171.7095133116808938  |grad|_K:  1.385e-02  alpha:  4.281e-03  linmin: -1.896e-01  cgtest:  8.096e-01  t[s]:     81.72
LCAOMinimize: Encountered beta<0, resetting CG.
	FillingsUpdate:  mu: -2.997174369  nElectrons: 209.000000  magneticMoment: [ Abs: 0.12789  Tot: -0.00704 ]
LCAOMinimize: Iter:   2  F: -2175.5242131751915622  |grad|_K:  9.516e-03  alpha:  9.816e-03  linmin: -6.296e-02  cgtest:  1.236e-01  t[s]:    102.86
LCAOMinimize: 	Wrong curvature in test step, increasing alphaT to 2.944690e-02.
	FillingsUpdate:  mu: -2.842147175  nElectrons: 209.000000  magneticMoment: [ Abs: 0.13904  Tot: -0.02881 ]
LCAOMinimize: Iter:   3  F: -2179.6788589931870774  |grad|_K:  9.967e-03  alpha: -7.145e-02  linmin: -1.848e-01  cgtest:  7.773e-01  t[s]:    123.43
	FillingsUpdate:  mu: +1.798188325  nElectrons: 209.000000  magneticMoment: [ Abs: 0.00049  Tot: -0.00002 ]
LCAOMinimize: Iter:   4  F: -2207.3956179247647924  |grad|_K:  1.989e-03  alpha:  5.206e-01  linmin:  6.474e-02  cgtest: -3.656e+00  t[s]:    144.61
	FillingsUpdate:  mu: +1.779007043  nElectrons: 209.000000  magneticMoment: [ Abs: 0.00049  Tot: +0.00004 ]
LCAOMinimize: Iter:   5  F: -2207.3969801306379850  |grad|_K:  1.966e-03  alpha:  8.346e-03  linmin: -3.903e-04  cgtest:  1.000e+00  t[s]:    166.10
LCAOMinimize: Encountered beta<0, resetting CG.
LCAOMinimize: 	Wrong curvature in test step, increasing alphaT to 2.503805e-02.
	FillingsUpdate:  mu: +1.762459481  nElectrons: 209.000000  magneticMoment: [ Abs: 0.00052  Tot: +0.00010 ]
LCAOMinimize: Iter:   6  F: -2207.5188704700649396  |grad|_K:  1.952e-03  alpha: -4.915e+00  linmin: -6.306e-02  cgtest:  9.892e-01  t[s]:    186.66
	FillingsUpdate:  mu: +1.722383203  nElectrons: 209.000000  magneticMoment: [ Abs: 0.00053  Tot: -0.00002 ]
LCAOMinimize: Iter:   7  F: -2207.8415542841835304  |grad|_K:  1.941e-03  alpha:  2.204e-02  linmin: -5.906e-02  cgtest:  9.631e-01  t[s]:    208.09
LCAOMinimize: 	Wrong curvature in test step, increasing alphaT to 6.613468e-02.
	FillingsUpdate:  mu: +1.685565403  nElectrons: 209.000000  magneticMoment: [ Abs: 0.00057  Tot: +0.00009 ]
LCAOMinimize: Iter:   8  F: -2208.1694900669413073  |grad|_K:  1.925e-03  alpha: -8.133e-01  linmin: -6.522e-02  cgtest:  9.686e-01  t[s]:    228.88
	FillingsUpdate:  mu: +1.647164309  nElectrons: 209.000000  magneticMoment: [ Abs: 0.00051  Tot: -0.00001 ]
LCAOMinimize: Iter:   9  F: -2208.4960581591599293  |grad|_K:  1.902e-03  alpha:  2.261e-02  linmin: -8.033e-02  cgtest:  9.731e-01  t[s]:    250.17
LCAOMinimize: 	Wrong curvature in test step, increasing alphaT to 6.783085e-02.
	FillingsUpdate:  mu: +1.610265296  nElectrons: 209.000000  magneticMoment: [ Abs: 0.00049  Tot: -0.00003 ]
LCAOMinimize: Iter:  10  F: -2208.8131457539502662  |grad|_K:  1.889e-03  alpha: -1.035e+00  linmin: -8.617e-02  cgtest:  9.694e-01  t[s]:    270.77
	FillingsUpdate:  mu: +1.571598361  nElectrons: 209.000000  magneticMoment: [ Abs: 0.00048  Tot: -0.00007 ]
LCAOMinimize: Iter:  11  F: -2209.1426767666880551  |grad|_K:  1.878e-03  alpha:  2.354e-02  linmin: -1.238e-01  cgtest:  9.669e-01  t[s]:    291.99
LCAOMinimize: 	Wrong curvature in test step, increasing alphaT to 7.062201e-02.
	FillingsUpdate:  mu: +1.535528132  nElectrons: 209.000000  magneticMoment: [ Abs: 0.00057  Tot: -0.00031 ]
LCAOMinimize: Iter:  12  F: -2209.4704558852417904  |grad|_K:  1.878e-03  alpha: -6.858e-01  linmin: -1.129e-01  cgtest:  9.608e-01  t[s]:    312.79
	FillingsUpdate:  mu: +1.494289544  nElectrons: 209.000000  magneticMoment: [ Abs: 0.00076  Tot: -0.00059 ]
LCAOMinimize: Iter:  13  F: -2209.8631931710797289  |grad|_K:  1.882e-03  alpha:  2.752e-02  linmin: -8.081e-02  cgtest:  9.506e-01  t[s]:    333.97
LCAOMinimize: 	Wrong curvature in test step, increasing alphaT to 8.256624e-02.
	FillingsUpdate:  mu: +1.453678535  nElectrons: 209.000000  magneticMoment: [ Abs: 0.00065  Tot: -0.00042 ]
LCAOMinimize: Iter:  14  F: -2210.2575540967177403  |grad|_K:  1.867e-03  alpha: -9.126e-01  linmin: -1.125e-01  cgtest:  9.594e-01  t[s]:    354.59
	FillingsUpdate:  mu: +1.405105418  nElectrons: 209.000000  magneticMoment: [ Abs: 0.00056  Tot: -0.00025 ]
LCAOMinimize: Iter:  15  F: -2210.7298549293664109  |grad|_K:  1.860e-03  alpha:  3.375e-02  linmin: -1.418e-01  cgtest:  9.458e-01  t[s]:    375.82
LCAOMinimize: 	Wrong curvature in test step, increasing alphaT to 1.012357e-01.
	FillingsUpdate:  mu: +1.362605087  nElectrons: 209.000000  magneticMoment: [ Abs: 0.00054  Tot: -0.00016 ]
LCAOMinimize: Iter:  16  F: -2211.2086016268585809  |grad|_K:  1.861e-03  alpha: -5.632e-01  linmin: -1.436e-01  cgtest:  9.396e-01  t[s]:    396.46
	FillingsUpdate:  mu: +1.305642821  nElectrons: 209.000000  magneticMoment: [ Abs: 0.00060  Tot: +0.00002 ]
LCAOMinimize: Iter:  17  F: -2211.8395674042549217  |grad|_K:  1.862e-03  alpha:  4.328e-02  linmin: -1.387e-01  cgtest:  9.192e-01  t[s]:    417.61
LCAOMinimize: 	Wrong curvature in test step, increasing alphaT to 1.298385e-01.
	FillingsUpdate:  mu: +1.237689391  nElectrons: 209.000000  magneticMoment: [ Abs: 0.00063  Tot: +0.00004 ]
LCAOMinimize: Iter:  18  F: -2212.4848594184368267  |grad|_K:  1.857e-03  alpha: -5.251e-01  linmin: -1.529e-01  cgtest:  9.160e-01  t[s]:    438.25
	FillingsUpdate:  mu: +1.150165801  nElectrons: 209.000000  magneticMoment: [ Abs: 0.00065  Tot: -0.00018 ]
LCAOMinimize: Iter:  19  F: -2213.2549661651960378  |grad|_K:  1.836e-03  alpha:  5.136e-02  linmin: -1.568e-01  cgtest:  8.990e-01  t[s]:    459.69
LCAOMinimize: 	Wrong curvature in test step, increasing alphaT to 1.540736e-01.
	FillingsUpdate:  mu: +1.085378894  nElectrons: 209.000000  magneticMoment: [ Abs: 0.00069  Tot: -0.00014 ]
LCAOMinimize: Iter:  20  F: -2214.0094795802992849  |grad|_K:  1.794e-03  alpha: -6.372e-01  linmin: -1.518e-01  cgtest:  8.986e-01  t[s]:    480.58
	FillingsUpdate:  mu: +1.033733203  nElectrons: 209.000000  magneticMoment: [ Abs: 0.00077  Tot: -0.00030 ]
LCAOMinimize: Iter:  21  F: -2214.6391142920620041  |grad|_K:  1.727e-03  alpha:  4.622e-02  linmin: -1.701e-01  cgtest:  9.178e-01  t[s]:    501.78
LCAOMinimize: 	Wrong curvature in test step, increasing alphaT to 1.386598e-01.
	FillingsUpdate:  mu: +0.976377023  nElectrons: 209.000000  magneticMoment: [ Abs: 0.00082  Tot: -0.00027 ]
LCAOMinimize: Iter:  22  F: -2215.1964704675310713  |grad|_K:  1.644e-03  alpha: -1.406e+00  linmin: -1.821e-01  cgtest:  9.263e-01  t[s]:    522.58
	FillingsUpdate:  mu: +0.934341742  nElectrons: 209.000000  magneticMoment: [ Abs: 0.00086  Tot: -0.00022 ]
LCAOMinimize: Iter:  23  F: -2215.5498950965584299  |grad|_K:  1.586e-03  alpha:  3.337e-02  linmin: -1.497e-01  cgtest:  9.476e-01  t[s]:    543.75
LCAOMinimize: 	Predicted alpha/alphaT>3.000000, increasing alphaT to 1.001132e-01.
LCAOMinimize: 	Predicted alpha/alphaT>3.000000, increasing alphaT to 3.003395e-01.
LCAOMinimize: 	Step increased F by 2.395530e+01, reducing alpha to 5.642632e-02.
	FillingsUpdate:  mu: +0.867438522  nElectrons: 209.000000  magneticMoment: [ Abs: 0.00093  Tot: -0.00021 ]
LCAOMinimize: Iter:  24  F: -2216.0912035951923826  |grad|_K:  1.459e-03  alpha:  5.643e-02  linmin: -2.095e-01  cgtest:  9.251e-01  t[s]:    592.04
LCAOMinimize: Encountered beta<0, resetting CG.
LCAOMinimize: 	Wrong curvature in test step, increasing alphaT to 1.692790e-01.
	FillingsUpdate:  mu: +0.814780376  nElectrons: 209.000000  magneticMoment: [ Abs: 0.00102  Tot: -0.00026 ]
LCAOMinimize: Iter:  25  F: -2216.5457856460329822  |grad|_K:  1.352e-03  alpha: -8.071e+00  linmin: -1.979e-01  cgtest:  9.188e-01  t[s]:    612.72
	FillingsUpdate:  mu: +0.796863062  nElectrons: 209.000000  magneticMoment: [ Abs: 0.00105  Tot: -0.00022 ]
LCAOMinimize: Iter:  26  F: -2216.6940158331035491  |grad|_K:  1.315e-03  alpha:  2.130e-02  linmin: -2.154e-01  cgtest:  9.718e-01  t[s]:    633.91
LCAOMinimize: 	Wrong curvature in test step, increasing alphaT to 6.389929e-02.
	FillingsUpdate:  mu: +0.778904364  nElectrons: 209.000000  magneticMoment: [ Abs: 0.00108  Tot: -0.00020 ]
LCAOMinimize: Iter:  27  F: -2216.8333405088765176  |grad|_K:  1.282e-03  alpha: -6.150e+00  linmin: -2.207e-01  cgtest:  9.701e-01  t[s]:    654.74
	FillingsUpdate:  mu: +0.760511121  nElectrons: 209.000000  magneticMoment: [ Abs: 0.00112  Tot: -0.00020 ]
LCAOMinimize: Iter:  28  F: -2216.9614047999093600  |grad|_K:  1.251e-03  alpha:  2.050e-02  linmin: -2.157e-01  cgtest:  9.696e-01  t[s]:    675.91
LCAOMinimize: 	Wrong curvature in test step, increasing alphaT to 6.150722e-02.
	FillingsUpdate:  mu: +0.741029624  nElectrons: 209.000000  magneticMoment: [ Abs: 0.00115  Tot: -0.00020 ]
LCAOMinimize: Iter:  29  F: -2217.0838859645496086  |grad|_K:  1.222e-03  alpha: -2.764e+00  linmin: -2.035e-01  cgtest:  9.688e-01  t[s]:    696.67
	FillingsUpdate:  mu: +0.718908729  nElectrons: 209.000000  magneticMoment: [ Abs: 0.00119  Tot: -0.00021 ]
LCAOMinimize: Iter:  30  F: -2217.2017696623543088  |grad|_K:  1.192e-03  alpha:  2.069e-02  linmin: -1.989e-01  cgtest:  9.686e-01  t[s]:    717.81
LCAOMinimize: None of the convergence criteria satisfied after 30 iterations.
----- createFluidSolver() ----- (Fluid-side solver setup)
   Initializing fluid molecule 'H2O'
     Initializing site 'O'
       Electron density: proportional to exp(-r/0.36935)*erfc((r-0.51523)/0.36823) with norm 6.826
       Charge density: gaussian nuclear width 0.478731 with net site charge 0.826
       Polarizability: cuspless exponential with width 0.32 and norm 3.73
       Hard sphere radius: 2.57003 bohrs
       Positions in reference frame:
         [ +0.000000 +0.000000 +0.000000 ]
     Initializing site 'H'
       Electron density: proportional to exp(-r/0.34641)*erfc((r-0)/0.390882) with norm 0.587
       Charge density: gaussian nuclear width 0.377945 with net site charge -0.413
       Polarizability: cuspless exponential with width 0.39 and norm 3.3
       Positions in reference frame:
         [ +0.000000 -1.441945 +1.122523 ]
         [ +0.000000 +1.441945 +1.122523 ]
     Net charge: 0   dipole magnitude: 0.927204
     Initializing spherical shell mfKernel with radius 2.61727 Bohr
     deltaS corrections:
       site 'O': -7.54299
       site 'H': -6.83917
   Initializing fluid molecule 'Na+'
     Initializing site 'Na'
       Electron density: proportional to exp(-r/0.19682)*erfc((r-0.71491)/0.41314) with norm 8.1383
       Charge density: gaussian nuclear width 0.365347 with net site charge -1
       Hard sphere radius: 1.86327 bohrs
       Positions in reference frame:
         [ +0.000000 +0.000000 +0.000000 ]
     Net charge: -1   dipole magnitude: 0
     Initializing gaussian mfKernel with width: 1.55004 Bohr
     deltaS corrections:
       site 'Na': -22.3555
   Initializing fluid molecule 'F-'
     Initializing site 'F'
       Electron density: proportional to exp(-r/0.38886)*erfc((r-0)/0.438782) with norm 8
       Charge density: gaussian nuclear width 0.374796 with net site charge 1
       Hard sphere radius: 2.39995 bohrs
       Positions in reference frame:
         [ +0.000000 +0.000000 +0.000000 ]
     Net charge: 1   dipole magnitude: 0
     Initializing gaussian mfKernel with width: 1.59012 Bohr
     deltaS corrections:
       site 'F': -9.04335

Correction to mu due to finite nuclear width = -0.0820568
   Cavity determined by nc: 0.00142 and sigma: 0.707107
   Nonlocal vdW cavity from gaussian model electron density with norm = 8 and sigma = 0.993594 bohr
   Charge asymmetry in cavity with sensitivity pCavity = 36.5 e-bohr/Eh
   Electrostatic cavity expanded by eta = 1.46 bohrs
   Weighted density cavitation model constrained by Nbulk: 0.0049383 bohr^-3, Pvap: 3.14029 kPa, Rvdw: 2.61727 bohr and sigmaBulk: 4.62e-05 Eh/bohr^2 at T: 298 K.
   Weighted density dispersion model using vdW pair potentials with single solvent site with sqrtC6eff: 0.77 SI.


---- Citations for features of the code used in this run ----

   Software package:
      R. Sundararaman, K. Letchworth-Weaver, K.A. Schwarz, D. Gunceler, Y. Ozhabes and T.A. Arias, 'JDFTx: software for joint density-functional theory', SoftwareX 6, 278 (2017)

   gga-PBE exchange-correlation functional:
      J.P. Perdew, K. Burke and M. Ernzerhof, Phys. Rev. Lett. 77, 3865 (1996)

   Pseudopotentials:
      KF Garrity, JW Bennett, KM Rabe and D Vanderbilt, Comput. Mater. Sci. 81, 446 (2014)

   DFT-D3 dispersion correction:
      S. Grimme, J. Antony, S. Ehrlich and H. Krieg, J. Chem. Phys. 132, 154104 (2010)

   DFT-D2 dispersion correction:
      S. Grimme, J. Comput. Chem. 27, 1787 (2006)

   Charge-asymmetric nonlocally-determined local-electric (CANDLE) solvation model:
      R. Sundararaman and W.A. Goddard III, J. Chem. Phys. 142, 064107 (2015)

   Total energy minimization with Auxiliary Hamiltonian:
      C. Freysoldt, S. Boeck, and J. Neugebauer, Phys. Rev. B 79, 241103(R) (2009)

   Linear-tetrahedron sampling for density of states:
      G. Lehmann and M. Taut, Phys. status solidi (b) 54, 469 (1972)

This list may not be complete. Please suggest additional citations or
report any other bugs at https://github.com/shankar1729/jdftx/issues

Initialization completed successfully at t[s]:    724.02


Computing DFT-D3 correction:
# coordination-number Cu 5.335 5.335 7.621 9.125 9.154 9.158 9.159 9.158 9.154 9.125 7.621
# diagonal-C6 Cu 175.00 175.00 175.00 175.00 175.00 175.00 175.00 175.00 175.00 175.00 175.00
EvdW_6 =   -0.066615
EvdW_8 =   -0.099284
Fluid solver invoked on fresh (random / LCAO) wavefunctions
Running a vacuum solve first:

-------- Initial electronic minimization -----------
	FillingsUpdate:  mu: +0.736141651  nElectrons: 209.000000  magneticMoment: [ Abs: 0.00119  Tot: -0.00021 ]
ElecMinimize: Iter:   0  F: -2217.201769662354309  |grad|_K:  3.331e-04  alpha:  1.000e+00
	FillingsUpdate:  mu: +0.294273514  nElectrons: 209.000000  magneticMoment: [ Abs: 0.00132  Tot: -0.00021 ]
	SubspaceRotationAdjust: set factor to 1.04
ElecMinimize: Iter:   1  F: -2219.467174248450192  |grad|_K:  9.047e-05  alpha:  8.883e-02  linmin:  1.767e-03  t[s]:    774.17
	FillingsUpdate:  mu: +0.270745920  nElectrons: 209.000000  magneticMoment: [ Abs: 0.00115  Tot: -0.00034 ]
	SubspaceRotationAdjust: set factor to 1.12
ElecMinimize: Iter:   2  F: -2219.934126420144821  |grad|_K:  9.092e-05  alpha:  2.485e-01  linmin: -2.737e-05  t[s]:    804.83
	FillingsUpdate:  mu: +0.165423182  nElectrons: 209.000000  magneticMoment: [ Abs: 0.00104  Tot: -0.00019 ]
	SubspaceRotationAdjust: set factor to 1.05
ElecMinimize: Iter:   3  F: -2220.193761698291837  |grad|_K:  3.780e-05  alpha:  9.029e-02  linmin: -6.385e-04  t[s]:    835.37
	FillingsUpdate:  mu: +0.081880515  nElectrons: 209.000000  magneticMoment: [ Abs: 0.00092  Tot: -0.00018 ]
	SubspaceRotationAdjust: set factor to 0.898
ElecMinimize: Iter:   4  F: -2220.244724125353059  |grad|_K:  4.201e-05  alpha:  1.077e-01  linmin:  5.338e-06  t[s]:    865.83
	FillingsUpdate:  mu: +0.097845165  nElectrons: 209.000000  magneticMoment: [ Abs: 0.00071  Tot: -0.00012 ]
	SubspaceRotationAdjust: set factor to 0.891
ElecMinimize: Iter:   5  F: -2220.292896481213120  |grad|_K:  4.364e-05  alpha:  1.108e-01  linmin:  7.779e-06  t[s]:    896.47
	FillingsUpdate:  mu: +0.113696492  nElectrons: 209.000000  magneticMoment: [ Abs: 0.00057  Tot: -0.00007 ]
	SubspaceRotationAdjust: set factor to 0.589
ElecMinimize: Iter:   6  F: -2220.319100441557111  |grad|_K:  4.109e-05  alpha:  5.747e-02  linmin:  8.786e-07  t[s]:    927.10
	FillingsUpdate:  mu: +0.090598388  nElectrons: 209.000000  magneticMoment: [ Abs: 0.00048  Tot: -0.00006 ]
	SubspaceRotationAdjust: set factor to 0.665
ElecMinimize: Iter:   7  F: -2220.333321769237045  |grad|_K:  2.023e-05  alpha:  3.461e-02  linmin:  1.780e-06  t[s]:    957.74
ElecMinimize: 	Predicted alpha/alphaT>3.000000, increasing alphaT to 1.038243e-01.
	FillingsUpdate:  mu: +0.062797817  nElectrons: 209.000000  magneticMoment: [ Abs: 0.00036  Tot: -0.00004 ]
	SubspaceRotationAdjust: set factor to 0.762
ElecMinimize: Iter:   8  F: -2220.346818888282542  |grad|_K:  2.046e-05  alpha:  1.318e-01  linmin: -1.085e-05  t[s]:    996.28
	FillingsUpdate:  mu: +0.074311748  nElectrons: 209.000000  magneticMoment: [ Abs: 0.00028  Tot: +0.00006 ]
	SubspaceRotationAdjust: set factor to 0.628
ElecMinimize: Iter:   9  F: -2220.356595660825860  |grad|_K:  1.841e-05  alpha:  9.189e-02  linmin: -6.823e-07  t[s]:   1026.84
	FillingsUpdate:  mu: +0.086867641  nElectrons: 209.000000  magneticMoment: [ Abs: 0.00029  Tot: +0.00017 ]
	SubspaceRotationAdjust: set factor to 0.479
ElecMinimize: Iter:  10  F: -2220.360348490261913  |grad|_K:  1.210e-05  alpha:  4.503e-02  linmin:  4.445e-06  t[s]:   1057.36
	FillingsUpdate:  mu: +0.099007123  nElectrons: 209.000000  magneticMoment: [ Abs: 0.00027  Tot: +0.00019 ]
	SubspaceRotationAdjust: set factor to 0.711
ElecMinimize: Iter:  11  F: -2220.363385420585018  |grad|_K:  7.964e-06  alpha:  8.354e-02  linmin: -9.881e-06  t[s]:   1088.42
	FillingsUpdate:  mu: +0.099504568  nElectrons: 209.000000  magneticMoment: [ Abs: 0.00022  Tot: +0.00014 ]
	SubspaceRotationAdjust: set factor to 0.655
ElecMinimize: Iter:  12  F: -2220.365102352072881  |grad|_K:  9.021e-06  alpha:  1.072e-01  linmin: -2.017e-05  t[s]:   1119.19
	FillingsUpdate:  mu: +0.098150157  nElectrons: 209.000000  magneticMoment: [ Abs: 0.00017  Tot: +0.00010 ]
	SubspaceRotationAdjust: set factor to 0.501
ElecMinimize: Iter:  13  F: -2220.366444751235122  |grad|_K:  6.704e-06  alpha:  6.576e-02  linmin:  3.342e-06  t[s]:   1149.88
	FillingsUpdate:  mu: +0.100359488  nElectrons: 209.000000  magneticMoment: [ Abs: 0.00013  Tot: +0.00007 ]
	SubspaceRotationAdjust: set factor to 0.597
ElecMinimize: Iter:  14  F: -2220.367568769485388  |grad|_K:  5.184e-06  alpha:  1.007e-01  linmin:  1.827e-05  t[s]:   1180.45
	FillingsUpdate:  mu: +0.104593645  nElectrons: 209.000000  magneticMoment: [ Abs: 0.00010  Tot: +0.00005 ]
	SubspaceRotationAdjust: set factor to 0.613
ElecMinimize: Iter:  15  F: -2220.368634455120628  |grad|_K:  5.144e-06  alpha:  1.598e-01  linmin:  5.966e-06  t[s]:   1211.02
	FillingsUpdate:  mu: +0.104758407  nElectrons: 209.000000  magneticMoment: [ Abs: 0.00009  Tot: +0.00005 ]
	SubspaceRotationAdjust: set factor to 0.473
ElecMinimize: Iter:  16  F: -2220.369080087518796  |grad|_K:  3.692e-06  alpha:  6.787e-02  linmin:  2.194e-07  t[s]:   1241.52
	FillingsUpdate:  mu: +0.102700419  nElectrons: 209.000000  magneticMoment: [ Abs: 0.00008  Tot: +0.00004 ]
	SubspaceRotationAdjust: set factor to 0.488
ElecMinimize: Iter:  17  F: -2220.369358624752749  |grad|_K:  2.739e-06  alpha:  8.207e-02  linmin:  2.476e-07  t[s]:   1272.12
	FillingsUpdate:  mu: +0.099045944  nElectrons: 209.000000  magneticMoment: [ Abs: 0.00007  Tot: +0.00003 ]
	SubspaceRotationAdjust: set factor to 0.567
ElecMinimize: Iter:  18  F: -2220.369669799811163  |grad|_K:  2.672e-06  alpha:  1.670e-01  linmin:  1.877e-06  t[s]:   1302.60
	FillingsUpdate:  mu: +0.098047044  nElectrons: 209.000000  magneticMoment: [ Abs: 0.00006  Tot: +0.00003 ]
	SubspaceRotationAdjust: set factor to 0.474
ElecMinimize: Iter:  19  F: -2220.369832541707638  |grad|_K:  2.073e-06  alpha:  9.164e-02  linmin: -6.741e-07  t[s]:   1333.33
	FillingsUpdate:  mu: +0.098756931  nElectrons: 209.000000  magneticMoment: [ Abs: 0.00005  Tot: +0.00002 ]
	SubspaceRotationAdjust: set factor to 0.378
ElecMinimize: Iter:  20  F: -2220.369911524092004  |grad|_K:  1.443e-06  alpha:  7.372e-02  linmin:  1.871e-07  t[s]:   1364.04
	FillingsUpdate:  mu: +0.100196439  nElectrons: 209.000000  magneticMoment: [ Abs: 0.00004  Tot: +0.00002 ]
	SubspaceRotationAdjust: set factor to 0.409
ElecMinimize: Iter:  21  F: -2220.369985103444378  |grad|_K:  1.315e-06  alpha:  1.420e-01  linmin:  8.160e-08  t[s]:   1394.57
	FillingsUpdate:  mu: +0.099917258  nElectrons: 209.000000  magneticMoment: [ Abs: 0.00004  Tot: +0.00001 ]
	SubspaceRotationAdjust: set factor to 0.424
ElecMinimize: Iter:  22  F: -2220.370034166857749  |grad|_K:  9.767e-07  alpha:  1.139e-01  linmin:  1.344e-07  t[s]:   1425.16
	FillingsUpdate:  mu: +0.098709404  nElectrons: 209.000000  magneticMoment: [ Abs: 0.00003  Tot: +0.00001 ]
	SubspaceRotationAdjust: set factor to 0.387
ElecMinimize: Iter:  23  F: -2220.370056112045404  |grad|_K:  7.315e-07  alpha:  9.240e-02  linmin:  1.127e-07  t[s]:   1455.68
	FillingsUpdate:  mu: +0.097628561  nElectrons: 209.000000  magneticMoment: [ Abs: 0.00003  Tot: +0.00001 ]
	SubspaceRotationAdjust: set factor to 0.432
ElecMinimize: Iter:  24  F: -2220.370075615100632  |grad|_K:  6.824e-07  alpha:  1.465e-01  linmin:  2.896e-07  t[s]:   1486.22
	FillingsUpdate:  mu: +0.098154539  nElectrons: 209.000000  magneticMoment: [ Abs: 0.00002  Tot: +0.00000 ]
	SubspaceRotationAdjust: set factor to 0.533
ElecMinimize: Iter:  25  F: -2220.370090178041210  |grad|_K:  5.644e-07  alpha:  1.256e-01  linmin:  5.140e-08  t[s]:   1516.71
	FillingsUpdate:  mu: +0.098896254  nElectrons: 209.000000  magneticMoment: [ Abs: 0.00002  Tot: +0.00000 ]
	SubspaceRotationAdjust: set factor to 0.45
ElecMinimize: Iter:  26  F: -2220.370098072171004  |grad|_K:  4.699e-07  alpha:  9.953e-02  linmin:  4.150e-08  t[s]:   1547.35
	FillingsUpdate:  mu: +0.098880230  nElectrons: 209.000000  magneticMoment: [ Abs: 0.00002  Tot: +0.00000 ]
	SubspaceRotationAdjust: set factor to 0.501
ElecMinimize: Iter:  27  F: -2220.370104927237662  |grad|_K:  4.012e-07  alpha:  1.247e-01  linmin:  2.555e-07  t[s]:   1577.89
	FillingsUpdate:  mu: +0.098160663  nElectrons: 209.000000  magneticMoment: [ Abs: 0.00001  Tot: +0.00000 ]
	SubspaceRotationAdjust: set factor to 0.518
ElecMinimize: Iter:  28  F: -2220.370110374688920  |grad|_K:  3.293e-07  alpha:  1.360e-01  linmin:  4.104e-07  t[s]:   1608.35
	FillingsUpdate:  mu: +0.097937008  nElectrons: 209.000000  magneticMoment: [ Abs: 0.00001  Tot: -0.00000 ]
	SubspaceRotationAdjust: set factor to 0.564
ElecMinimize: Iter:  29  F: -2220.370113773371486  |grad|_K:  2.708e-07  alpha:  1.259e-01  linmin:  2.929e-07  t[s]:   1638.91
	FillingsUpdate:  mu: +0.098151632  nElectrons: 209.000000  magneticMoment: [ Abs: 0.00001  Tot: -0.00000 ]
	SubspaceRotationAdjust: set factor to 0.526
ElecMinimize: Iter:  30  F: -2220.370116202674126  |grad|_K:  2.507e-07  alpha:  1.331e-01  linmin:  4.189e-07  t[s]:   1669.99
	FillingsUpdate:  mu: +0.098234005  nElectrons: 209.000000  magneticMoment: [ Abs: 0.00001  Tot: -0.00000 ]
	SubspaceRotationAdjust: set factor to 0.415
ElecMinimize: Iter:  31  F: -2220.370117521399152  |grad|_K:  1.880e-07  alpha:  8.430e-02  linmin: -1.015e-08  t[s]:   1700.52
	FillingsUpdate:  mu: +0.098196428  nElectrons: 209.000000  magneticMoment: [ Abs: 0.00001  Tot: -0.00000 ]
	SubspaceRotationAdjust: set factor to 0.373
ElecMinimize: Iter:  32  F: -2220.370118427946181  |grad|_K:  1.674e-07  alpha:  1.030e-01  linmin:  3.949e-07  t[s]:   1731.13
	FillingsUpdate:  mu: +0.098149437  nElectrons: 209.000000  magneticMoment: [ Abs: 0.00001  Tot: -0.00000 ]
	SubspaceRotationAdjust: set factor to 0.414
ElecMinimize: Iter:  33  F: -2220.370119507088930  |grad|_K:  1.437e-07  alpha:  1.548e-01  linmin:  6.439e-07  t[s]:   1761.62
	FillingsUpdate:  mu: +0.098123816  nElectrons: 209.000000  magneticMoment: [ Abs: 0.00000  Tot: -0.00000 ]
	SubspaceRotationAdjust: set factor to 0.378
ElecMinimize: Iter:  34  F: -2220.370119988021543  |grad|_K:  1.014e-07  alpha:  9.363e-02  linmin:  9.272e-08  t[s]:   1792.13
	FillingsUpdate:  mu: +0.098107388  nElectrons: 209.000000  magneticMoment: [ Abs: 0.00000  Tot: -0.00000 ]
	SubspaceRotationAdjust: set factor to 0.365
ElecMinimize: Iter:  35  F: -2220.370120295616744  |grad|_K:  9.441e-08  alpha:  1.203e-01  linmin:  2.064e-07  t[s]:   1822.58
	FillingsUpdate:  mu: +0.098139746  nElectrons: 209.000000  magneticMoment: [ Abs: 0.00000  Tot: -0.00000 ]
	SubspaceRotationAdjust: set factor to 0.398
ElecMinimize: Iter:  36  F: -2220.370120625759682  |grad|_K:  7.990e-08  alpha:  1.488e-01  linmin:  3.331e-07  t[s]:   1853.11
	FillingsUpdate:  mu: +0.098179131  nElectrons: 209.000000  magneticMoment: [ Abs: 0.00000  Tot: -0.00000 ]
	SubspaceRotationAdjust: set factor to 0.36
ElecMinimize: Iter:  37  F: -2220.370120779781701  |grad|_K:  5.697e-08  alpha:  9.709e-02  linmin: -3.980e-08  t[s]:   1883.72
	FillingsUpdate:  mu: +0.098177666  nElectrons: 209.000000  magneticMoment: [ Abs: 0.00000  Tot: -0.00000 ]
	SubspaceRotationAdjust: set factor to 0.36
ElecMinimize: Iter:  38  F: -2220.370120884153948  |grad|_K:  5.503e-08  alpha:  1.292e-01  linmin:  4.307e-07  t[s]:   1914.22
	FillingsUpdate:  mu: +0.098139729  nElectrons: 209.000000  magneticMoment: [ Abs: 0.00000  Tot: -0.00000 ]
	SubspaceRotationAdjust: set factor to 0.389
ElecMinimize: Iter:  39  F: -2220.370120993657565  |grad|_K:  4.524e-08  alpha:  1.456e-01  linmin: -1.070e-07  t[s]:   1944.69
	FillingsUpdate:  mu: +0.098143108  nElectrons: 209.000000  magneticMoment: [ Abs: 0.00000  Tot: -0.00000 ]
	SubspaceRotationAdjust: set factor to 0.382
ElecMinimize: Iter:  40  F: -2220.370121046715212  |grad|_K:  3.578e-08  alpha:  1.038e-01  linmin: -5.899e-08  t[s]:   1976.06
	FillingsUpdate:  mu: +0.098176870  nElectrons: 209.000000  magneticMoment: [ Abs: 0.00000  Tot: -0.00000 ]
	SubspaceRotationAdjust: set factor to 0.378
ElecMinimize: Iter:  41  F: -2220.370121090431894  |grad|_K:  3.345e-08  alpha:  1.369e-01  linmin: -7.804e-08  t[s]:   2006.53
ElecMinimize: Converged (|Delta F|<1.000000e-07 for 2 iters).
Setting wave functions to eigenvectors of Hamiltonian
Converging empty states (this may take a while): |deigs|: 2.388e-02
Vacuum energy after initial minimize, F = -2220.370121090431894


-------- Electronic minimization -----------
	Linear fluid (dielectric constant: 78.4, screening length: 8.12261 Bohr) occupying 0.533820 of unit cell:	Completed after 20 iterations at t[s]:   2127.55
	FillingsUpdate:  mu: -0.158964431  nElectrons: 209.000000  magneticMoment: [ Abs: 0.00000  Tot: -0.00000 ]
ElecMinimize: Iter:   0  F: -2220.370273506210651  |grad|_K:  5.393e-07  alpha:  1.000e+00
	Linear fluid (dielectric constant: 78.4, screening length: 8.12261 Bohr) occupying 0.535161 of unit cell:	Completed after 19 iterations at t[s]:   2153.49
	Linear fluid (dielectric constant: 78.4, screening length: 8.12261 Bohr) occupying 0.534232 of unit cell:	Completed after 19 iterations at t[s]:   2162.80
	FillingsUpdate:  mu: -0.154476441  nElectrons: 209.000000  magneticMoment: [ Abs: 0.00000  Tot: -0.00000 ]
	SubspaceRotationAdjust: set factor to 0.351
ElecMinimize: Iter:   1  F: -2220.370295167353561  |grad|_K:  7.075e-07  alpha:  3.007e-01  linmin:  3.479e-07  t[s]:   2175.10
	Linear fluid (dielectric constant: 78.4, screening length: 8.12261 Bohr) occupying 0.535115 of unit cell:	Completed after 16 iterations at t[s]:   2186.46
	Linear fluid (dielectric constant: 78.4, screening length: 8.12261 Bohr) occupying 0.534919 of unit cell:	Completed after 11 iterations at t[s]:   2195.43
	FillingsUpdate:  mu: -0.152521046  nElectrons: 209.000000  magneticMoment: [ Abs: 0.00000  Tot: -0.00000 ]
	SubspaceRotationAdjust: set factor to 0.473
ElecMinimize: Iter:   2  F: -2220.370323991863188  |grad|_K:  6.762e-07  alpha:  2.326e-01  linmin: -6.290e-08  t[s]:   2207.63
	Linear fluid (dielectric constant: 78.4, screening length: 8.12261 Bohr) occupying 0.535572 of unit cell:	Completed after 12 iterations at t[s]:   2218.77
	Linear fluid (dielectric constant: 78.4, screening length: 8.12261 Bohr) occupying 0.535400 of unit cell:	Completed after 10 iterations at t[s]:   2227.71
	FillingsUpdate:  mu: -0.153392748  nElectrons: 209.000000  magneticMoment: [ Abs: 0.00000  Tot: -0.00000 ]
	SubspaceRotationAdjust: set factor to 0.514
ElecMinimize: Iter:   3  F: -2220.370343388904985  |grad|_K:  4.016e-07  alpha:  1.703e-01  linmin: -6.359e-08  t[s]:   2240.02
	Linear fluid (dielectric constant: 78.4, screening length: 8.12261 Bohr) occupying 0.535598 of unit cell:	Completed after 10 iterations at t[s]:   2251.08
	Linear fluid (dielectric constant: 78.4, screening length: 8.12261 Bohr) occupying 0.535744 of unit cell:	Completed after 10 iterations at t[s]:   2260.15
	FillingsUpdate:  mu: -0.153521336  nElectrons: 209.000000  magneticMoment: [ Abs: 0.00000  Tot: -0.00000 ]
	SubspaceRotationAdjust: set factor to 0.601
ElecMinimize: Iter:   4  F: -2220.370355339459820  |grad|_K:  3.219e-07  alpha:  2.968e-01  linmin: -1.622e-07  t[s]:   2272.52
	Linear fluid (dielectric constant: 78.4, screening length: 8.12261 Bohr) occupying 0.535994 of unit cell:	Completed after 13 iterations at t[s]:   2283.73
	Linear fluid (dielectric constant: 78.4, screening length: 8.12261 Bohr) occupying 0.535858 of unit cell:	Completed after 11 iterations at t[s]:   2292.62
	FillingsUpdate:  mu: -0.153306748  nElectrons: 209.000000  magneticMoment: [ Abs: 0.00000  Tot: -0.00000 ]
	SubspaceRotationAdjust: set factor to 0.649
ElecMinimize: Iter:   5  F: -2220.370358827886776  |grad|_K:  2.233e-07  alpha:  1.349e-01  linmin:  2.012e-08  t[s]:   2304.99
	Linear fluid (dielectric constant: 78.4, screening length: 8.12261 Bohr) occupying 0.535920 of unit cell:	Completed after 10 iterations at t[s]:   2316.09
	Linear fluid (dielectric constant: 78.4, screening length: 8.12261 Bohr) occupying 0.535949 of unit cell:	Completed after 6 iterations at t[s]:   2324.77
	FillingsUpdate:  mu: -0.153591311  nElectrons: 209.000000  magneticMoment: [ Abs: 0.00000  Tot: -0.00000 ]
	SubspaceRotationAdjust: set factor to 0.713
ElecMinimize: Iter:   6  F: -2220.370361281142323  |grad|_K:  1.693e-07  alpha:  1.976e-01  linmin: -4.397e-08  t[s]:   2337.14
	Linear fluid (dielectric constant: 78.4, screening length: 8.12261 Bohr) occupying 0.536013 of unit cell:	Completed after 10 iterations at t[s]:   2348.37
	Linear fluid (dielectric constant: 78.4, screening length: 8.12261 Bohr) occupying 0.535998 of unit cell:	Completed after 6 iterations at t[s]:   2357.26
	FillingsUpdate:  mu: -0.153428343  nElectrons: 209.000000  magneticMoment: [ Abs: 0.00000  Tot: -0.00000 ]
	SubspaceRotationAdjust: set factor to 0.678
ElecMinimize: Iter:   7  F: -2220.370362368233600  |grad|_K:  1.348e-07  alpha:  1.521e-01  linmin:  8.654e-08  t[s]:   2369.54
	Linear fluid (dielectric constant: 78.4, screening length: 8.12261 Bohr) occupying 0.536032 of unit cell:	Completed after 8 iterations at t[s]:   2380.48
	Linear fluid (dielectric constant: 78.4, screening length: 8.12261 Bohr) occupying 0.536036 of unit cell:	Completed after 2 iterations at t[s]:   2389.01
	FillingsUpdate:  mu: -0.153511997  nElectrons: 209.000000  magneticMoment: [ Abs: 0.00000  Tot: -0.00000 ]
	SubspaceRotationAdjust: set factor to 0.607
ElecMinimize: Iter:   8  F: -2220.370363143912073  |grad|_K:  9.025e-08  alpha:  1.718e-01  linmin: -2.004e-07  t[s]:   2401.30
	Linear fluid (dielectric constant: 78.4, screening length: 8.12261 Bohr) occupying 0.536054 of unit cell:	Completed after 7 iterations at t[s]:   2412.26
	Linear fluid (dielectric constant: 78.4, screening length: 8.12261 Bohr) occupying 0.536049 of unit cell:	Completed after 2 iterations at t[s]:   2420.82
	FillingsUpdate:  mu: -0.153461087  nElectrons: 209.000000  magneticMoment: [ Abs: 0.00000  Tot: -0.00000 ]
	SubspaceRotationAdjust: set factor to 0.64
ElecMinimize: Iter:   9  F: -2220.370363394325977  |grad|_K:  6.429e-08  alpha:  1.229e-01  linmin:  2.354e-07  t[s]:   2433.12
	Linear fluid (dielectric constant: 78.4, screening length: 8.12261 Bohr) occupying 0.536054 of unit cell:	Completed after 6 iterations at t[s]:   2443.98
	Linear fluid (dielectric constant: 78.4, screening length: 8.12261 Bohr) occupying 0.536059 of unit cell:	Completed after 2 iterations at t[s]:   2452.49
	FillingsUpdate:  mu: -0.153497823  nElectrons: 209.000000  magneticMoment: [ Abs: 0.00000  Tot: -0.00000 ]
	SubspaceRotationAdjust: set factor to 0.578
ElecMinimize: Iter:  10  F: -2220.370363631530381  |grad|_K:  5.633e-08  alpha:  2.287e-01  linmin: -1.100e-06  t[s]:   2464.72
	Linear fluid (dielectric constant: 78.4, screening length: 8.12261 Bohr) occupying 0.536065 of unit cell:	Completed after 8 iterations at t[s]:   2475.87
	Linear fluid (dielectric constant: 78.4, screening length: 8.12261 Bohr) occupying 0.536062 of unit cell:	Completed after 7 iterations at t[s]:   2484.63
	FillingsUpdate:  mu: -0.153557492  nElectrons: 209.000000  magneticMoment: [ Abs: 0.00000  Tot: -0.00000 ]
	SubspaceRotationAdjust: set factor to 0.528
ElecMinimize: Iter:  11  F: -2220.370363722823640  |grad|_K:  2.774e-08  alpha:  1.121e-01  linmin:  9.203e-08  t[s]:   2496.87
	Linear fluid (dielectric constant: 78.4, screening length: 8.12261 Bohr) occupying 0.536063 of unit cell:	Completed after 2 iterations at t[s]:   2507.78
	Linear fluid (dielectric constant: 78.4, screening length: 8.12261 Bohr) occupying 0.536064 of unit cell:	Completed after 2 iterations at t[s]:   2516.33
	FillingsUpdate:  mu: -0.153501412  nElectrons: 209.000000  magneticMoment: [ Abs: 0.00000  Tot: -0.00000 ]
	SubspaceRotationAdjust: set factor to 0.547
ElecMinimize: Iter:  12  F: -2220.370363764218382  |grad|_K:  2.851e-08  alpha:  2.170e-01  linmin:  7.852e-07  t[s]:   2528.68
ElecMinimize: Converged (|Delta F|<1.000000e-07 for 2 iters).
Setting wave functions to eigenvectors of Hamiltonian
Converging empty states (this may take a while): |deigs|: 1.923e-04
Single-point solvation energy estimate, DeltaF = -0.000242673786488

Computing DFT-D3 correction:
# coordination-number Cu 5.335 5.335 7.621 9.125 9.154 9.158 9.159 9.158 9.154 9.125 7.621
# diagonal-C6 Cu 175.00 175.00 175.00 175.00 175.00 175.00 175.00 175.00 175.00 175.00 175.00
EvdW_6 =   -0.066615
EvdW_8 =   -0.099284

# Ionic positions in cartesian coordinates:
ion Cu   0.000000000000000   0.000000000000000  21.341210000000004 1
ion Cu  -0.000002000000000   4.311577000000001   1.016280000000000 1
ion Cu   2.383314000000000   0.718595000000000   3.048773000000001 1
ion Cu   2.383311000000000   5.030171000000000   5.081266000000001 1
ion Cu   0.000000000000000   1.437190000000000   7.113759000000001 1
ion Cu  -0.000002000000000   5.748766000000000   9.146252000000002 1
ion Cu   2.383314000000000   2.155784000000001  11.178745000000001 1
ion Cu   2.383311000000000   6.467361000000001  13.211238000000002 1
ion Cu   0.000000000000000   2.874379000000000  15.243731000000004 1
ion Cu  -0.000002000000000   7.185956000000001  17.276224000000003 1
ion Cu   2.383314000000000   3.592974000000000  19.308717000000005 1

# Forces in Cartesian coordinates:
force Cu   0.000021352896106  -0.000084468750556  -0.005783711302590 1
force Cu  -0.000039539142384   0.000076100668302   0.005770922796876 1
force Cu  -0.000049207437768  -0.000348823721394  -0.006685749541245 1
force Cu  -0.000043443609646   0.001254257851898  -0.002738214045832 1
force Cu   0.000114762546614  -0.000671437907060   0.002593155143833 1
force Cu   0.000002716762290  -0.000266314356450   0.000239945960432 1
force Cu   0.000003251155262  -0.000014025176154   0.000090995301813 1
force Cu  -0.000022049501127   0.000298555410147  -0.000310901159747 1
force Cu  -0.000086470347849   0.000676275245902  -0.002466386465507 1
force Cu   0.000050000197426  -0.001314181390328   0.002641310794603 1
force Cu   0.000061047053826   0.000403104842274   0.006720598718902 1

# Energy components:
   A_diel =       -0.0003391796459519
   Eewald =    16839.7551737045760092
       EH =    18871.6581346673192456
     Eloc =   -38348.5855448575166520
      Enl =      402.8571555467889311
     EvdW =       -0.1658992308185376
      Exc =     -213.4733454237639592
 Exc_core =        0.5166816700838390
       KE =      227.0679567988901510
-------------------------------------
     Etot =    -2220.3700263040864229
       TS =        0.0003374601320746
-------------------------------------
        F =    -2220.3703637642183821


Dumping 'jdft.fillings' ... done
Dumping 'jdft.wfns' ... done
Dumping 'jdft.fluidState' ... done
Dumping 'jdft.ionpos' ... done
Dumping 'jdft.lattice' ... done
Dumping 'jdft.eigenvals' ... done
Dumping 'jdft.eigStats' ... 
	eMin: -4.293603 at state 91 ( [ +0.000000 +0.000000 +0.000000 ] spin -1 )
	HOMO: -0.153529 at state 45 ( [ +0.461538 +0.428571 +0.000000 ] spin 1 )
	mu  : -0.153501
	LUMO: -0.152589 at state 135 ( [ +0.461538 +0.285714 +0.000000 ] spin -1 )
	eMax: +0.224337 at state 145 ( [ -0.461538 -0.285714 +0.000000 ] spin -1 )
	HOMO-LUMO gap: +0.000940
	Optical gap  : +0.010217 at state 103 ( [ +0.076923 -0.285714 +0.000000 ] spin -1 )
Dumping 'jdft.Ecomponents' ... done
IonicMinimize: Iter:   0  F: -2220.370363764218382  |grad|_K:  2.392e-03  t[s]:   2611.43

#--- Lowdin population analysis ---
# oxidation-state Cu +0.189 +0.189 +0.043 +0.045 +0.071 +0.077 +0.075 +0.077 +0.072 +0.045 +0.044
# magnetic-moments Cu -0.000 -0.000 +0.000 -0.000 -0.000 +0.000 +0.000 +0.000 -0.000 -0.000 +0.000


Computing DFT-D3 correction:
# coordination-number Cu 5.355 5.355 7.618 9.123 9.143 9.158 9.165 9.158 9.143 9.123 7.618
# diagonal-C6 Cu 175.00 175.00 175.00 175.00 175.00 175.00 175.00 175.00 175.00 175.00 175.00
EvdW_6 =   -0.066614
EvdW_8 =   -0.099273

-------- Electronic minimization -----------
	Linear fluid (dielectric constant: 78.4, screening length: 8.12261 Bohr) occupying 0.536251 of unit cell:	Completed after 12 iterations at t[s]:   2624.12
	FillingsUpdate:  mu: -0.153811820  nElectrons: 209.000000  magneticMoment: [ Abs: 0.00000  Tot: -0.00000 ]
ElecMinimize: Iter:   0  F: -2220.370484246313026  |grad|_K:  6.816e-07  alpha:  1.000e+00
	Linear fluid (dielectric constant: 78.4, screening length: 8.12261 Bohr) occupying 0.536273 of unit cell:	Completed after 18 iterations at t[s]:   2649.78
	Linear fluid (dielectric constant: 78.4, screening length: 8.12261 Bohr) occupying 0.536253 of unit cell:	Completed after 19 iterations at t[s]:   2659.24
	FillingsUpdate:  mu: -0.153001388  nElectrons: 209.000000  magneticMoment: [ Abs: 0.00000  Tot: -0.00000 ]
	SubspaceRotationAdjust: set factor to 0.624
ElecMinimize: Iter:   1  F: -2220.370499531993573  |grad|_K:  5.385e-07  alpha:  1.322e-01  linmin: -3.339e-07  t[s]:   2671.52
	Linear fluid (dielectric constant: 78.4, screening length: 8.12261 Bohr) occupying 0.536239 of unit cell:	Completed after 10 iterations at t[s]:   2682.55
	Linear fluid (dielectric constant: 78.4, screening length: 8.12261 Bohr) occupying 0.536223 of unit cell:	Completed after 11 iterations at t[s]:   2691.55
	FillingsUpdate:  mu: -0.153946832  nElectrons: 209.000000  magneticMoment: [ Abs: 0.00000  Tot: -0.00000 ]
	SubspaceRotationAdjust: set factor to 0.682
ElecMinimize: Iter:   2  F: -2220.370520080784900  |grad|_K:  5.160e-07  alpha:  2.846e-01  linmin: -1.881e-06  t[s]:   2703.83
	Linear fluid (dielectric constant: 78.4, screening length: 8.12261 Bohr) occupying 0.536207 of unit cell:	Completed after 14 iterations at t[s]:   2715.09
	Linear fluid (dielectric constant: 78.4, screening length: 8.12261 Bohr) occupying 0.536215 of unit cell:	Completed after 10 iterations at t[s]:   2724.02
	FillingsUpdate:  mu: -0.153464155  nElectrons: 209.000000  magneticMoment: [ Abs: 0.00000  Tot: -0.00000 ]
	SubspaceRotationAdjust: set factor to 0.744
ElecMinimize: Iter:   3  F: -2220.370529470586007  |grad|_K:  3.824e-07  alpha:  1.416e-01  linmin:  2.834e-07  t[s]:   2736.31
	Linear fluid (dielectric constant: 78.4, screening length: 8.12261 Bohr) occupying 0.536207 of unit cell:	Completed after 10 iterations at t[s]:   2747.58
	Linear fluid (dielectric constant: 78.4, screening length: 8.12261 Bohr) occupying 0.536205 of unit cell:	Completed after 6 iterations at t[s]:   2756.28
	FillingsUpdate:  mu: -0.153929426  nElectrons: 209.000000  magneticMoment: [ Abs: 0.00000  Tot: -0.00000 ]
	SubspaceRotationAdjust: set factor to 0.782
ElecMinimize: Iter:   4  F: -2220.370536012651428  |grad|_K:  2.589e-07  alpha:  1.797e-01  linmin: -1.562e-06  t[s]:   2768.61
	Linear fluid (dielectric constant: 78.4, screening length: 8.12261 Bohr) occupying 0.536216 of unit cell:	Completed after 14 iterations at t[s]:   2779.86
	Linear fluid (dielectric constant: 78.4, screening length: 8.12261 Bohr) occupying 0.536216 of unit cell:	Completed after 0 iterations at t[s]:   2788.25
	FillingsUpdate:  mu: -0.153043814  nElectrons: 209.000000  magneticMoment: [ Abs: 0.00000  Tot: +0.00000 ]
	SubspaceRotationAdjust: set factor to 0.646
ElecMinimize: Iter:   5  F: -2220.370538989280703  |grad|_K:  2.763e-07  alpha:  1.782e-01  linmin:  3.160e-05  t[s]:   2800.59
	Linear fluid (dielectric constant: 78.4, screening length: 8.12261 Bohr) occupying 0.536207 of unit cell:	Completed after 10 iterations at t[s]:   2811.61
	Linear fluid (dielectric constant: 78.4, screening length: 8.12261 Bohr) occupying 0.536208 of unit cell:	Completed after 6 iterations at t[s]:   2820.41
	FillingsUpdate:  mu: -0.153468225  nElectrons: 209.000000  magneticMoment: [ Abs: 0.00000  Tot: +0.00000 ]
	SubspaceRotationAdjust: set factor to 0.465
ElecMinimize: Iter:   6  F: -2220.370541836519351  |grad|_K:  1.562e-07  alpha:  1.508e-01  linmin: -1.619e-05  t[s]:   2832.71
	Linear fluid (dielectric constant: 78.4, screening length: 8.12261 Bohr) occupying 0.536204 of unit cell:	Completed after 10 iterations at t[s]:   2843.77
	Linear fluid (dielectric constant: 78.4, screening length: 8.12261 Bohr) occupying 0.536205 of unit cell:	Completed after 7 iterations at t[s]:   2852.59
	FillingsUpdate:  mu: -0.153564111  nElectrons: 209.000000  magneticMoment: [ Abs: 0.00000  Tot: +0.00000 ]
	SubspaceRotationAdjust: set factor to 0.405
ElecMinimize: Iter:   7  F: -2220.370542432324328  |grad|_K:  7.390e-08  alpha:  9.820e-02  linmin: -1.235e-05  t[s]:   2865.07
	Linear fluid (dielectric constant: 78.4, screening length: 8.12261 Bohr) occupying 0.536205 of unit cell:	Completed after 2 iterations at t[s]:   2875.75
	Linear fluid (dielectric constant: 78.4, screening length: 8.12261 Bohr) occupying 0.536204 of unit cell:	Completed after 2 iterations at t[s]:   2884.28
	FillingsUpdate:  mu: -0.153534559  nElectrons: 209.000000  magneticMoment: [ Abs: 0.00000  Tot: +0.00000 ]
	SubspaceRotationAdjust: set factor to 0.398
ElecMinimize: Iter:   8  F: -2220.370542735897288  |grad|_K:  7.341e-08  alpha:  2.235e-01  linmin:  2.157e-05  t[s]:   2896.51
	Linear fluid (dielectric constant: 78.4, screening length: 8.12261 Bohr) occupying 0.536203 of unit cell:	Completed after 6 iterations at t[s]:   2907.41
	Linear fluid (dielectric constant: 78.4, screening length: 8.12261 Bohr) occupying 0.536203 of unit cell:	Completed after 2 iterations at t[s]:   2915.95
	FillingsUpdate:  mu: -0.153551351  nElectrons: 209.000000  magneticMoment: [ Abs: 0.00000  Tot: +0.00000 ]
	SubspaceRotationAdjust: set factor to 0.429
ElecMinimize: Iter:   9  F: -2220.370542908597145  |grad|_K:  3.445e-08  alpha:  1.301e-01  linmin: -2.994e-05  t[s]:   2928.29
	Linear fluid (dielectric constant: 78.4, screening length: 8.12261 Bohr) occupying 0.536203 of unit cell:	Completed after 2 iterations at t[s]:   2938.96
	Linear fluid (dielectric constant: 78.4, screening length: 8.12261 Bohr) occupying 0.536203 of unit cell:	Completed after 3 iterations at t[s]:   2947.52
	FillingsUpdate:  mu: -0.153607294  nElectrons: 209.000000  magneticMoment: [ Abs: 0.00000  Tot: +0.00000 ]
	SubspaceRotationAdjust: set factor to 0.423
ElecMinimize: Iter:  10  F: -2220.370542962753007  |grad|_K:  2.832e-08  alpha:  1.839e-01  linmin:  5.681e-05  t[s]:   2959.91
	Linear fluid (dielectric constant: 78.4, screening length: 8.12261 Bohr) occupying 0.536204 of unit cell:	Completed after 2 iterations at t[s]:   2970.63
	Linear fluid (dielectric constant: 78.4, screening length: 8.12261 Bohr) occupying 0.536204 of unit cell:	Completed after 1 iterations at t[s]:   2979.14
	FillingsUpdate:  mu: -0.153615102  nElectrons: 209.000000  magneticMoment: [ Abs: 0.00000  Tot: +0.00000 ]
	SubspaceRotationAdjust: set factor to 0.47
ElecMinimize: Iter:  11  F: -2220.370542989875958  |grad|_K:  1.974e-08  alpha:  1.373e-01  linmin:  5.946e-05  t[s]:   2991.37
ElecMinimize: Converged (|Delta F|<1.000000e-07 for 2 iters).
Setting wave functions to eigenvectors of Hamiltonian
Converging empty states (this may take a while): |deigs|: 1.147e-07

Computing DFT-D3 correction:
# coordination-number Cu 5.355 5.355 7.618 9.123 9.143 9.158 9.165 9.158 9.143 9.123 7.618
# diagonal-C6 Cu 175.00 175.00 175.00 175.00 175.00 175.00 175.00 175.00 175.00 175.00 175.00
EvdW_6 =   -0.066614
EvdW_8 =   -0.099273

# Ionic positions in cartesian coordinates:
ion Cu   0.000020223753129  -0.000085290815700  21.335419746315456 1
ion Cu  -0.000042668285361   4.311652278603159   1.022044380414918 1
ion Cu   2.383263663419255   0.718245354213462   3.042080708076798 1
ion Cu   2.383266427247377   5.031424435786755   5.078521243572212 1
ion Cu   0.000113633403637   1.436517740027796   7.116345612761876 1
ion Cu  -0.000000412380687   5.748498863578407   9.146485403578478 1
ion Cu   2.383316122012285   2.155769152758703  11.178829452919857 1
ion Cu   2.383287821355896   6.467658733345005  13.210920556458296 1
ion Cu  -0.000087599490827   2.875054453180758  15.241258071152538 1
ion Cu   0.000046871054449   7.184640996544529  17.278858768412647 1
ion Cu   2.383373917910849   3.593376282777131  19.315431056336948 1

# Forces in Cartesian coordinates:
force Cu   0.000022903068057  -0.000070856223881  -0.005119846651691 1
force Cu  -0.000041336322017   0.000063270082380   0.005120890363812 1
force Cu  -0.000047548526349  -0.000300854941936  -0.006210828859084 1
force Cu  -0.000039667926966   0.001180112406338  -0.002403492934711 1
force Cu   0.000111546173867  -0.000592861378925   0.001937084787796 1
force Cu   0.000001827169741  -0.000308778179654  -0.000015689425388 1
force Cu   0.000002582172395  -0.000010459978401   0.000066775229996 1
force Cu  -0.000019784523279   0.000333348332397  -0.000074481061630 1
force Cu  -0.000082425848035   0.000600325036309  -0.001821256150994 1
force Cu   0.000045645278327  -0.001232220144098   0.002336471151940 1
force Cu   0.000059035449080   0.000346877539314   0.006289620575972 1

# Energy components:
   A_diel =       -0.0003421293025249
   Eewald =    16839.4145056114793988
       EH =    18871.2911274254838645
     Eloc =   -38347.8768376665611868
      Enl =      402.8559610774811404
     EvdW =       -0.1658877510831685
      Exc =     -213.4733329121475833
 Exc_core =        0.5166818660894181
       KE =      227.0679189632419650
-------------------------------------
     Etot =    -2220.3702055153203219
       TS =        0.0003374745557337
-------------------------------------
        F =    -2220.3705429898759576


Dumping 'jdft.fillings' ... done
Dumping 'jdft.wfns' ... done
Dumping 'jdft.fluidState' ... done
Dumping 'jdft.ionpos' ... done
Dumping 'jdft.lattice' ... done
Dumping 'jdft.eigenvals' ... done
Dumping 'jdft.eigStats' ... 
	eMin: -4.293802 at state 91 ( [ +0.000000 +0.000000 +0.000000 ] spin -1 )
	HOMO: -0.153664 at state 45 ( [ +0.461538 +0.428571 +0.000000 ] spin 1 )
	mu  : -0.153615
	LUMO: -0.152724 at state 135 ( [ +0.461538 +0.285714 +0.000000 ] spin -1 )
	eMax: +0.224283 at state 145 ( [ -0.461538 -0.285714 +0.000000 ] spin -1 )
	HOMO-LUMO gap: +0.000940
	Optical gap  : +0.010142 at state 177 ( [ -0.076923 +0.285714 +0.000000 ] spin -1 )
Dumping 'jdft.Ecomponents' ... done
IonicMinimize: Iter:   1  F: -2220.370542989875958  |grad|_K:  2.153e-03  alpha:  1.000e+00  linmin: -9.982e-01  t[s]:   3023.08

#--- Lowdin population analysis ---
# oxidation-state Cu +0.189 +0.189 +0.044 +0.045 +0.072 +0.076 +0.074 +0.076 +0.072 +0.045 +0.044
# magnetic-moments Cu +0.000 +0.000 -0.000 -0.000 -0.000 +0.000 +0.000 +0.000 -0.000 -0.000 +0.000


Computing DFT-D3 correction:
# coordination-number Cu 5.567 5.565 7.577 9.120 9.015 9.113 9.136 9.108 9.007 9.113 7.573
# diagonal-C6 Cu 175.00 175.00 175.00 175.00 175.00 175.00 175.00 175.00 175.00 175.00 175.00
EvdW_6 =   -0.066528
EvdW_8 =   -0.099017

-------- Electronic minimization -----------
	Linear fluid (dielectric constant: 78.4, screening length: 8.12261 Bohr) occupying 0.536316 of unit cell:	Completed after 23 iterations at t[s]:   3035.05
	FillingsUpdate:  mu: -0.005158688  nElectrons: 209.000000  magneticMoment: [ Abs: 0.00000  Tot: -0.00000 ]
ElecMinimize: Iter:   0  F: -2219.568011868966096  |grad|_K:  1.074e-04  alpha:  1.000e+00
	Linear fluid (dielectric constant: 78.4, screening length: 8.12261 Bohr) occupying 0.514064 of unit cell:	Completed after 24 iterations at t[s]:   3061.04
	Linear fluid (dielectric constant: 78.4, screening length: 8.12261 Bohr) occupying 0.534253 of unit cell:	Completed after 24 iterations at t[s]:   3070.56
	FillingsUpdate:  mu: -0.201061585  nElectrons: 209.000000  magneticMoment: [ Abs: 0.00000  Tot: +0.00000 ]
	SubspaceRotationAdjust: set factor to 0.422
ElecMinimize: Iter:   1  F: -2219.912725909404344  |grad|_K:  9.393e-05  alpha:  1.492e-01  linmin:  2.763e-03  t[s]:   3082.91
	Linear fluid (dielectric constant: 78.4, screening length: 8.12261 Bohr) occupying 0.536118 of unit cell:	Completed after 18 iterations at t[s]:   3094.37
	Linear fluid (dielectric constant: 78.4, screening length: 8.12261 Bohr) occupying 0.536529 of unit cell:	Completed after 15 iterations at t[s]:   3103.55
	FillingsUpdate:  mu: -0.256741125  nElectrons: 209.000000  magneticMoment: [ Abs: 0.00000  Tot: +0.00000 ]
	SubspaceRotationAdjust: set factor to 0.538
ElecMinimize: Iter:   2  F: -2220.243006922120912  |grad|_K:  5.184e-05  alpha:  1.831e-01  linmin:  1.814e-04  t[s]:   3115.76
	Linear fluid (dielectric constant: 78.4, screening length: 8.12261 Bohr) occupying 0.540371 of unit cell:	Completed after 21 iterations at t[s]:   3127.31
	Linear fluid (dielectric constant: 78.4, screening length: 8.12261 Bohr) occupying 0.538673 of unit cell:	Completed after 20 iterations at t[s]:   3136.67
	FillingsUpdate:  mu: -0.169026989  nElectrons: 209.000000  magneticMoment: [ Abs: 0.00000  Tot: +0.00000 ]
	SubspaceRotationAdjust: set factor to 0.687
ElecMinimize: Iter:   3  F: -2220.311096776651084  |grad|_K:  2.372e-05  alpha:  1.026e-01  linmin: -8.543e-06  t[s]:   3148.93
	Linear fluid (dielectric constant: 78.4, screening length: 8.12261 Bohr) occupying 0.539430 of unit cell:	Completed after 18 iterations at t[s]:   3160.85
	Linear fluid (dielectric constant: 78.4, screening length: 8.12261 Bohr) occupying 0.539856 of unit cell:	Completed after 16 iterations at t[s]:   3170.05
	FillingsUpdate:  mu: -0.095362633  nElectrons: 209.000000  magneticMoment: [ Abs: 0.00000  Tot: +0.00000 ]
	SubspaceRotationAdjust: set factor to 0.719
ElecMinimize: Iter:   4  F: -2220.333591839353630  |grad|_K:  2.048e-05  alpha:  1.606e-01  linmin:  1.432e-05  t[s]:   3182.35
	Linear fluid (dielectric constant: 78.4, screening length: 8.12261 Bohr) occupying 0.538696 of unit cell:	Completed after 20 iterations at t[s]:   3193.91
	Linear fluid (dielectric constant: 78.4, screening length: 8.12261 Bohr) occupying 0.538714 of unit cell:	Completed after 10 iterations at t[s]:   3202.81
	FillingsUpdate:  mu: -0.155914335  nElectrons: 209.000000  magneticMoment: [ Abs: 0.00000  Tot: +0.00000 ]
	SubspaceRotationAdjust: set factor to 0.817
ElecMinimize: Iter:   5  F: -2220.350078350109015  |grad|_K:  1.491e-05  alpha:  1.581e-01  linmin: -7.931e-06  t[s]:   3215.02
	Linear fluid (dielectric constant: 78.4, screening length: 8.12261 Bohr) occupying 0.538105 of unit cell:	Completed after 19 iterations at t[s]:   3226.68
	Linear fluid (dielectric constant: 78.4, screening length: 8.12261 Bohr) occupying 0.538116 of unit cell:	Completed after 9 iterations at t[s]:   3235.51
	FillingsUpdate:  mu: -0.166048392  nElectrons: 209.000000  magneticMoment: [ Abs: 0.00000  Tot: +0.00000 ]
	SubspaceRotationAdjust: set factor to 1.07
ElecMinimize: Iter:   6  F: -2220.358706495658225  |grad|_K:  1.193e-05  alpha:  1.554e-01  linmin: -4.143e-06  t[s]:   3247.96
	Linear fluid (dielectric constant: 78.4, screening length: 8.12261 Bohr) occupying 0.538117 of unit cell:	Completed after 19 iterations at t[s]:   3259.71
	Linear fluid (dielectric constant: 78.4, screening length: 8.12261 Bohr) occupying 0.538118 of unit cell:	Completed after 10 iterations at t[s]:   3268.60
	FillingsUpdate:  mu: -0.136631466  nElectrons: 209.000000  magneticMoment: [ Abs: 0.00000  Tot: +0.00000 ]
	SubspaceRotationAdjust: set factor to 1.12
ElecMinimize: Iter:   7  F: -2220.364178807772987  |grad|_K:  9.855e-06  alpha:  1.542e-01  linmin:  9.206e-06  t[s]:   3280.97
	Linear fluid (dielectric constant: 78.4, screening length: 8.12261 Bohr) occupying 0.537140 of unit cell:	Completed after 19 iterations at t[s]:   3292.43
	Linear fluid (dielectric constant: 78.4, screening length: 8.12261 Bohr) occupying 0.537296 of unit cell:	Completed after 14 iterations at t[s]:   3301.51
	FillingsUpdate:  mu: -0.166166492  nElectrons: 209.000000  magneticMoment: [ Abs: 0.00000  Tot: +0.00000 ]
	SubspaceRotationAdjust: set factor to 0.996
ElecMinimize: Iter:   8  F: -2220.367309697967812  |grad|_K:  9.336e-06  alpha:  1.301e-01  linmin: -4.013e-06  t[s]:   3313.86
	Linear fluid (dielectric constant: 78.4, screening length: 8.12261 Bohr) occupying 0.537094 of unit cell:	Completed after 19 iterations at t[s]:   3325.38
	Linear fluid (dielectric constant: 78.4, screening length: 8.12261 Bohr) occupying 0.537127 of unit cell:	Completed after 17 iterations at t[s]:   3334.55
	FillingsUpdate:  mu: -0.153190031  nElectrons: 209.000000  magneticMoment: [ Abs: 0.00000  Tot: +0.00000 ]
	SubspaceRotationAdjust: set factor to 0.821
ElecMinimize: Iter:   9  F: -2220.369743337295859  |grad|_K:  7.054e-06  alpha:  1.112e-01  linmin:  1.746e-05  t[s]:   3346.81
	Linear fluid (dielectric constant: 78.4, screening length: 8.12261 Bohr) occupying 0.537049 of unit cell:	Completed after 19 iterations at t[s]:   3358.28
	Linear fluid (dielectric constant: 78.4, screening length: 8.12261 Bohr) occupying 0.537065 of unit cell:	Completed after 14 iterations at t[s]:   3367.38
	FillingsUpdate:  mu: -0.158821868  nElectrons: 209.000000  magneticMoment: [ Abs: 0.00000  Tot: +0.00000 ]
	SubspaceRotationAdjust: set factor to 0.828
ElecMinimize: Iter:  10  F: -2220.370857162112316  |grad|_K:  3.165e-06  alpha:  9.107e-02  linmin: -6.852e-06  t[s]:   3379.66
	Linear fluid (dielectric constant: 78.4, screening length: 8.12261 Bohr) occupying 0.537184 of unit cell:	Completed after 16 iterations at t[s]:   3391.04
	Linear fluid (dielectric constant: 78.4, screening length: 8.12261 Bohr) occupying 0.537241 of unit cell:	Completed after 13 iterations at t[s]:   3400.07
	FillingsUpdate:  mu: -0.156367537  nElectrons: 209.000000  magneticMoment: [ Abs: 0.00000  Tot: +0.00000 ]
	SubspaceRotationAdjust: set factor to 0.842
ElecMinimize: Iter:  11  F: -2220.371194152953649  |grad|_K:  2.719e-06  alpha:  1.348e-01  linmin: -1.838e-06  t[s]:   3412.48
	Linear fluid (dielectric constant: 78.4, screening length: 8.12261 Bohr) occupying 0.537463 of unit cell:	Completed after 17 iterations at t[s]:   3423.82
	Linear fluid (dielectric constant: 78.4, screening length: 8.12261 Bohr) occupying 0.537428 of unit cell:	Completed after 11 iterations at t[s]:   3432.80
	FillingsUpdate:  mu: -0.150518486  nElectrons: 209.000000  magneticMoment: [ Abs: 0.00000  Tot: +0.00000 ]
	SubspaceRotationAdjust: set factor to 0.73
ElecMinimize: Iter:  12  F: -2220.371404102437737  |grad|_K:  1.885e-06  alpha:  1.140e-01  linmin:  2.581e-07  t[s]:   3445.08
	Linear fluid (dielectric constant: 78.4, screening length: 8.12261 Bohr) occupying 0.537422 of unit cell:	Completed after 13 iterations at t[s]:   3456.86
	Linear fluid (dielectric constant: 78.4, screening length: 8.12261 Bohr) occupying 0.537422 of unit cell:	Completed after 10 iterations at t[s]:   3465.95
	FillingsUpdate:  mu: -0.155571403  nElectrons: 209.000000  magneticMoment: [ Abs: 0.00000  Tot: +0.00000 ]
	SubspaceRotationAdjust: set factor to 0.719
ElecMinimize: Iter:  13  F: -2220.371493261136948  |grad|_K:  1.123e-06  alpha:  1.008e-01  linmin: -5.075e-06  t[s]:   3478.31
	Linear fluid (dielectric constant: 78.4, screening length: 8.12261 Bohr) occupying 0.537458 of unit cell:	Completed after 11 iterations at t[s]:   3489.45
	Linear fluid (dielectric constant: 78.4, screening length: 8.12261 Bohr) occupying 0.537482 of unit cell:	Completed after 10 iterations at t[s]:   3498.46
	FillingsUpdate:  mu: -0.156046974  nElectrons: 209.000000  magneticMoment: [ Abs: 0.00000  Tot: +0.00000 ]
	SubspaceRotationAdjust: set factor to 0.893
ElecMinimize: Iter:  14  F: -2220.371546797455267  |grad|_K:  1.055e-06  alpha:  1.705e-01  linmin: -2.345e-06  t[s]:   3510.77
	Linear fluid (dielectric constant: 78.4, screening length: 8.12261 Bohr) occupying 0.537612 of unit cell:	Completed after 16 iterations at t[s]:   3522.14
	Linear fluid (dielectric constant: 78.4, screening length: 8.12261 Bohr) occupying 0.537570 of unit cell:	Completed after 13 iterations at t[s]:   3531.22
	FillingsUpdate:  mu: -0.153242589  nElectrons: 209.000000  magneticMoment: [ Abs: 0.00000  Tot: +0.00000 ]
	SubspaceRotationAdjust: set factor to 0.81
ElecMinimize: Iter:  15  F: -2220.371578823691834  |grad|_K:  7.342e-07  alpha:  1.154e-01  linmin:  2.168e-07  t[s]:   3543.53
	Linear fluid (dielectric constant: 78.4, screening length: 8.12261 Bohr) occupying 0.537587 of unit cell:	Completed after 12 iterations at t[s]:   3554.82
	Linear fluid (dielectric constant: 78.4, screening length: 8.12261 Bohr) occupying 0.537589 of unit cell:	Completed after 10 iterations at t[s]:   3563.69
	FillingsUpdate:  mu: -0.154989292  nElectrons: 209.000000  magneticMoment: [ Abs: 0.00000  Tot: +0.00000 ]
	SubspaceRotationAdjust: set factor to 0.897
ElecMinimize: Iter:  16  F: -2220.371596358223542  |grad|_K:  6.149e-07  alpha:  1.306e-01  linmin: -1.676e-06  t[s]:   3575.94
	Linear fluid (dielectric constant: 78.4, screening length: 8.12261 Bohr) occupying 0.537631 of unit cell:	Completed after 5 iterations at t[s]:   3586.96
	Linear fluid (dielectric constant: 78.4, screening length: 8.12261 Bohr) occupying 0.537647 of unit cell:	Completed after 5 iterations at t[s]:   3595.59
	FillingsUpdate:  mu: -0.154985091  nElectrons: 209.000000  magneticMoment: [ Abs: 0.00000  Tot: +0.00000 ]
	SubspaceRotationAdjust: set factor to 1.13
ElecMinimize: Iter:  17  F: -2220.371613344773323  |grad|_K:  4.713e-07  alpha:  1.803e-01  linmin: -1.055e-06  t[s]:   3607.91
	Linear fluid (dielectric constant: 78.4, screening length: 8.12261 Bohr) occupying 0.537717 of unit cell:	Completed after 13 iterations at t[s]:   3619.28
	Linear fluid (dielectric constant: 78.4, screening length: 8.12261 Bohr) occupying 0.537697 of unit cell:	Completed after 10 iterations at t[s]:   3628.18
	FillingsUpdate:  mu: -0.153440278  nElectrons: 209.000000  magneticMoment: [ Abs: 0.00000  Tot: +0.00000 ]
	SubspaceRotationAdjust: set factor to 0.962
ElecMinimize: Iter:  18  F: -2220.371620547372004  |grad|_K:  4.299e-07  alpha:  1.301e-01  linmin:  7.966e-07  t[s]:   3640.63
	Linear fluid (dielectric constant: 78.4, screening length: 8.12261 Bohr) occupying 0.537700 of unit cell:	Completed after 14 iterations at t[s]:   3651.94
	Linear fluid (dielectric constant: 78.4, screening length: 8.12261 Bohr) occupying 0.537700 of unit cell:	Completed after 10 iterations at t[s]:   3660.83
	FillingsUpdate:  mu: -0.154517766  nElectrons: 209.000000  magneticMoment: [ Abs: 0.00000  Tot: +0.00000 ]
	SubspaceRotationAdjust: set factor to 0.721
ElecMinimize: Iter:  19  F: -2220.371625363182375  |grad|_K:  3.419e-07  alpha:  1.047e-01  linmin: -1.793e-07  t[s]:   3673.17
	Linear fluid (dielectric constant: 78.4, screening length: 8.12261 Bohr) occupying 0.537706 of unit cell:	Completed after 10 iterations at t[s]:   3684.18
	Linear fluid (dielectric constant: 78.4, screening length: 8.12261 Bohr) occupying 0.537706 of unit cell:	Completed after 0 iterations at t[s]:   3692.65
	FillingsUpdate:  mu: -0.154298671  nElectrons: 209.000000  magneticMoment: [ Abs: 0.00000  Tot: +0.00000 ]
	SubspaceRotationAdjust: set factor to 0.764
ElecMinimize: Iter:  20  F: -2220.371628466054972  |grad|_K:  1.879e-07  alpha:  1.066e-01  linmin: -1.024e-05  t[s]:   3704.95
	Linear fluid (dielectric constant: 78.4, screening length: 8.12261 Bohr) occupying 0.537707 of unit cell:	Completed after 5 iterations at t[s]:   3715.79
	Linear fluid (dielectric constant: 78.4, screening length: 8.12261 Bohr) occupying 0.537708 of unit cell:	Completed after 6 iterations at t[s]:   3724.47
	FillingsUpdate:  mu: -0.154073808  nElectrons: 209.000000  magneticMoment: [ Abs: 0.00000  Tot: +0.00000 ]
	SubspaceRotationAdjust: set factor to 0.761
ElecMinimize: Iter:  21  F: -2220.371629925120033  |grad|_K:  1.629e-07  alpha:  1.653e-01  linmin: -7.909e-06  t[s]:   3736.72
	Linear fluid (dielectric constant: 78.4, screening length: 8.12261 Bohr) occupying 0.537699 of unit cell:	Completed after 10 iterations at t[s]:   3747.80
	Linear fluid (dielectric constant: 78.4, screening length: 8.12261 Bohr) occupying 0.537702 of unit cell:	Completed after 6 iterations at t[s]:   3756.93
	FillingsUpdate:  mu: -0.154373405  nElectrons: 209.000000  magneticMoment: [ Abs: 0.00000  Tot: +0.00000 ]
	SubspaceRotationAdjust: set factor to 0.691
ElecMinimize: Iter:  22  F: -2220.371630648649443  |grad|_K:  1.014e-07  alpha:  1.093e-01  linmin:  6.483e-06  t[s]:   3769.18
	Linear fluid (dielectric constant: 78.4, screening length: 8.12261 Bohr) occupying 0.537701 of unit cell:	Completed after 10 iterations at t[s]:   3780.24
	Linear fluid (dielectric constant: 78.4, screening length: 8.12261 Bohr) occupying 0.537701 of unit cell:	Completed after 0 iterations at t[s]:   3788.67
	FillingsUpdate:  mu: -0.154223222  nElectrons: 209.000000  magneticMoment: [ Abs: 0.00000  Tot: +0.00000 ]
	SubspaceRotationAdjust: set factor to 0.766
ElecMinimize: Iter:  23  F: -2220.371630935240773  |grad|_K:  7.316e-08  alpha:  1.121e-01  linmin: -5.739e-05  t[s]:   3801.00
	Linear fluid (dielectric constant: 78.4, screening length: 8.12261 Bohr) occupying 0.537698 of unit cell:	Completed after 2 iterations at t[s]:   3811.76
	Linear fluid (dielectric constant: 78.4, screening length: 8.12261 Bohr) occupying 0.537696 of unit cell:	Completed after 2 iterations at t[s]:   3820.21
	FillingsUpdate:  mu: -0.154192511  nElectrons: 209.000000  magneticMoment: [ Abs: 0.00000  Tot: +0.00000 ]
	SubspaceRotationAdjust: set factor to 0.897
ElecMinimize: Iter:  24  F: -2220.371631203484867  |grad|_K:  7.119e-08  alpha:  2.001e-01  linmin:  6.572e-06  t[s]:   3832.63
	Linear fluid (dielectric constant: 78.4, screening length: 8.12261 Bohr) occupying 0.537686 of unit cell:	Completed after 8 iterations at t[s]:   3843.57
	Linear fluid (dielectric constant: 78.4, screening length: 8.12261 Bohr) occupying 0.537691 of unit cell:	Completed after 6 iterations at t[s]:   3852.21
	FillingsUpdate:  mu: -0.154349347  nElectrons: 209.000000  magneticMoment: [ Abs: 0.00000  Tot: +0.00000 ]
	SubspaceRotationAdjust: set factor to 0.899
ElecMinimize: Iter:  25  F: -2220.371631349517429  |grad|_K:  5.558e-08  alpha:  1.155e-01  linmin:  1.123e-05  t[s]:   3864.46
	Linear fluid (dielectric constant: 78.4, screening length: 8.12261 Bohr) occupying 0.537689 of unit cell:	Completed after 6 iterations at t[s]:   3875.35
	Linear fluid (dielectric constant: 78.4, screening length: 8.12261 Bohr) occupying 0.537688 of unit cell:	Completed after 2 iterations at t[s]:   3883.96
	FillingsUpdate:  mu: -0.154244583  nElectrons: 209.000000  magneticMoment: [ Abs: 0.00000  Tot: +0.00000 ]
	SubspaceRotationAdjust: set factor to 0.865
ElecMinimize: Iter:  26  F: -2220.371631447041636  |grad|_K:  4.645e-08  alpha:  1.278e-01  linmin: -5.959e-06  t[s]:   3896.14
	Linear fluid (dielectric constant: 78.4, screening length: 8.12261 Bohr) occupying 0.537685 of unit cell:	Completed after 2 iterations at t[s]:   3906.91
	Linear fluid (dielectric constant: 78.4, screening length: 8.12261 Bohr) occupying 0.537685 of unit cell:	Completed after 0 iterations at t[s]:   3915.29
	FillingsUpdate:  mu: -0.154252879  nElectrons: 209.000000  magneticMoment: [ Abs: 0.00000  Tot: +0.00000 ]
	SubspaceRotationAdjust: set factor to 1.15
ElecMinimize: Iter:  27  F: -2220.371631521888958  |grad|_K:  3.165e-08  alpha:  1.384e-01  linmin: -3.665e-05  t[s]:   3927.62
ElecMinimize: Converged (|Delta F|<1.000000e-07 for 2 iters).
Setting wave functions to eigenvectors of Hamiltonian
Converging empty states (this may take a while): |deigs|: 1.099e-05

Computing DFT-D3 correction:
# coordination-number Cu 5.567 5.565 7.577 9.120 9.015 9.113 9.136 9.108 9.007 9.113 7.573
# diagonal-C6 Cu 175.00 175.00 175.00 175.00 175.00 175.00 175.00 175.00 175.00 175.00 175.00
EvdW_6 =   -0.066528
EvdW_8 =   -0.099017

# Ionic positions in cartesian coordinates:
ion Cu   0.000514392653922  -0.000638728556874  21.277279573331395 1
ion Cu  -0.000943366856176   4.312093508311427   1.080292119291496 1
ion Cu   2.382444888023167   0.715355976302433   2.952674272204620 1
ion Cu   2.382716633282248   5.049261074496111   5.052363877763541 1
ion Cu   0.001994200374599   1.429916331267941   7.114631354686532 1
ion Cu  -0.000040829498927   5.740273828870369   9.131175441687105 1
ion Cu   2.383302496430574   2.155770289796277  11.178337807490282 1
ion Cu   2.383023681822013   6.475888812744699  13.222734494784742 1
ion Cu  -0.001422601114463   2.881931251376091  15.243808243573975 1
ion Cu   0.000628158530874   7.166261966987093  17.304769797023233 1
ion Cu   2.384340346352170   3.596638688404437  19.408128018163104 1

# Forces in Cartesian coordinates:
force Cu   0.000046653986713  -0.000151375650676  -0.000697931673223 1
force Cu  -0.000051822762034   0.000137301350065   0.000765818802452 1
force Cu  -0.000019984224019  -0.000082591954784  -0.001332554777030 1
force Cu  -0.000001400459312   0.000330945433276   0.000679937369552 1
force Cu   0.000034564947030   0.000111048577054  -0.000690779160735 1
force Cu   0.000004483448754   0.000024315183481   0.000735429880853 1
force Cu   0.000006112820155   0.000017989810616   0.000084809420352 1
force Cu  -0.000005617930798  -0.000022458744754  -0.000682547422721 1
force Cu  -0.000022628552557  -0.000114492753317   0.000725910876817 1
force Cu   0.000005742490617  -0.000338870941619  -0.000814493724812 1
force Cu   0.000029132380458   0.000096702135298   0.001173631507018 1

# Energy components:
   A_diel =       -0.0003821673318838
   Eewald =    16809.6553892226183962
       EH =    18841.3975826972055074
     Eloc =   -38288.2185260175101575
      Enl =      402.8522544010306206
     EvdW =       -0.1655451588144372
      Exc =     -213.4737801760043681
 Exc_core =        0.5166807271297436
       KE =      227.0650266244201418
-------------------------------------
     Etot =    -2220.3712998472551590
       TS =        0.0003316746339844
-------------------------------------
        F =    -2220.3716315218889576


Dumping 'jdft.fillings' ... done
Dumping 'jdft.wfns' ... done
Dumping 'jdft.fluidState' ... done
Dumping 'jdft.ionpos' ... done
Dumping 'jdft.lattice' ... done
[...]
	eMax: +0.223823 at state 43 ( [ +0.461538 +0.142857 +0.000000 ] spin 1 )
	HOMO-LUMO gap: +0.001116
	Optical gap  : +0.008582 at state 177 ( [ -0.076923 +0.285714 +0.000000 ] spin -1 )
Dumping 'jdft.Ecomponents' ... done
IonicMinimize: Iter:   3  F: -2220.371706941730281  |grad|_K:  1.570e-04  alpha:  1.000e+00  linmin: -5.385e-01  t[s]:   4738.69

#--- Lowdin population analysis ---
# oxidation-state Cu +0.181 +0.181 +0.048 +0.044 +0.077 +0.076 +0.074 +0.076 +0.076 +0.044 +0.047
# magnetic-moments Cu -0.000 -0.000 +0.000 -0.000 -0.000 -0.000 +0.000 +0.000 -0.000 -0.000 +0.000


Computing DFT-D3 correction:
# coordination-number Cu 5.603 5.605 7.539 9.116 8.978 9.126 9.105 9.121 8.976 9.112 7.539
# diagonal-C6 Cu 175.00 175.00 175.00 175.00 175.00 175.00 175.00 175.00 175.00 175.00 175.00
EvdW_6 =   -0.066507
EvdW_8 =   -0.098970

-------- Electronic minimization -----------
	Linear fluid (dielectric constant: 78.4, screening length: 8.12261 Bohr) occupying 0.538028 of unit cell:	Completed after 10 iterations at t[s]:   4751.46
	FillingsUpdate:  mu: -0.154627843  nElectrons: 209.000000  magneticMoment: [ Abs: 0.00000  Tot: +0.00000 ]
ElecMinimize: Iter:   0  F: -2220.371569014569559  |grad|_K:  1.044e-06  alpha:  1.000e+00
	Linear fluid (dielectric constant: 78.4, screening length: 8.12261 Bohr) occupying 0.537987 of unit cell:	Completed after 18 iterations at t[s]:   4777.28
	Linear fluid (dielectric constant: 78.4, screening length: 8.12261 Bohr) occupying 0.538021 of unit cell:	Completed after 19 iterations at t[s]:   4786.73
	FillingsUpdate:  mu: -0.155399311  nElectrons: 209.000000  magneticMoment: [ Abs: 0.00000  Tot: +0.00000 ]
	SubspaceRotationAdjust: set factor to 0.735
ElecMinimize: Iter:   1  F: -2220.371609880968208  |grad|_K:  8.713e-07  alpha:  1.507e-01  linmin:  5.348e-06  t[s]:   4798.98
	Linear fluid (dielectric constant: 78.4, screening length: 8.12261 Bohr) occupying 0.538030 of unit cell:	Completed after 10 iterations at t[s]:   4810.13
	Linear fluid (dielectric constant: 78.4, screening length: 8.12261 Bohr) occupying 0.538037 of unit cell:	Completed after 10 iterations at t[s]:   4819.15
	FillingsUpdate:  mu: -0.154734106  nElectrons: 209.000000  magneticMoment: [ Abs: 0.00000  Tot: -0.00000 ]
	SubspaceRotationAdjust: set factor to 0.757
ElecMinimize: Iter:   2  F: -2220.371658442209991  |grad|_K:  7.889e-07  alpha:  2.570e-01  linmin:  2.928e-06  t[s]:   4831.36
	Linear fluid (dielectric constant: 78.4, screening length: 8.12261 Bohr) occupying 0.538044 of unit cell:	Completed after 16 iterations at t[s]:   4842.72
	Linear fluid (dielectric constant: 78.4, screening length: 8.12261 Bohr) occupying 0.538040 of unit cell:	Completed after 13 iterations at t[s]:   4851.78
	FillingsUpdate:  mu: -0.155321012  nElectrons: 209.000000  magneticMoment: [ Abs: 0.00000  Tot: -0.00000 ]
	SubspaceRotationAdjust: set factor to 0.652
ElecMinimize: Iter:   3  F: -2220.371678585375776  |grad|_K:  6.417e-07  alpha:  1.300e-01  linmin:  5.489e-07  t[s]:   4864.02
	Linear fluid (dielectric constant: 78.4, screening length: 8.12261 Bohr) occupying 0.538055 of unit cell:	Completed after 10 iterations at t[s]:   4875.22
	Linear fluid (dielectric constant: 78.4, screening length: 8.12261 Bohr) occupying 0.538056 of unit cell:	Completed after 2 iterations at t[s]:   4883.75
	FillingsUpdate:  mu: -0.155107491  nElectrons: 209.000000  magneticMoment: [ Abs: 0.00000  Tot: -0.00000 ]
	SubspaceRotationAdjust: set factor to 0.544
ElecMinimize: Iter:   4  F: -2220.371692417310896  |grad|_K:  3.644e-07  alpha:  1.349e-01  linmin: -1.484e-05  t[s]:   4896.04
	Linear fluid (dielectric constant: 78.4, screening length: 8.12261 Bohr) occupying 0.538066 of unit cell:	Completed after 10 iterations at t[s]:   4907.26
	Linear fluid (dielectric constant: 78.4, screening length: 8.12261 Bohr) occupying 0.538068 of unit cell:	Completed after 7 iterations at t[s]:   4916.06
	FillingsUpdate:  mu: -0.155080469  nElectrons: 209.000000  magneticMoment: [ Abs: 0.00000  Tot: -0.00000 ]
	SubspaceRotationAdjust: set factor to 0.514
ElecMinimize: Iter:   5  F: -2220.371697857221079  |grad|_K:  3.402e-07  alpha:  1.644e-01  linmin:  1.670e-05  t[s]:   4928.28
	Linear fluid (dielectric constant: 78.4, screening length: 8.12261 Bohr) occupying 0.538083 of unit cell:	Completed after 5 iterations at t[s]:   4939.20
	Linear fluid (dielectric constant: 78.4, screening length: 8.12261 Bohr) occupying 0.538088 of unit cell:	Completed after 2 iterations at t[s]:   4947.74
	FillingsUpdate:  mu: -0.155188746  nElectrons: 209.000000  magneticMoment: [ Abs: 0.00000  Tot: -0.00000 ]
	SubspaceRotationAdjust: set factor to 0.593
ElecMinimize: Iter:   6  F: -2220.371703926051850  |grad|_K:  2.101e-07  alpha:  2.110e-01  linmin: -9.560e-07  t[s]:   4961.10
	Linear fluid (dielectric constant: 78.4, screening length: 8.12261 Bohr) occupying 0.538102 of unit cell:	Completed after 10 iterations at t[s]:   4972.13
	Linear fluid (dielectric constant: 78.4, screening length: 8.12261 Bohr) occupying 0.538095 of unit cell:	Completed after 10 iterations at t[s]:   4980.98
	FillingsUpdate:  mu: -0.155003367  nElectrons: 209.000000  magneticMoment: [ Abs: 0.00000  Tot: -0.00000 ]
	SubspaceRotationAdjust: set factor to 0.512
ElecMinimize: Iter:   7  F: -2220.371705073151588  |grad|_K:  9.468e-08  alpha:  1.043e-01  linmin:  8.612e-06  t[s]:   4993.34
	Linear fluid (dielectric constant: 78.4, screening length: 8.12261 Bohr) occupying 0.538096 of unit cell:	Completed after 2 iterations at t[s]:   5004.06
	Linear fluid (dielectric constant: 78.4, screening length: 8.12261 Bohr) occupying 0.538099 of unit cell:	Completed after 6 iterations at t[s]:   5012.77
	FillingsUpdate:  mu: -0.154974006  nElectrons: 209.000000  magneticMoment: [ Abs: 0.00000  Tot: -0.00000 ]
	SubspaceRotationAdjust: set factor to 0.489
ElecMinimize: Iter:   8  F: -2220.371705664071669  |grad|_K:  1.057e-07  alpha:  2.664e-01  linmin:  6.966e-05  t[s]:   5025.08
	Linear fluid (dielectric constant: 78.4, screening length: 8.12261 Bohr) occupying 0.538103 of unit cell:	Completed after 7 iterations at t[s]:   5036.00
	Linear fluid (dielectric constant: 78.4, screening length: 8.12261 Bohr) occupying 0.538101 of unit cell:	Completed after 7 iterations at t[s]:   5044.74
	FillingsUpdate:  mu: -0.154958250  nElectrons: 209.000000  magneticMoment: [ Abs: 0.00000  Tot: -0.00000 ]
	SubspaceRotationAdjust: set factor to 0.455
ElecMinimize: Iter:   9  F: -2220.371705980386650  |grad|_K:  4.540e-08  alpha:  1.142e-01  linmin:  1.317e-05  t[s]:   5057.01
	Linear fluid (dielectric constant: 78.4, screening length: 8.12261 Bohr) occupying 0.538100 of unit cell:	Completed after 2 iterations at t[s]:   5067.73
	Linear fluid (dielectric constant: 78.4, screening length: 8.12261 Bohr) occupying 0.538100 of unit cell:	Completed after 2 iterations at t[s]:   5076.28
	FillingsUpdate:  mu: -0.154988486  nElectrons: 209.000000  magneticMoment: [ Abs: 0.00000  Tot: -0.00000 ]
	SubspaceRotationAdjust: set factor to 0.465
ElecMinimize: Iter:  10  F: -2220.371706075246038  |grad|_K:  3.452e-08  alpha:  1.854e-01  linmin:  8.124e-06  t[s]:   5088.47
	Linear fluid (dielectric constant: 78.4, screening length: 8.12261 Bohr) occupying 0.538099 of unit cell:	Completed after 3 iterations at t[s]:   5099.21
	Linear fluid (dielectric constant: 78.4, screening length: 8.12261 Bohr) occupying 0.538099 of unit cell:	Completed after 2 iterations at t[s]:   5107.74
	FillingsUpdate:  mu: -0.155022291  nElectrons: 209.000000  magneticMoment: [ Abs: 0.00000  Tot: -0.00000 ]
	SubspaceRotationAdjust: set factor to 0.468
ElecMinimize: Iter:  11  F: -2220.371706119432019  |grad|_K:  2.359e-08  alpha:  1.510e-01  linmin: -8.328e-05  t[s]:   5120.00
ElecMinimize: Converged (|Delta F|<1.000000e-07 for 2 iters).
Setting wave functions to eigenvectors of Hamiltonian
Converging empty states (this may take a while): |deigs|: 1.077e-07

Computing DFT-D3 correction:
# coordination-number Cu 5.603 5.605 7.539 9.116 8.978 9.126 9.105 9.121 8.976 9.112 7.539
# diagonal-C6 Cu 175.00 175.00 175.00 175.00 175.00 175.00 175.00 175.00 175.00 175.00 175.00
EvdW_6 =   -0.066507
EvdW_8 =   -0.098970
IonicMinimize: 	Wolfe criterion not satisfied: alpha: 1  (E-E0)/|gdotd0|: 0.0438739  gdotd/gdotd0: -0.966181 (taking cubic step)

Computing DFT-D3 correction:
# coordination-number Cu 5.601 5.604 7.547 9.114 8.978 9.124 9.116 9.121 8.976 9.110 7.545
# diagonal-C6 Cu 175.00 175.00 175.00 175.00 175.00 175.00 175.00 175.00 175.00 175.00 175.00
EvdW_6 =   -0.066511
EvdW_8 =   -0.098974

-------- Electronic minimization -----------
	Linear fluid (dielectric constant: 78.4, screening length: 8.12261 Bohr) occupying 0.538108 of unit cell:	Completed after 13 iterations at t[s]:   5163.21
	FillingsUpdate:  mu: -0.154475070  nElectrons: 209.000000  magneticMoment: [ Abs: 0.00000  Tot: -0.00000 ]
ElecMinimize: Iter:   0  F: -2220.371670661811550  |grad|_K:  5.620e-07  alpha:  1.000e+00
	Linear fluid (dielectric constant: 78.4, screening length: 8.12261 Bohr) occupying 0.538040 of unit cell:	Completed after 18 iterations at t[s]:   5189.03
	Linear fluid (dielectric constant: 78.4, screening length: 8.12261 Bohr) occupying 0.538099 of unit cell:	Completed after 17 iterations at t[s]:   5198.41
	FillingsUpdate:  mu: -0.155263200  nElectrons: 209.000000  magneticMoment: [ Abs: 0.00000  Tot: -0.00000 ]
	SubspaceRotationAdjust: set factor to 0.512
ElecMinimize: Iter:   1  F: -2220.371681715236264  |grad|_K:  4.367e-07  alpha:  1.405e-01  linmin:  3.419e-06  t[s]:   5210.50
	Linear fluid (dielectric constant: 78.4, screening length: 8.12261 Bohr) occupying 0.538099 of unit cell:	Completed after 9 iterations at t[s]:   5221.55
	Linear fluid (dielectric constant: 78.4, screening length: 8.12261 Bohr) occupying 0.538099 of unit cell:	Completed after 9 iterations at t[s]:   5230.50
	FillingsUpdate:  mu: -0.155001192  nElectrons: 209.000000  magneticMoment: [ Abs: 0.00000  Tot: -0.00000 ]
	SubspaceRotationAdjust: set factor to 0.587
ElecMinimize: Iter:   2  F: -2220.371694556828970  |grad|_K:  3.921e-07  alpha:  2.704e-01  linmin: -7.700e-06  t[s]:   5242.81
	Linear fluid (dielectric constant: 78.4, screening length: 8.12261 Bohr) occupying 0.538101 of unit cell:	Completed after 10 iterations at t[s]:   5253.81
	Linear fluid (dielectric constant: 78.4, screening length: 8.12261 Bohr) occupying 0.538100 of unit cell:	Completed after 7 iterations at t[s]:   5263.15
	FillingsUpdate:  mu: -0.154832228  nElectrons: 209.000000  magneticMoment: [ Abs: 0.00000  Tot: -0.00000 ]
	SubspaceRotationAdjust: set factor to 0.67
ElecMinimize: Iter:   3  F: -2220.371701025660514  |grad|_K:  3.127e-07  alpha:  1.689e-01  linmin:  8.859e-07  t[s]:   5275.49
	Linear fluid (dielectric constant: 78.4, screening length: 8.12261 Bohr) occupying 0.538097 of unit cell:	Completed after 11 iterations at t[s]:   5286.59
	Linear fluid (dielectric constant: 78.4, screening length: 8.12261 Bohr) occupying 0.538097 of unit cell:	Completed after 2 iterations at t[s]:   5295.20
	FillingsUpdate:  mu: -0.154536979  nElectrons: 209.000000  magneticMoment: [ Abs: 0.00000  Tot: -0.00000 ]
	SubspaceRotationAdjust: set factor to 0.779
ElecMinimize: Iter:   4  F: -2220.371704893104834  |grad|_K:  2.110e-07  alpha:  1.589e-01  linmin: -1.120e-06  t[s]:   5307.49
	Linear fluid (dielectric constant: 78.4, screening length: 8.12261 Bohr) occupying 0.538082 of unit cell:	Completed after 10 iterations at t[s]:   5318.75
	Linear fluid (dielectric constant: 78.4, screening length: 8.12261 Bohr) occupying 0.538077 of unit cell:	Completed after 10 iterations at t[s]:   5327.74
	FillingsUpdate:  mu: -0.155333521  nElectrons: 209.000000  magneticMoment: [ Abs: 0.00000  Tot: -0.00000 ]
	SubspaceRotationAdjust: set factor to 0.672
ElecMinimize: Iter:   5  F: -2220.371707288046309  |grad|_K:  2.441e-07  alpha:  2.158e-01  linmin: -2.378e-05  t[s]:   5339.99
	Linear fluid (dielectric constant: 78.4, screening length: 8.12261 Bohr) occupying 0.538070 of unit cell:	Completed after 13 iterations at t[s]:   5351.23
	Linear fluid (dielectric constant: 78.4, screening length: 8.12261 Bohr) occupying 0.538072 of unit cell:	Completed after 10 iterations at t[s]:   5360.19
	FillingsUpdate:  mu: -0.154815988  nElectrons: 209.000000  magneticMoment: [ Abs: 0.00000  Tot: -0.00000 ]
	SubspaceRotationAdjust: set factor to 0.435
ElecMinimize: Iter:   6  F: -2220.371709545183876  |grad|_K:  1.334e-07  alpha:  1.517e-01  linmin:  7.352e-07  t[s]:   5372.45
	Linear fluid (dielectric constant: 78.4, screening length: 8.12261 Bohr) occupying 0.538068 of unit cell:	Completed after 9 iterations at t[s]:   5383.44
	Linear fluid (dielectric constant: 78.4, screening length: 8.12261 Bohr) occupying 0.538070 of unit cell:	Completed after 7 iterations at t[s]:   5392.22
	FillingsUpdate:  mu: -0.154855203  nElectrons: 209.000000  magneticMoment: [ Abs: 0.00000  Tot: -0.00000 ]
	SubspaceRotationAdjust: set factor to 0.384
ElecMinimize: Iter:   7  F: -2220.371709966429989  |grad|_K:  6.884e-08  alpha:  9.508e-02  linmin:  1.302e-05  t[s]:   5404.52
	Linear fluid (dielectric constant: 78.4, screening length: 8.12261 Bohr) occupying 0.538069 of unit cell:	Completed after 2 iterations at t[s]:   5415.29
	Linear fluid (dielectric constant: 78.4, screening length: 8.12261 Bohr) occupying 0.538066 of unit cell:	Completed after 6 iterations at t[s]:   5424.04
	FillingsUpdate:  mu: -0.154944723  nElectrons: 209.000000  magneticMoment: [ Abs: 0.00000  Tot: -0.00000 ]
	SubspaceRotationAdjust: set factor to 0.385
ElecMinimize: Iter:   8  F: -2220.371710294015429  |grad|_K:  6.882e-08  alpha:  2.768e-01  linmin: -4.954e-05  t[s]:   5436.23
	Linear fluid (dielectric constant: 78.4, screening length: 8.12261 Bohr) occupying 0.538065 of unit cell:	Completed after 2 iterations at t[s]:   5446.98
	Linear fluid (dielectric constant: 78.4, screening length: 8.12261 Bohr) occupying 0.538066 of unit cell:	Completed after 2 iterations at t[s]:   5455.51
	FillingsUpdate:  mu: -0.154928765  nElectrons: 209.000000  magneticMoment: [ Abs: 0.00000  Tot: -0.00000 ]
	SubspaceRotationAdjust: set factor to 0.413
ElecMinimize: Iter:   9  F: -2220.371710448052909  |grad|_K:  3.427e-08  alpha:  1.300e-01  linmin:  1.883e-05  t[s]:   5467.85
	Linear fluid (dielectric constant: 78.4, screening length: 8.12261 Bohr) occupying 0.538066 of unit cell:	Completed after 2 iterations at t[s]:   5478.73
	Linear fluid (dielectric constant: 78.4, screening length: 8.12261 Bohr) occupying 0.538066 of unit cell:	Completed after 2 iterations at t[s]:   5487.28
	FillingsUpdate:  mu: -0.154893292  nElectrons: 209.000000  magneticMoment: [ Abs: 0.00000  Tot: -0.00000 ]
	SubspaceRotationAdjust: set factor to 0.403
ElecMinimize: Iter:  10  F: -2220.371710497610820  |grad|_K:  2.452e-08  alpha:  1.710e-01  linmin:  1.541e-04  t[s]:   5499.53
	Linear fluid (dielectric constant: 78.4, screening length: 8.12261 Bohr) occupying 0.538066 of unit cell:	Completed after 2 iterations at t[s]:   5510.28
	Linear fluid (dielectric constant: 78.4, screening length: 8.12261 Bohr) occupying 0.538066 of unit cell:	Completed after 1 iterations at t[s]:   5518.81
	FillingsUpdate:  mu: -0.154873416  nElectrons: 209.000000  magneticMoment: [ Abs: 0.00000  Tot: -0.00000 ]
	SubspaceRotationAdjust: set factor to 0.42
ElecMinimize: Iter:  11  F: -2220.371710518041709  |grad|_K:  1.880e-08  alpha:  1.388e-01  linmin:  6.744e-05  t[s]:   5531.20
ElecMinimize: Converged (|Delta F|<1.000000e-07 for 2 iters).
Setting wave functions to eigenvectors of Hamiltonian
Converging empty states (this may take a while): |deigs|: 1.705e-08

Computing DFT-D3 correction:
# coordination-number Cu 5.601 5.604 7.547 9.114 8.978 9.124 9.116 9.121 8.976 9.110 7.545
# diagonal-C6 Cu 175.00 175.00 175.00 175.00 175.00 175.00 175.00 175.00 175.00 175.00 175.00
EvdW_6 =   -0.066511
EvdW_8 =   -0.098974

# Ionic positions in cartesian coordinates:
ion Cu   0.001670516655612  -0.004476475307262  21.261265411558409 1
ion Cu  -0.002331374934754   4.315638869566119   1.097479804896384 1
ion Cu   2.381796480299320   0.713274942842198   2.921162330285428 1
ion Cu   2.382489372752466   5.058105142454097   5.065161431081516 1
ion Cu   0.002772261845673   1.431816383273260   7.100795635978654 1
ion Cu   0.000026772060510   5.742252883721266   9.138539606929136 1
ion Cu   2.383380066412446   2.155988194501972  11.179533111705402 1
ion Cu   2.382869029782506   6.473871635341023  13.215552774774736 1
ion Cu  -0.002001928069516   2.879953508477624  15.258377537280865 1
ion Cu   0.000859364952727   7.157745487918508  17.290976667771371 1
ion Cu   2.385027438243012   3.598582427211202  19.437350687738125 1

# Forces in Cartesian coordinates:
force Cu   0.000031853962668  -0.000078973197245  -0.000091480145457 1
force Cu  -0.000027805499042   0.000070874600420  -0.000032753398462 1
force Cu  -0.000013778190838   0.000094140972116   0.000070360251324 1
force Cu  -0.000010975552749   0.000018957379666   0.000067615125993 1
force Cu   0.000000634112269   0.000182448531887  -0.000057884380865 1
force Cu   0.000003420222314   0.000087102959184   0.000212146256908 1
force Cu   0.000005188512832   0.000002626526848   0.000063094781889 1
force Cu   0.000001245766017  -0.000085048998629  -0.000079405201543 1
force Cu  -0.000000136524122  -0.000165945091214   0.000121014319217 1
force Cu   0.000014674422584  -0.000017844461579  -0.000062676258893 1
force Cu   0.000016895855926  -0.000083075931294  -0.000154931310639 1

# Energy components:
   A_diel =       -0.0003891800760660
   Eewald =    16805.5567901251815783
       EH =    18837.2086117730141268
     Eloc =   -38279.9289944646661752
      Enl =      402.8514008388583534
     EvdW =       -0.1654845545068046
      Exc =     -213.4733963366444982
 Exc_core =        0.5166797532647043
       KE =      227.0634033595754318
-------------------------------------
     Etot =    -2220.3713786859998436
       TS =        0.0003318320416783
-------------------------------------
        F =    -2220.3717105180417093


Dumping 'jdft.fillings' ... done
Dumping 'jdft.wfns' ... done
Dumping 'jdft.fluidState' ... done
Dumping 'jdft.ionpos' ... done
Dumping 'jdft.lattice' ... done
Dumping 'jdft.eigenvals' ... done
Dumping 'jdft.eigStats' ... 
	eMin: -4.294956 at state 91 ( [ +0.000000 +0.000000 +0.000000 ] spin -1 )
	HOMO: -0.154942 at state 84 ( [ -0.076923 +0.000000 +0.000000 ] spin 1 )
	mu  : -0.154873
	LUMO: -0.153784 at state 110 ( [ +0.153846 -0.285714 +0.000000 ] spin -1 )
	eMax: +0.223810 at state 43 ( [ +0.461538 +0.142857 +0.000000 ] spin 1 )
	HOMO-LUMO gap: +0.001159
	Optical gap  : +0.008511 at state 12 ( [ +0.076923 -0.285714 +0.000000 ] spin 1 )
Dumping 'jdft.Ecomponents' ... done
IonicMinimize: Iter:   4  F: -2220.371710518041709  |grad|_K:  8.272e-05  alpha:  4.625e-01  linmin: -7.029e-02  t[s]:   5562.91
IonicMinimize: Converged (|grad|_K<1.000000e-04).

#--- Lowdin population analysis ---
# oxidation-state Cu +0.180 +0.180 +0.047 +0.044 +0.077 +0.076 +0.075 +0.076 +0.077 +0.044 +0.048
# magnetic-moments Cu +0.000 +0.000 -0.000 -0.000 +0.000 -0.000 +0.000 +0.000 +0.000 +0.000 -0.000


Dumping 'jdft.n_up' ... done
Dumping 'jdft.n_dn' ... done
Dumping 'jdft.tau_up' ... done
Dumping 'jdft.tau_dn' ... done
Dumping 'jdft.eigenvals' ... done
Dumping 'jdft.eigStats' ... 
	eMin: -4.294956 at state 91 ( [ +0.000000 +0.000000 +0.000000 ] spin -1 )
	HOMO: -0.154942 at state 84 ( [ -0.076923 +0.000000 +0.000000 ] spin 1 )
	mu  : -0.154873
	LUMO: -0.153784 at state 110 ( [ +0.153846 -0.285714 +0.000000 ] spin -1 )
	eMax: +0.223810 at state 43 ( [ +0.461538 +0.142857 +0.000000 ] spin 1 )
	HOMO-LUMO gap: +0.001159
	Optical gap  : +0.008511 at state 12 ( [ +0.076923 -0.285714 +0.000000 ] spin 1 )
Dumping 'jdft.kPts' ... done
Dumping 'jdft.dosUp' ... done.
Dumping 'jdft.dosDn' ... done.
End date and time: Mon Dec  6 16:57:28 2021  (Duration: 0-1:33:06.05)
Done!
