
*************** JDFTx 1.6.0  ***************

Start date and time: Thu Feb 17 02:28:17 2022
Executable /projects/musgravc/apps/jdftx-1.6.1/build/jdftx with command-line: -i in
Running on hosts (process indices):  shas0312.rc.int.colorado.edu (0-23)
Divided in process groups (process indices):  0 (0)  1 (1)  2 (2)  3 (3)  4 (4)  5 (5)  6 (6)  7 (7)  8 (8)  9 (9)  10 (10)  11 (11)  12 (12)  13 (13)  14 (14)  15 (15)  16 (16)  17 (17)  18 (18)  19 (19)  20 (20)  21 (21)  22 (22)  23 (23)
Resource initialization completed at t[s]:      0.00
Run totals: 24 processes, 24 threads, 0 GPUs


Input parsed successfully to the following command list (including defaults):

basis kpoint-dependent
converge-empty-states yes
coords-type Cartesian
core-overlap-check none
coulomb-interaction Periodic
davidson-band-ratio 1.1
density-of-states Etol 1.000000e-06 Esigma 1.000000e-03 \
		Complete \
	Total \
	OrthoOrbital Cu 1   s \
	OrthoOrbital Cu 1   p \
	OrthoOrbital Cu 1   px \
	OrthoOrbital Cu 1   py \
	OrthoOrbital Cu 1   pz \
	OrthoOrbital Cu 1   d \
	OrthoOrbital Cu 1   dxy \
	OrthoOrbital Cu 1   dyz \
	OrthoOrbital Cu 1   dz2 \
	OrthoOrbital Cu 1   dxz \
	OrthoOrbital Cu 1   dx2-y2 \
	OrthoOrbital Cu 2   s \
	OrthoOrbital Cu 2   p \
	OrthoOrbital Cu 2   px \
	OrthoOrbital Cu 2   py \
	OrthoOrbital Cu 2   pz \
	OrthoOrbital Cu 2   d \
	OrthoOrbital Cu 2   dxy \
	OrthoOrbital Cu 2   dyz \
	OrthoOrbital Cu 2   dz2 \
	OrthoOrbital Cu 2   dxz \
	OrthoOrbital Cu 2   dx2-y2 \
	OrthoOrbital Cu 3   s \
	OrthoOrbital Cu 3   p \
	OrthoOrbital Cu 3   px \
	OrthoOrbital Cu 3   py \
	OrthoOrbital Cu 3   pz \
	OrthoOrbital Cu 3   d \
	OrthoOrbital Cu 3   dxy \
	OrthoOrbital Cu 3   dyz \
	OrthoOrbital Cu 3   dz2 \
	OrthoOrbital Cu 3   dxz \
	OrthoOrbital Cu 3   dx2-y2 \
	OrthoOrbital Cu 4   s \
	OrthoOrbital Cu 4   p \
	OrthoOrbital Cu 4   px \
	OrthoOrbital Cu 4   py \
	OrthoOrbital Cu 4   pz \
	OrthoOrbital Cu 4   d \
	OrthoOrbital Cu 4   dxy \
	OrthoOrbital Cu 4   dyz \
	OrthoOrbital Cu 4   dz2 \
	OrthoOrbital Cu 4   dxz \
	OrthoOrbital Cu 4   dx2-y2 \
	OrthoOrbital Cu 5   s \
	OrthoOrbital Cu 5   p \
	OrthoOrbital Cu 5   px \
	OrthoOrbital Cu 5   py \
	OrthoOrbital Cu 5   pz \
	OrthoOrbital Cu 5   d \
	OrthoOrbital Cu 5   dxy \
	OrthoOrbital Cu 5   dyz \
	OrthoOrbital Cu 5   dz2 \
	OrthoOrbital Cu 5   dxz \
	OrthoOrbital Cu 5   dx2-y2 \
	OrthoOrbital Cu 6   s \
	OrthoOrbital Cu 6   p \
	OrthoOrbital Cu 6   px \
	OrthoOrbital Cu 6   py \
	OrthoOrbital Cu 6   pz \
	OrthoOrbital Cu 6   d \
	OrthoOrbital Cu 6   dxy \
	OrthoOrbital Cu 6   dyz \
	OrthoOrbital Cu 6   dz2 \
	OrthoOrbital Cu 6   dxz \
	OrthoOrbital Cu 6   dx2-y2 \
	OrthoOrbital Cu 7   s \
	OrthoOrbital Cu 7   p \
	OrthoOrbital Cu 7   px \
	OrthoOrbital Cu 7   py \
	OrthoOrbital Cu 7   pz \
	OrthoOrbital Cu 7   d \
	OrthoOrbital Cu 7   dxy \
	OrthoOrbital Cu 7   dyz \
	OrthoOrbital Cu 7   dz2 \
	OrthoOrbital Cu 7   dxz \
	OrthoOrbital Cu 7   dx2-y2 \
	OrthoOrbital Cu 8   s \
	OrthoOrbital Cu 8   p \
	OrthoOrbital Cu 8   px \
	OrthoOrbital Cu 8   py \
	OrthoOrbital Cu 8   pz \
	OrthoOrbital Cu 8   d \
	OrthoOrbital Cu 8   dxy \
	OrthoOrbital Cu 8   dyz \
	OrthoOrbital Cu 8   dz2 \
	OrthoOrbital Cu 8   dxz \
	OrthoOrbital Cu 8   dx2-y2 \
	OrthoOrbital Cu 9   s \
	OrthoOrbital Cu 9   p \
	OrthoOrbital Cu 9   px \
	OrthoOrbital Cu 9   py \
	OrthoOrbital Cu 9   pz \
	OrthoOrbital Cu 9   d \
	OrthoOrbital Cu 9   dxy \
	OrthoOrbital Cu 9   dyz \
	OrthoOrbital Cu 9   dz2 \
	OrthoOrbital Cu 9   dxz \
	OrthoOrbital Cu 9   dx2-y2 \
	OrthoOrbital Cu 10   s \
	OrthoOrbital Cu 10   p \
	OrthoOrbital Cu 10   px \
	OrthoOrbital Cu 10   py \
	OrthoOrbital Cu 10   pz \
	OrthoOrbital Cu 10   d \
	OrthoOrbital Cu 10   dxy \
	OrthoOrbital Cu 10   dyz \
	OrthoOrbital Cu 10   dz2 \
	OrthoOrbital Cu 10   dxz \
	OrthoOrbital Cu 10   dx2-y2 \
	OrthoOrbital Cu 11   s \
	OrthoOrbital Cu 11   p \
	OrthoOrbital Cu 11   px \
	OrthoOrbital Cu 11   py \
	OrthoOrbital Cu 11   pz \
	OrthoOrbital Cu 11   d \
	OrthoOrbital Cu 11   dxy \
	OrthoOrbital Cu 11   dyz \
	OrthoOrbital Cu 11   dz2 \
	OrthoOrbital Cu 11   dxz \
	OrthoOrbital Cu 11   dx2-y2 \
	OrthoOrbital Cu 12   s \
	OrthoOrbital Cu 12   p \
	OrthoOrbital Cu 12   px \
	OrthoOrbital Cu 12   py \
	OrthoOrbital Cu 12   pz \
	OrthoOrbital Cu 12   d \
	OrthoOrbital Cu 12   dxy \
	OrthoOrbital Cu 12   dyz \
	OrthoOrbital Cu 12   dz2 \
	OrthoOrbital Cu 12   dxz \
	OrthoOrbital Cu 12   dx2-y2 \
	OrthoOrbital Cu 13   s \
	OrthoOrbital Cu 13   p \
	OrthoOrbital Cu 13   px \
	OrthoOrbital Cu 13   py \
	OrthoOrbital Cu 13   pz \
	OrthoOrbital Cu 13   d \
	OrthoOrbital Cu 13   dxy \
	OrthoOrbital Cu 13   dyz \
	OrthoOrbital Cu 13   dz2 \
	OrthoOrbital Cu 13   dxz \
	OrthoOrbital Cu 13   dx2-y2 \
	OrthoOrbital Cu 14   s \
	OrthoOrbital Cu 14   p \
	OrthoOrbital Cu 14   px \
	OrthoOrbital Cu 14   py \
	OrthoOrbital Cu 14   pz \
	OrthoOrbital Cu 14   d \
	OrthoOrbital Cu 14   dxy \
	OrthoOrbital Cu 14   dyz \
	OrthoOrbital Cu 14   dz2 \
	OrthoOrbital Cu 14   dxz \
	OrthoOrbital Cu 14   dx2-y2 \
	OrthoOrbital Cu 15   s \
	OrthoOrbital Cu 15   p \
	OrthoOrbital Cu 15   px \
	OrthoOrbital Cu 15   py \
	OrthoOrbital Cu 15   pz \
	OrthoOrbital Cu 15   d \
	OrthoOrbital Cu 15   dxy \
	OrthoOrbital Cu 15   dyz \
	OrthoOrbital Cu 15   dz2 \
	OrthoOrbital Cu 15   dxz \
	OrthoOrbital Cu 15   dx2-y2 \
	OrthoOrbital Cu 16   s \
	OrthoOrbital Cu 16   p \
	OrthoOrbital Cu 16   px \
	OrthoOrbital Cu 16   py \
	OrthoOrbital Cu 16   pz \
	OrthoOrbital Cu 16   d \
	OrthoOrbital Cu 16   dxy \
	OrthoOrbital Cu 16   dyz \
	OrthoOrbital Cu 16   dz2 \
	OrthoOrbital Cu 16   dxz \
	OrthoOrbital Cu 16   dx2-y2 \
	OrthoOrbital Cu 17   s \
	OrthoOrbital Cu 17   p \
	OrthoOrbital Cu 17   px \
	OrthoOrbital Cu 17   py \
	OrthoOrbital Cu 17   pz \
	OrthoOrbital Cu 17   d \
	OrthoOrbital Cu 17   dxy \
	OrthoOrbital Cu 17   dyz \
	OrthoOrbital Cu 17   dz2 \
	OrthoOrbital Cu 17   dxz \
	OrthoOrbital Cu 17   dx2-y2 \
	OrthoOrbital Cu 18   s \
	OrthoOrbital Cu 18   p \
	OrthoOrbital Cu 18   px \
	OrthoOrbital Cu 18   py \
	OrthoOrbital Cu 18   pz \
	OrthoOrbital Cu 18   d \
	OrthoOrbital Cu 18   dxy \
	OrthoOrbital Cu 18   dyz \
	OrthoOrbital Cu 18   dz2 \
	OrthoOrbital Cu 18   dxz \
	OrthoOrbital Cu 18   dx2-y2 \
	OrthoOrbital Cu 19   s \
	OrthoOrbital Cu 19   p \
	OrthoOrbital Cu 19   px \
	OrthoOrbital Cu 19   py \
	OrthoOrbital Cu 19   pz \
	OrthoOrbital Cu 19   d \
	OrthoOrbital Cu 19   dxy \
	OrthoOrbital Cu 19   dyz \
	OrthoOrbital Cu 19   dz2 \
	OrthoOrbital Cu 19   dxz \
	OrthoOrbital Cu 19   dx2-y2 \
	OrthoOrbital Cu 20   s \
	OrthoOrbital Cu 20   p \
	OrthoOrbital Cu 20   px \
	OrthoOrbital Cu 20   py \
	OrthoOrbital Cu 20   pz \
	OrthoOrbital Cu 20   d \
	OrthoOrbital Cu 20   dxy \
	OrthoOrbital Cu 20   dyz \
	OrthoOrbital Cu 20   dz2 \
	OrthoOrbital Cu 20   dxz \
	OrthoOrbital Cu 20   dx2-y2 \
	OrthoOrbital Cu 21   s \
	OrthoOrbital Cu 21   p \
	OrthoOrbital Cu 21   px \
	OrthoOrbital Cu 21   py \
	OrthoOrbital Cu 21   pz \
	OrthoOrbital Cu 21   d \
	OrthoOrbital Cu 21   dxy \
	OrthoOrbital Cu 21   dyz \
	OrthoOrbital Cu 21   dz2 \
	OrthoOrbital Cu 21   dxz \
	OrthoOrbital Cu 21   dx2-y2 \
	OrthoOrbital Cu 22   s \
	OrthoOrbital Cu 22   p \
	OrthoOrbital Cu 22   px \
	OrthoOrbital Cu 22   py \
	OrthoOrbital Cu 22   pz \
	OrthoOrbital Cu 22   d \
	OrthoOrbital Cu 22   dxy \
	OrthoOrbital Cu 22   dyz \
	OrthoOrbital Cu 22   dz2 \
	OrthoOrbital Cu 22   dxz \
	OrthoOrbital Cu 22   dx2-y2 \
	OrthoOrbital Cu 23   s \
	OrthoOrbital Cu 23   p \
	OrthoOrbital Cu 23   px \
	OrthoOrbital Cu 23   py \
	OrthoOrbital Cu 23   pz \
	OrthoOrbital Cu 23   d \
	OrthoOrbital Cu 23   dxy \
	OrthoOrbital Cu 23   dyz \
	OrthoOrbital Cu 23   dz2 \
	OrthoOrbital Cu 23   dxz \
	OrthoOrbital Cu 23   dx2-y2 \
	OrthoOrbital Cu 24   s \
	OrthoOrbital Cu 24   p \
	OrthoOrbital Cu 24   px \
	OrthoOrbital Cu 24   py \
	OrthoOrbital Cu 24   pz \
	OrthoOrbital Cu 24   d \
	OrthoOrbital Cu 24   dxy \
	OrthoOrbital Cu 24   dyz \
	OrthoOrbital Cu 24   dz2 \
	OrthoOrbital Cu 24   dxz \
	OrthoOrbital Cu 24   dx2-y2 \
	OrthoOrbital Cu 25   s \
	OrthoOrbital Cu 25   p \
	OrthoOrbital Cu 25   px \
	OrthoOrbital Cu 25   py \
	OrthoOrbital Cu 25   pz \
	OrthoOrbital Cu 25   d \
	OrthoOrbital Cu 25   dxy \
	OrthoOrbital Cu 25   dyz \
	OrthoOrbital Cu 25   dz2 \
	OrthoOrbital Cu 25   dxz \
	OrthoOrbital Cu 25   dx2-y2 \
	OrthoOrbital Cu 26   s \
	OrthoOrbital Cu 26   p \
	OrthoOrbital Cu 26   px \
	OrthoOrbital Cu 26   py \
	OrthoOrbital Cu 26   pz \
	OrthoOrbital Cu 26   d \
	OrthoOrbital Cu 26   dxy \
	OrthoOrbital Cu 26   dyz \
	OrthoOrbital Cu 26   dz2 \
	OrthoOrbital Cu 26   dxz \
	OrthoOrbital Cu 26   dx2-y2 \
	OrthoOrbital Cu 27   s \
	OrthoOrbital Cu 27   p \
	OrthoOrbital Cu 27   px \
	OrthoOrbital Cu 27   py \
	OrthoOrbital Cu 27   pz \
	OrthoOrbital Cu 27   d \
	OrthoOrbital Cu 27   dxy \
	OrthoOrbital Cu 27   dyz \
	OrthoOrbital Cu 27   dz2 \
	OrthoOrbital Cu 27   dxz \
	OrthoOrbital Cu 27   dx2-y2 \
	OrthoOrbital Cu 28   s \
	OrthoOrbital Cu 28   p \
	OrthoOrbital Cu 28   px \
	OrthoOrbital Cu 28   py \
	OrthoOrbital Cu 28   pz \
	OrthoOrbital Cu 28   d \
	OrthoOrbital Cu 28   dxy \
	OrthoOrbital Cu 28   dyz \
	OrthoOrbital Cu 28   dz2 \
	OrthoOrbital Cu 28   dxz \
	OrthoOrbital Cu 28   dx2-y2 \
	OrthoOrbital Cu 29   s \
	OrthoOrbital Cu 29   p \
	OrthoOrbital Cu 29   px \
	OrthoOrbital Cu 29   py \
	OrthoOrbital Cu 29   pz \
	OrthoOrbital Cu 29   d \
	OrthoOrbital Cu 29   dxy \
	OrthoOrbital Cu 29   dyz \
	OrthoOrbital Cu 29   dz2 \
	OrthoOrbital Cu 29   dxz \
	OrthoOrbital Cu 29   dx2-y2 \
	OrthoOrbital Cu 30   s \
	OrthoOrbital Cu 30   p \
	OrthoOrbital Cu 30   px \
	OrthoOrbital Cu 30   py \
	OrthoOrbital Cu 30   pz \
	OrthoOrbital Cu 30   d \
	OrthoOrbital Cu 30   dxy \
	OrthoOrbital Cu 30   dyz \
	OrthoOrbital Cu 30   dz2 \
	OrthoOrbital Cu 30   dxz \
	OrthoOrbital Cu 30   dx2-y2 \
	OrthoOrbital Cu 31   s \
	OrthoOrbital Cu 31   p \
	OrthoOrbital Cu 31   px \
	OrthoOrbital Cu 31   py \
	OrthoOrbital Cu 31   pz \
	OrthoOrbital Cu 31   d \
	OrthoOrbital Cu 31   dxy \
	OrthoOrbital Cu 31   dyz \
	OrthoOrbital Cu 31   dz2 \
	OrthoOrbital Cu 31   dxz \
	OrthoOrbital Cu 31   dx2-y2 \
	OrthoOrbital Cu 32   s \
	OrthoOrbital Cu 32   p \
	OrthoOrbital Cu 32   px \
	OrthoOrbital Cu 32   py \
	OrthoOrbital Cu 32   pz \
	OrthoOrbital Cu 32   d \
	OrthoOrbital Cu 32   dxy \
	OrthoOrbital Cu 32   dyz \
	OrthoOrbital Cu 32   dz2 \
	OrthoOrbital Cu 32   dxz \
	OrthoOrbital Cu 32   dx2-y2 \
	OrthoOrbital Cu 33   s \
	OrthoOrbital Cu 33   p \
	OrthoOrbital Cu 33   px \
	OrthoOrbital Cu 33   py \
	OrthoOrbital Cu 33   pz \
	OrthoOrbital Cu 33   d \
	OrthoOrbital Cu 33   dxy \
	OrthoOrbital Cu 33   dyz \
	OrthoOrbital Cu 33   dz2 \
	OrthoOrbital Cu 33   dxz \
	OrthoOrbital Cu 33   dx2-y2 \
	OrthoOrbital Cu 34   s \
	OrthoOrbital Cu 34   p \
	OrthoOrbital Cu 34   px \
	OrthoOrbital Cu 34   py \
	OrthoOrbital Cu 34   pz \
	OrthoOrbital Cu 34   d \
	OrthoOrbital Cu 34   dxy \
	OrthoOrbital Cu 34   dyz \
	OrthoOrbital Cu 34   dz2 \
	OrthoOrbital Cu 34   dxz \
	OrthoOrbital Cu 34   dx2-y2 \
	OrthoOrbital Cu 35   s \
	OrthoOrbital Cu 35   p \
	OrthoOrbital Cu 35   px \
	OrthoOrbital Cu 35   py \
	OrthoOrbital Cu 35   pz \
	OrthoOrbital Cu 35   d \
	OrthoOrbital Cu 35   dxy \
	OrthoOrbital Cu 35   dyz \
	OrthoOrbital Cu 35   dz2 \
	OrthoOrbital Cu 35   dxz \
	OrthoOrbital Cu 35   dx2-y2 \
	OrthoOrbital Cu 36   s \
	OrthoOrbital Cu 36   p \
	OrthoOrbital Cu 36   px \
	OrthoOrbital Cu 36   py \
	OrthoOrbital Cu 36   pz \
	OrthoOrbital Cu 36   d \
	OrthoOrbital Cu 36   dxy \
	OrthoOrbital Cu 36   dyz \
	OrthoOrbital Cu 36   dz2 \
	OrthoOrbital Cu 36   dxz \
	OrthoOrbital Cu 36   dx2-y2 \
	OrthoOrbital Cu 37   s \
	OrthoOrbital Cu 37   p \
	OrthoOrbital Cu 37   px \
	OrthoOrbital Cu 37   py \
	OrthoOrbital Cu 37   pz \
	OrthoOrbital Cu 37   d \
	OrthoOrbital Cu 37   dxy \
	OrthoOrbital Cu 37   dyz \
	OrthoOrbital Cu 37   dz2 \
	OrthoOrbital Cu 37   dxz \
	OrthoOrbital Cu 37   dx2-y2 \
	OrthoOrbital Cu 38   s \
	OrthoOrbital Cu 38   p \
	OrthoOrbital Cu 38   px \
	OrthoOrbital Cu 38   py \
	OrthoOrbital Cu 38   pz \
	OrthoOrbital Cu 38   d \
	OrthoOrbital Cu 38   dxy \
	OrthoOrbital Cu 38   dyz \
	OrthoOrbital Cu 38   dz2 \
	OrthoOrbital Cu 38   dxz \
	OrthoOrbital Cu 38   dx2-y2 \
	OrthoOrbital Cu 39   s \
	OrthoOrbital Cu 39   p \
	OrthoOrbital Cu 39   px \
	OrthoOrbital Cu 39   py \
	OrthoOrbital Cu 39   pz \
	OrthoOrbital Cu 39   d \
	OrthoOrbital Cu 39   dxy \
	OrthoOrbital Cu 39   dyz \
	OrthoOrbital Cu 39   dz2 \
	OrthoOrbital Cu 39   dxz \
	OrthoOrbital Cu 39   dx2-y2 \
	OrthoOrbital Cu 40   s \
	OrthoOrbital Cu 40   p \
	OrthoOrbital Cu 40   px \
	OrthoOrbital Cu 40   py \
	OrthoOrbital Cu 40   pz \
	OrthoOrbital Cu 40   d \
	OrthoOrbital Cu 40   dxy \
	OrthoOrbital Cu 40   dyz \
	OrthoOrbital Cu 40   dz2 \
	OrthoOrbital Cu 40   dxz \
	OrthoOrbital Cu 40   dx2-y2 \
	OrthoOrbital C 1   s \
	OrthoOrbital C 1   p \
	OrthoOrbital C 1   px \
	OrthoOrbital C 1   py \
	OrthoOrbital C 1   pz \
	OrthoOrbital O 1   s \
	OrthoOrbital O 1   p \
	OrthoOrbital O 1   px \
	OrthoOrbital O 1   py \
	OrthoOrbital O 1   pz
dump End ElecDensity KEdensity BandEigs EigStats RhoAtom DOS Kpoints
dump Ionic State IonicPositions Lattice EigStats Ecomponents
dump 
dump 
dump 
dump 
dump 
dump 
dump 
dump 
dump-name jdft.$VAR
elec-cutoff 20
elec-eigen-algo Davidson
elec-ex-corr gga-PBE
elec-initial-magnetization 0.000000 no
elec-n-bands 462
elec-smearing Fermi 0.001
electronic-minimize  \
	dirUpdateScheme      FletcherReeves \
	linminMethod         DirUpdateRecommended \
	nIterations          100 \
	history              15 \
	knormThreshold       0 \
	energyDiffThreshold  1e-07 \
	nEnergyDiff          2 \
	alphaTstart          1 \
	alphaTmin            1e-10 \
	updateTestStepSize   yes \
	alphaTreduceFactor   0.1 \
	alphaTincreaseFactor 3 \
	nAlphaAdjustMax      3 \
	wolfeEnergy          0.0001 \
	wolfeGradient        0.9 \
	fdTest               no
exchange-regularization WignerSeitzTruncated
fluid LinearPCM 298.000000 1.013250
fluid-anion F- 0.5 MeanFieldLJ \
	epsBulk 1 \
	pMol 0 \
	epsInf 1 \
	Pvap 0 \
	sigmaBulk 0 \
	Rvdw 2.24877 \
	Res 0 \
	tauNuc 343133
fluid-cation Na+ 0.5 MeanFieldLJ \
	epsBulk 1 \
	pMol 0 \
	epsInf 1 \
	Pvap 0 \
	sigmaBulk 0 \
	Rvdw 2.19208 \
	Res 0 \
	tauNuc 343133
fluid-ex-corr lda-TF lda-PZ
fluid-gummel-loop 10 1.000000e-05
fluid-minimize  \
	dirUpdateScheme      PolakRibiere \
	linminMethod         DirUpdateRecommended \
	nIterations          400 \
	history              15 \
	knormThreshold       1e-11 \
	energyDiffThreshold  0 \
	nEnergyDiff          2 \
	alphaTstart          1 \
	alphaTmin            1e-10 \
	updateTestStepSize   yes \
	alphaTreduceFactor   0.1 \
	alphaTincreaseFactor 3 \
	nAlphaAdjustMax      6 \
	wolfeEnergy          0.0001 \
	wolfeGradient        0.9 \
	fdTest               no
fluid-solvent H2O 55.338 ScalarEOS \
	epsBulk 78.4 \
	pMol 0.92466 \
	epsInf 1.77 \
	Pvap 1.06736e-10 \
	sigmaBulk 4.62e-05 \
	Rvdw 2.61727 \
	Res 1.42 \
	tauNuc 343133 \
	poleEl 15 7 1
forces-output-coords Positions
ion Cu   3.374454999999999   1.518659000000000  11.420712999999997 0
ion Cu   0.003943000000000   9.055351000000002  11.420712999999997 0
ion Cu  10.115479000000001   1.518659000000000  11.420712999999997 0
ion Cu   6.744966999999997   9.055351000000002  11.420712999999997 0
ion Cu   0.000344000000000   2.995850000000000   8.272439999999998 0
ion Cu  -3.370168000000001  10.532543000000000   8.272439999999998 0
ion Cu   6.741367000000000   2.995850000000000   8.272439999999998 0
ion Cu   3.370855999999998  10.532543000000000   8.272439999999998 0
ion Cu   3.367713999999999   4.556338000000000   5.270771000000000 0
ion Cu  -0.002791000000002  12.093015000000001   5.270771000000000 0
ion Cu  10.108750999999998   4.556338000000000   5.270771000000000 0
ion Cu   6.738232999999997  12.093015000000001   5.270771000000000 0
ion Cu  -0.002959000000001   6.045498000000001   2.187299000000000 0
ion Cu  -3.373471000000001  13.582190000000002   2.187299000000000 0
ion Cu   6.738077999999999   6.045498000000001   2.187299000000000 0
ion Cu   3.367565999999998  13.582190000000002   2.187299000000000 0
ion Cu   6.744669999999997  15.039877000000001  14.212244000000000 0
ion Cu  10.115181999999999   7.503185000000001  14.212244000000000 0
ion Cu   0.003646999999998  15.039877000000001  14.212244000000000 0
ion Cu   3.374158999999998   7.503185000000001  14.212244000000000 0
ion Cu   3.373288999999999   5.995801000000001   9.801515000000000 0
ion Cu   0.002770999999998  13.532508999999999   9.801515000000000 0
ion Cu  10.114312999999997   5.995801000000001   9.801515000000000 0
ion Cu   6.743807999999997  13.532508999999999   9.801515000000000 0
ion Cu   3.370235000000000   0.020545000000000   6.798760999999999 0
ion Cu  -0.000276000000001   7.557238000000001   6.798760999999999 0
ion Cu  10.111258999999999   0.020545000000000   6.798760999999999 0
ion Cu   6.740746999999999   7.557238000000001   6.798760999999999 0
ion Cu  -0.004564000000000   1.496471000000000   3.652749000000000 0
ion Cu  -3.375075000000001   9.033163000000002   3.652749000000000 0
ion Cu   6.736459999999999   1.496471000000000   3.652749000000000 0
ion Cu   3.365947999999998   9.033163000000002   3.652749000000000 0
ion Cu   3.366999999999999   3.046346000000001   0.863298000000000 0
ion Cu  -0.003519000000002  10.583054000000001   0.863298000000000 0
ion Cu  10.108022999999998   3.046346000000001   0.863298000000000 0
ion Cu   6.737504999999997  10.583054000000001   0.863298000000000 0
ion Cu   0.003383999999999   4.504741000000000  12.887157999999999 0
ion Cu  -3.367128000000000  12.041434000000001  12.887157999999999 0
ion Cu   6.744406999999997   4.504741000000000  12.887157999999999 0
ion Cu   3.373895999999998  12.041434000000001  12.887157999999999 0
ion C   5.620995999999998  10.528684000000000  15.299517999999999 1  Linear 0 0 1
ion O   5.681084999999999  10.528684000000000  17.454846000000000 1  Linear 0 0 1
ion-species /projects/musgravc/apps/jdftx-1.6.0/build/pseudopotentials/GBRV_v1.5/$ID_pbe_v1.uspp
ion-species /projects/musgravc/apps/jdftx-1.6.0/build/pseudopotentials/GBRV_v1.5/$ID_pbe_v1.2.uspp
ion-species /projects/musgravc/apps/jdftx-1.6.0/build/pseudopotentials/GBRV_v1.5/$ID_pbe_v1.4.uspp
ion-species /projects/musgravc/apps/jdftx-1.6.0/build/pseudopotentials/GBRV_v1.5/$ID_pbe_v1.5.uspp
ion-width Ecut
ionic-minimize  \
	dirUpdateScheme      L-BFGS \
	linminMethod         DirUpdateRecommended \
	nIterations          100 \
	history              15 \
	knormThreshold       0.0001 \
	energyDiffThreshold  1e-06 \
	nEnergyDiff          2 \
	alphaTstart          1 \
	alphaTmin            1e-10 \
	updateTestStepSize   yes \
	alphaTreduceFactor   0.1 \
	alphaTincreaseFactor 3 \
	nAlphaAdjustMax      3 \
	wolfeEnergy          0.0001 \
	wolfeGradient        0.9 \
	fdTest               no
kpoint   0.000000000000   0.000000000000   0.000000000000  1.00000000000000
kpoint-folding 4 3 1 
latt-move-scale 0 0 0
latt-scale 1 1 1 
lattice  \
	  13.482047000000000   -6.741023000000000    0.000000000000000  \
	   0.000000000000000   15.073385000000000    0.000000000000000  \
	   0.000000000000000    0.000000000000000   45.220160000000000 
lattice-minimize  \
	dirUpdateScheme      L-BFGS \
	linminMethod         DirUpdateRecommended \
	nIterations          0 \
	history              15 \
	knormThreshold       0 \
	energyDiffThreshold  1e-06 \
	nEnergyDiff          2 \
	alphaTstart          1 \
	alphaTmin            1e-10 \
	updateTestStepSize   yes \
	alphaTreduceFactor   0.1 \
	alphaTincreaseFactor 3 \
	nAlphaAdjustMax      3 \
	wolfeEnergy          0.0001 \
	wolfeGradient        0.9 \
	fdTest               no
lcao-params 30 1e-06 0.001
pcm-variant CANDLE
spintype z-spin
subspace-rotation-factor 1 yes
symmetries automatic
symmetry-threshold 0.0001
van-der-waals D3



---------- Setting up symmetries ----------

Found 8 point-group symmetries of the bravais lattice
Found 1 space-group symmetries with basis
Applied RMS atom displacement 0 bohrs to make symmetries exact.

---------- Initializing the Grid ----------
R = 
[       13.482     -6.74102            0  ]
[            0      15.0734            0  ]
[            0            0      45.2202  ]
unit cell volume = 9189.64
G =
[   0.466041    0.20842         -0  ]
[          0    0.41684          0  ]
[          0         -0   0.138947  ]
Minimum fftbox size, Smin = [  56  68  184  ]
Chosen fftbox size, S = [  56  70  192  ]

---------- Exchange Correlation functional ----------
Initalized PBE GGA exchange.
Initalized PBE GGA correlation.

---------- Setting up pseudopotentials ----------
Width of ionic core gaussian charges (only for fluid interactions / plotting) set to 0.397384

Reading pseudopotential file '/projects/musgravc/apps/jdftx-1.6.0/build/pseudopotentials/GBRV_v1.5/cu_pbe_v1.2.uspp':
  Title: Cu.  Created by USPP 7.3.6 on 3-2-2014
  Reference state energy: -201.059491.  19 valence electrons in orbitals:
    |300>  occupation: 2  eigenvalue: -5.020764
    |310>  occupation: 6  eigenvalue: -3.445588
    |320>  occupation: 8  eigenvalue: -0.925168
    |400>  occupation: 2  eigenvalue: -0.567638
    |410>  occupation: 0  eigenvalue: -0.326154
  lMax: 2  lLocal: 3  QijEcut: 6
  6 projectors sampled on a log grid with 613 points:
    l: 0  eig: -5.020767  rCut: 1.4
    l: 0  eig: -0.567640  rCut: 1.4
    l: 1  eig: -3.445589  rCut: 1.55
    l: 1  eig: -0.326157  rCut: 1.55
    l: 2  eig: -0.925170  rCut: 1.5
    l: 2  eig: 1.500000  rCut: 1.5
  Partial core density with radius 0.8
  Transforming core density to a uniform radial grid of dG=0.02 with 1389 points.
  Transforming local potential to a uniform radial grid of dG=0.02 with 1389 points.
  Transforming nonlocal projectors to a uniform radial grid of dG=0.02 with 432 points.
  Transforming density augmentations to a uniform radial grid of dG=0.02 with 1389 points.
  Transforming atomic orbitals to a uniform radial grid of dG=0.02 with 432 points.
  Core radius for overlap checks: 1.55 bohrs.

Reading pseudopotential file '/projects/musgravc/apps/jdftx-1.6.0/build/pseudopotentials/GBRV_v1.5/c_pbe_v1.2.uspp':
  Title: C.  Created by USPP 7.3.6 on 3-2-2014
  Reference state energy: -5.406344.  4 valence electrons in orbitals:
    |200>  occupation: 2  eigenvalue: -0.504890
    |210>  occupation: 2  eigenvalue: -0.194356
  lMax: 1  lLocal: 2  QijEcut: 5
  4 projectors sampled on a log grid with 503 points:
    l: 0  eig: -0.504890  rCut: 1.3
    l: 0  eig: 0.000000  rCut: 1.3
    l: 1  eig: -0.194357  rCut: 1.3
    l: 1  eig: 0.000000  rCut: 1.3
  Partial core density with radius 1.1
  Transforming core density to a uniform radial grid of dG=0.02 with 1389 points.
  Transforming local potential to a uniform radial grid of dG=0.02 with 1389 points.
  Transforming nonlocal projectors to a uniform radial grid of dG=0.02 with 432 points.
  Transforming density augmentations to a uniform radial grid of dG=0.02 with 1389 points.
  Transforming atomic orbitals to a uniform radial grid of dG=0.02 with 432 points.
  Core radius for overlap checks: 1.30 bohrs.

Reading pseudopotential file '/projects/musgravc/apps/jdftx-1.6.0/build/pseudopotentials/GBRV_v1.5/o_pbe_v1.2.uspp':
  Title: O.  Created by USPP 7.3.6 on 3-2-2014
  Reference state energy: -15.894388.  6 valence electrons in orbitals:
    |200>  occupation: 2  eigenvalue: -0.878823
    |210>  occupation: 4  eigenvalue: -0.332131
  lMax: 2  lLocal: 2  QijEcut: 6
  5 projectors sampled on a log grid with 511 points:
    l: 0  eig: -0.878823  rCut: 1.25
    l: 0  eig: 0.000000  rCut: 1.25
    l: 1  eig: -0.332132  rCut: 1.25
    l: 1  eig: 0.000000  rCut: 1.25
    l: 2  eig: 1.000000  rCut: 1.25
  Partial core density with radius 0.7
  Transforming core density to a uniform radial grid of dG=0.02 with 1389 points.
  Transforming local potential to a uniform radial grid of dG=0.02 with 1389 points.
  Transforming nonlocal projectors to a uniform radial grid of dG=0.02 with 432 points.
  Transforming density augmentations to a uniform radial grid of dG=0.02 with 1389 points.
  Transforming atomic orbitals to a uniform radial grid of dG=0.02 with 432 points.
  Core radius for overlap checks: 1.25 bohrs.

Initialized 3 species with 42 total atoms.

Folded 1 k-points by 4x3x1 to 12 k-points.

---------- Setting up k-points, bands, fillings ----------
Adding inversion symmetry to k-mesh for non-inversion-symmetric unit cell.
Reduced to 7 k-points under symmetry. 
Computing the number of bands and number of electrons
Calculating initial fillings.
nElectrons: 770.000000   nBands: 462   nStates: 14

----- Setting up reduced wavefunction bases (one per k-point) -----
average nbasis = 39264.583 , ideal nbasis = 39258.863

----- Initializing Supercell corresponding to k-point mesh -----
Lattice vector linear combinations in supercell:
[   4   0   0  ]
[   0   3   0  ]
[   0   0   1  ]
Supercell lattice vectors:
[  53.9282  -20.2231  0  ]
[  0  45.2202  0  ]
[  0  0  45.2202  ]

Initializing DFT-D3 calculator:
	Parameters set for gga-PBE functional
	s6:  1.000  s_r6:  1.217
	s8:  0.722  s_r8:  1.000
	Per-atom parameters loaded for:
	Cu:  sqrtQ[a0]:  5.226  Rcov[a0]:  1.909  CN: [ 0.00 0.96 ]
	 C:  sqrtQ[a0]:  3.105  Rcov[a0]:  1.417  CN: [ 0.00 0.99 2.00 3.00 3.98 ]
	 O:  sqrtQ[a0]:  2.594  Rcov[a0]:  1.191  CN: [ 0.00 0.99 1.99 ]

Initializing DFT-D2 calculator for fluid / solvation:
	Cu:  C6:  187.33 Eh-a0^6  R0: 2.952 a0
	 C:  C6:   30.35 Eh-a0^6  R0: 2.744 a0
	 O:  C6:   12.14 Eh-a0^6  R0: 2.536 a0

---------- Setting up ewald sum ----------
Optimum gaussian width for ewald sums = 4.481961 bohr.
Real space sum over 495 unit cells with max indices [  5  4  2  ]
Reciprocal space sum over 6825 terms with max indices [  6  7  17  ]

Computing DFT-D3 correction:
# coordination-number Cu 8.287 8.290 8.288 8.914 8.918 8.918 8.918 8.919 9.035 9.035 9.035 9.035 6.874 6.874 6.874 6.874 5.198 4.988 4.945 5.891 9.030 9.029 9.029 9.036 8.920 8.920 8.920 8.920 8.294 8.294 8.294 8.294 4.947 4.947 4.947 4.947 6.870 6.937 6.875 7.868
# coordination-number C 3.866
# coordination-number O 1.115
# diagonal-C6 Cu 175.00 175.00 175.00 175.00 175.00 175.00 175.00 175.00 175.00 175.00 175.00 175.00 175.00 175.00 175.00 175.00 175.00 175.00 175.00 175.00 175.00 175.00 175.00 175.00 175.00 175.00 175.00 175.00 175.00 175.00 175.00 175.00 175.00 175.00 175.00 175.00 175.00 175.00 175.00 175.00
# diagonal-C6 C 18.54
# diagonal-C6 O 12.71
EvdW_6 =   -0.208063
EvdW_8 =   -0.326352

---------- Allocating electronic variables ----------
Initializing wave functions:  linear combination of atomic orbitals
Cu pseudo-atom occupations:   s ( 2 1 )  p ( 6 0 )  d ( 10 )
C pseudo-atom occupations:   s ( 2 )  p ( 2 )
O pseudo-atom occupations:   s ( 2 )  p ( 4 )
	FillingsUpdate:  mu: -2.626194173  nElectrons: 770.000000  magneticMoment: [ Abs: 0.46361  Tot: -0.00473 ]
LCAOMinimize: Iter:   0  F: -7882.4636811223854238  |grad|_K:  3.836e-02  alpha:  1.000e+00
LCAOMinimize: 	Step increased F by 1.105802e+03, reducing alpha to 4.110042e-02.
LCAOMinimize: 	Step increased F by 5.168684e+01, reducing alpha to 4.110042e-03.
	FillingsUpdate:  mu: -2.432087263  nElectrons: 770.000000  magneticMoment: [ Abs: 0.46577  Tot: -0.00342 ]
LCAOMinimize: Iter:   1  F: -7902.2186978735935554  |grad|_K:  2.754e-02  alpha:  4.110e-03  linmin: -1.742e-01  cgtest:  9.620e-01  t[s]:    208.80
LCAOMinimize: Encountered beta<0, resetting CG.
LCAOMinimize: 	Predicted alpha/alphaT>3.000000, increasing alphaT to 1.233013e-02.
	FillingsUpdate:  mu: -1.198448931  nElectrons: 770.000000  magneticMoment: [ Abs: 0.52714  Tot: +0.02361 ]
LCAOMinimize: Iter:   2  F: -7933.4267634875441217  |grad|_K:  2.571e-02  alpha:  2.245e-02  linmin:  2.031e-02  cgtest: -2.318e-01  t[s]:    272.77
	FillingsUpdate:  mu: +0.448591573  nElectrons: 770.000000  magneticMoment: [ Abs: 0.21205  Tot: +0.04422 ]
LCAOMinimize: Iter:   3  F: -7958.8490473831543568  |grad|_K:  4.483e-02  alpha:  2.567e-02  linmin:  1.021e-02  cgtest:  4.690e-01  t[s]:    323.50
	FillingsUpdate:  mu: +1.801708821  nElectrons: 770.000000  magneticMoment: [ Abs: 0.00924  Tot: +0.00141 ]
LCAOMinimize: Iter:   4  F: -8055.0332494469976155  |grad|_K:  2.248e-02  alpha:  3.086e-02  linmin: -3.971e-03  cgtest: -2.228e-02  t[s]:    374.00
	FillingsUpdate:  mu: +1.446659647  nElectrons: 770.000000  magneticMoment: [ Abs: 0.00671  Tot: +0.00126 ]
LCAOMinimize: Iter:   5  F: -8064.1044454211032644  |grad|_K:  6.827e-03  alpha:  1.780e-02  linmin: -4.738e-03  cgtest:  1.040e+00  t[s]:    424.59
LCAOMinimize: Encountered beta<0, resetting CG.
LCAOMinimize: 	Predicted alpha/alphaT>3.000000, increasing alphaT to 5.338686e-02.
LCAOMinimize: 	Wrong curvature in test step, increasing alphaT to 1.601606e-01.
	FillingsUpdate:  mu: +0.731267879  nElectrons: 770.000000  magneticMoment: [ Abs: 0.00785  Tot: +0.00199 ]
LCAOMinimize: Iter:   6  F: -8080.6588051652624927  |grad|_K:  7.281e-03  alpha: -3.824e-02  linmin: -6.282e-02  cgtest: -1.416e-01  t[s]:    485.77
LCAOMinimize: 	Step increased F by 9.143879e+01, reducing alpha to 1.141095e-02.
	FillingsUpdate:  mu: +0.515683009  nElectrons: 770.000000  magneticMoment: [ Abs: 0.00799  Tot: +0.00162 ]
LCAOMinimize: Iter:   7  F: -8083.0469750865195238  |grad|_K:  6.571e-03  alpha:  1.141e-02  linmin: -5.284e-02  cgtest:  9.031e-01  t[s]:    573.69
LCAOMinimize: Encountered beta<0, resetting CG.
LCAOMinimize: 	Predicted alpha/alphaT>3.000000, increasing alphaT to 3.423286e-02.
	FillingsUpdate:  mu: +0.541983192  nElectrons: 770.000000  magneticMoment: [ Abs: 0.00798  Tot: +0.00132 ]
LCAOMinimize: Iter:   8  F: -8086.1120819658235632  |grad|_K:  3.696e-03  alpha:  3.679e-02  linmin:  2.894e-02  cgtest: -2.490e-01  t[s]:    638.16
	FillingsUpdate:  mu: +0.608203027  nElectrons: 770.000000  magneticMoment: [ Abs: 0.00814  Tot: +0.00145 ]
LCAOMinimize: Iter:   9  F: -8086.8434062456490210  |grad|_K:  3.979e-03  alpha:  3.296e-02  linmin:  4.850e-03  cgtest:  6.773e-01  t[s]:    688.73
	FillingsUpdate:  mu: +0.485892412  nElectrons: 770.000000  magneticMoment: [ Abs: 0.00811  Tot: +0.00114 ]
LCAOMinimize: Iter:  10  F: -8087.7216650507598388  |grad|_K:  2.705e-03  alpha:  2.864e-02  linmin:  2.942e-03  cgtest: -5.060e-02  t[s]:    739.54
	FillingsUpdate:  mu: +0.258607725  nElectrons: 770.000000  magneticMoment: [ Abs: 0.00855  Tot: +0.00073 ]
LCAOMinimize: Iter:  11  F: -8088.5806131066383386  |grad|_K:  2.020e-03  alpha:  6.546e-02  linmin:  2.280e-02  cgtest: -1.330e-01  t[s]:    790.08
	FillingsUpdate:  mu: +0.220450279  nElectrons: 770.000000  magneticMoment: [ Abs: 0.00882  Tot: +0.00057 ]
LCAOMinimize: Iter:  12  F: -8088.8395998279056585  |grad|_K:  1.668e-03  alpha:  3.221e-02  linmin: -1.330e-02  cgtest:  5.403e-01  t[s]:    840.72
	FillingsUpdate:  mu: +0.185683187  nElectrons: 770.000000  magneticMoment: [ Abs: 0.00887  Tot: +0.00042 ]
LCAOMinimize: Iter:  13  F: -8089.0043115929975102  |grad|_K:  8.473e-04  alpha:  2.845e-02  linmin:  1.997e-02  cgtest: -1.638e-01  t[s]:    891.58
	FillingsUpdate:  mu: +0.181053975  nElectrons: 770.000000  magneticMoment: [ Abs: 0.00889  Tot: +0.00039 ]
LCAOMinimize: Iter:  14  F: -8089.0536026162089911  |grad|_K:  6.959e-04  alpha:  3.890e-02  linmin:  3.689e-03  cgtest:  1.355e-01  t[s]:    942.87
	FillingsUpdate:  mu: +0.158099958  nElectrons: 770.000000  magneticMoment: [ Abs: 0.00885  Tot: +0.00018 ]
LCAOMinimize: Iter:  15  F: -8089.1242111148922049  |grad|_K:  4.679e-04  alpha:  7.453e-02  linmin: -6.455e-03  cgtest: -2.466e-02  t[s]:    994.00
	FillingsUpdate:  mu: +0.183034886  nElectrons: 770.000000  magneticMoment: [ Abs: 0.00884  Tot: -0.00001 ]
LCAOMinimize: Iter:  16  F: -8089.1497694155486897  |grad|_K:  5.109e-04  alpha:  5.820e-02  linmin: -4.844e-04  cgtest: -3.688e-02  t[s]:   1044.88
	FillingsUpdate:  mu: +0.162035912  nElectrons: 770.000000  magneticMoment: [ Abs: 0.00884  Tot: -0.00005 ]
LCAOMinimize: Iter:  17  F: -8089.1627275203181853  |grad|_K:  1.486e-04  alpha:  2.438e-02  linmin: -9.287e-03  cgtest:  1.009e-01  t[s]:   1095.56
LCAOMinimize: 	Predicted alpha/alphaT>3.000000, increasing alphaT to 7.315444e-02.
	FillingsUpdate:  mu: +0.156566671  nElectrons: 770.000000  magneticMoment: [ Abs: 0.00888  Tot: -0.00010 ]
LCAOMinimize: Iter:  18  F: -8089.1664745490425048  |grad|_K:  1.299e-04  alpha:  8.544e-02  linmin:  2.072e-04  cgtest: -2.874e-02  t[s]:   1159.66
	FillingsUpdate:  mu: +0.156510774  nElectrons: 770.000000  magneticMoment: [ Abs: 0.00891  Tot: -0.00018 ]
LCAOMinimize: Iter:  19  F: -8089.1677093208963925  |grad|_K:  1.265e-04  alpha:  3.676e-02  linmin: -1.154e-03  cgtest:  2.543e-02  t[s]:   1210.42
	FillingsUpdate:  mu: +0.153640744  nElectrons: 770.000000  magneticMoment: [ Abs: 0.00897  Tot: -0.00029 ]
LCAOMinimize: Iter:  20  F: -8089.1693078167436397  |grad|_K:  8.134e-05  alpha:  5.100e-02  linmin:  4.876e-03  cgtest: -7.587e-02  t[s]:   1261.03
	FillingsUpdate:  mu: +0.149898419  nElectrons: 770.000000  magneticMoment: [ Abs: 0.00902  Tot: -0.00040 ]
LCAOMinimize: Iter:  21  F: -8089.1702302057901761  |grad|_K:  5.280e-05  alpha:  7.353e-02  linmin: -1.753e-04  cgtest:  1.072e-01  t[s]:   1311.77
	FillingsUpdate:  mu: +0.151048473  nElectrons: 770.000000  magneticMoment: [ Abs: 0.00907  Tot: -0.00052 ]
LCAOMinimize: Iter:  22  F: -8089.1707547209416589  |grad|_K:  5.506e-05  alpha:  9.585e-02  linmin: -3.607e-04  cgtest: -1.190e-02  t[s]:   1362.33
	FillingsUpdate:  mu: +0.151563582  nElectrons: 770.000000  magneticMoment: [ Abs: 0.00909  Tot: -0.00057 ]
LCAOMinimize: Iter:  23  F: -8089.1709206300165533  |grad|_K:  3.937e-05  alpha:  2.786e-02  linmin:  9.100e-05  cgtest: -6.084e-03  t[s]:   1413.02
	FillingsUpdate:  mu: +0.151843554  nElectrons: 770.000000  magneticMoment: [ Abs: 0.00913  Tot: -0.00066 ]
LCAOMinimize: Iter:  24  F: -8089.1710876538472803  |grad|_K:  1.849e-05  alpha:  5.486e-02  linmin: -1.880e-03  cgtest:  2.905e-02  t[s]:   1463.59
	FillingsUpdate:  mu: +0.151390694  nElectrons: 770.000000  magneticMoment: [ Abs: 0.00916  Tot: -0.00073 ]
LCAOMinimize: Iter:  25  F: -8089.1711413902467029  |grad|_K:  1.544e-05  alpha:  7.979e-02  linmin:  2.802e-04  cgtest: -1.057e-02  t[s]:   1514.28
	FillingsUpdate:  mu: +0.151308159  nElectrons: 770.000000  magneticMoment: [ Abs: 0.00919  Tot: -0.00079 ]
LCAOMinimize: Iter:  26  F: -8089.1711676210588848  |grad|_K:  2.042e-05  alpha:  5.622e-02  linmin:  1.252e-05  cgtest:  6.840e-03  t[s]:   1564.94
	FillingsUpdate:  mu: +0.150924180  nElectrons: 770.000000  magneticMoment: [ Abs: 0.00925  Tot: -0.00089 ]
LCAOMinimize: Iter:  27  F: -8089.1712028076071874  |grad|_K:  1.077e-05  alpha:  4.305e-02  linmin:  8.631e-05  cgtest: -3.349e-03  t[s]:   1615.61
	FillingsUpdate:  mu: +0.150545828  nElectrons: 770.000000  magneticMoment: [ Abs: 0.00928  Tot: -0.00096 ]
LCAOMinimize: Iter:  28  F: -8089.1712177113049620  |grad|_K:  6.328e-06  alpha:  6.559e-02  linmin:  1.105e-04  cgtest: -3.495e-04  t[s]:   1666.29
	FillingsUpdate:  mu: +0.150790228  nElectrons: 770.000000  magneticMoment: [ Abs: 0.00932  Tot: -0.00102 ]
LCAOMinimize: Iter:  29  F: -8089.1712241284540141  |grad|_K:  7.405e-06  alpha:  8.187e-02  linmin:  1.030e-04  cgtest:  3.683e-04  t[s]:   1717.02
	FillingsUpdate:  mu: +0.150917084  nElectrons: 770.000000  magneticMoment: [ Abs: 0.00934  Tot: -0.00106 ]
LCAOMinimize: Iter:  30  F: -8089.1712279470557405  |grad|_K:  6.716e-06  alpha:  3.560e-02  linmin: -2.180e-06  cgtest:  1.868e-03  t[s]:   1767.74
LCAOMinimize: None of the convergence criteria satisfied after 30 iterations.
----- createFluidSolver() ----- (Fluid-side solver setup)
   Initializing fluid molecule 'H2O'
     Initializing site 'O'
       Electron density: proportional to exp(-r/0.36935)*erfc((r-0.51523)/0.36823) with norm 6.826
       Charge density: gaussian nuclear width 0.478731 with net site charge 0.826
       Polarizability: cuspless exponential with width 0.32 and norm 3.73
       Hard sphere radius: 2.57003 bohrs
       Positions in reference frame:
         [ +0.000000 +0.000000 +0.000000 ]
     Initializing site 'H'
       Electron density: proportional to exp(-r/0.34641)*erfc((r-0)/0.390882) with norm 0.587
       Charge density: gaussian nuclear width 0.377945 with net site charge -0.413
       Polarizability: cuspless exponential with width 0.39 and norm 3.3
       Positions in reference frame:
         [ +0.000000 -1.441945 +1.122523 ]
         [ +0.000000 +1.441945 +1.122523 ]
     Net charge: 0   dipole magnitude: 0.927204
     Initializing spherical shell mfKernel with radius 2.61727 Bohr
     deltaS corrections:
       site 'O': -7.54299
       site 'H': -6.83917
   Initializing fluid molecule 'Na+'
     Initializing site 'Na'
       Electron density: proportional to exp(-r/0.19682)*erfc((r-0.71491)/0.41314) with norm 8.1383
       Charge density: gaussian nuclear width 0.365347 with net site charge -1
       Hard sphere radius: 1.86327 bohrs
       Positions in reference frame:
         [ +0.000000 +0.000000 +0.000000 ]
     Net charge: -1   dipole magnitude: 0
     Initializing gaussian mfKernel with width: 1.55004 Bohr
     deltaS corrections:
       site 'Na': -22.3555
   Initializing fluid molecule 'F-'
     Initializing site 'F'
       Electron density: proportional to exp(-r/0.38886)*erfc((r-0)/0.438782) with norm 8
       Charge density: gaussian nuclear width 0.374796 with net site charge 1
       Hard sphere radius: 2.39995 bohrs
       Positions in reference frame:
         [ +0.000000 +0.000000 +0.000000 ]
     Net charge: 1   dipole magnitude: 0
     Initializing gaussian mfKernel with width: 1.59012 Bohr
     deltaS corrections:
       site 'F': -9.04335

Correction to mu due to finite nuclear width = -0.0831365
   Cavity determined by nc: 0.00142 and sigma: 0.707107
   Nonlocal vdW cavity from gaussian model electron density with norm = 8 and sigma = 0.993594 bohr
   Charge asymmetry in cavity with sensitivity pCavity = 36.5 e-bohr/Eh
   Electrostatic cavity expanded by eta = 1.46 bohrs
   Weighted density cavitation model constrained by Nbulk: 0.0049383 bohr^-3, Pvap: 3.14029 kPa, Rvdw: 2.61727 bohr and sigmaBulk: 4.62e-05 Eh/bohr^2 at T: 298 K.
   Weighted density dispersion model using vdW pair potentials with single solvent site with sqrtC6eff: 0.77 SI.


---- Citations for features of the code used in this run ----

   Software package:
      R. Sundararaman, K. Letchworth-Weaver, K.A. Schwarz, D. Gunceler, Y. Ozhabes and T.A. Arias, 'JDFTx: software for joint density-functional theory', SoftwareX 6, 278 (2017)

   gga-PBE exchange-correlation functional:
      J.P. Perdew, K. Burke and M. Ernzerhof, Phys. Rev. Lett. 77, 3865 (1996)

   Pseudopotentials:
      KF Garrity, JW Bennett, KM Rabe and D Vanderbilt, Comput. Mater. Sci. 81, 446 (2014)

   DFT-D3 dispersion correction:
      S. Grimme, J. Antony, S. Ehrlich and H. Krieg, J. Chem. Phys. 132, 154104 (2010)

   DFT-D2 dispersion correction:
      S. Grimme, J. Comput. Chem. 27, 1787 (2006)

   Charge-asymmetric nonlocally-determined local-electric (CANDLE) solvation model:
      R. Sundararaman and W.A. Goddard III, J. Chem. Phys. 142, 064107 (2015)

   Total energy minimization with Auxiliary Hamiltonian:
      C. Freysoldt, S. Boeck, and J. Neugebauer, Phys. Rev. B 79, 241103(R) (2009)

   Linear-tetrahedron sampling for density of states:
      G. Lehmann and M. Taut, Phys. status solidi (b) 54, 469 (1972)

This list may not be complete. Please suggest additional citations or
report any other bugs at https://github.com/shankar1729/jdftx/issues

Initialization completed successfully at t[s]:   1786.52


Computing DFT-D3 correction:
# coordination-number Cu 8.287 8.290 8.288 8.914 8.918 8.918 8.918 8.919 9.035 9.035 9.035 9.035 6.874 6.874 6.874 6.874 5.198 4.988 4.945 5.891 9.030 9.029 9.029 9.036 8.920 8.920 8.920 8.920 8.294 8.294 8.294 8.294 4.947 4.947 4.947 4.947 6.870 6.937 6.875 7.868
# coordination-number C 3.866
# coordination-number O 1.115
# diagonal-C6 Cu 175.00 175.00 175.00 175.00 175.00 175.00 175.00 175.00 175.00 175.00 175.00 175.00 175.00 175.00 175.00 175.00 175.00 175.00 175.00 175.00 175.00 175.00 175.00 175.00 175.00 175.00 175.00 175.00 175.00 175.00 175.00 175.00 175.00 175.00 175.00 175.00 175.00 175.00 175.00 175.00
# diagonal-C6 C 18.54
# diagonal-C6 O 12.71
EvdW_6 =   -0.208063
EvdW_8 =   -0.326352
Fluid solver invoked on fresh (random / LCAO) wavefunctions
Running a vacuum solve first:

-------- Initial electronic minimization -----------
	FillingsUpdate:  mu: +0.150917093  nElectrons: 770.000000  magneticMoment: [ Abs: 0.00934  Tot: -0.00106 ]
ElecMinimize: Iter:   0  F: -8089.171227947069383  |grad|_K:  3.301e-04  alpha:  1.000e+00
	FillingsUpdate:  mu: +0.036097701  nElectrons: 770.000000  magneticMoment: [ Abs: 0.00900  Tot: -0.00109 ]
	SubspaceRotationAdjust: set factor to 0.953
ElecMinimize: Iter:   1  F: -8091.840656804155515  |grad|_K:  1.693e-04  alpha:  1.000e-01  linmin:  2.074e-04  t[s]:   1934.12
ElecMinimize: 	Predicted alpha/alphaT>3.000000, increasing alphaT to 3.000765e-01.
	FillingsUpdate:  mu: +0.218781946  nElectrons: 770.000000  magneticMoment: [ Abs: 0.00540  Tot: -0.00021 ]
	SubspaceRotationAdjust: set factor to 0.916
ElecMinimize: Iter:   2  F: -8094.429837274959027  |grad|_K:  1.313e-04  alpha:  3.641e-01  linmin: -6.260e-05  t[s]:   2054.24
	FillingsUpdate:  mu: +0.175880874  nElectrons: 770.000000  magneticMoment: [ Abs: 0.00481  Tot: -0.00011 ]
	SubspaceRotationAdjust: set factor to 0.785
ElecMinimize: Iter:   3  F: -8095.072935889778819  |grad|_K:  9.354e-05  alpha:  1.315e-01  linmin: -3.591e-05  t[s]:   2150.23
	FillingsUpdate:  mu: +0.169893925  nElectrons: 770.000000  magneticMoment: [ Abs: 0.00438  Tot: -0.00002 ]
	SubspaceRotationAdjust: set factor to 0.506
ElecMinimize: Iter:   4  F: -8095.273958787018273  |grad|_K:  8.231e-05  alpha:  8.871e-02  linmin: -1.241e-06  t[s]:   2246.17
	FillingsUpdate:  mu: +0.110859963  nElectrons: 770.000000  magneticMoment: [ Abs: 0.00379  Tot: +0.00002 ]
	SubspaceRotationAdjust: set factor to 0.548
ElecMinimize: Iter:   5  F: -8095.463202543699481  |grad|_K:  4.487e-05  alpha:  1.088e-01  linmin: -7.474e-06  t[s]:   2342.14
	FillingsUpdate:  mu: +0.110952943  nElectrons: 770.000000  magneticMoment: [ Abs: 0.00338  Tot: +0.00005 ]
	SubspaceRotationAdjust: set factor to 0.602
ElecMinimize: Iter:   6  F: -8095.528903524968882  |grad|_K:  3.028e-05  alpha:  1.265e-01  linmin:  9.646e-07  t[s]:   2439.59
	FillingsUpdate:  mu: +0.116827881  nElectrons: 770.000000  magneticMoment: [ Abs: 0.00275  Tot: +0.00007 ]
	SubspaceRotationAdjust: set factor to 0.49
ElecMinimize: Iter:   7  F: -8095.565364552487154  |grad|_K:  2.556e-05  alpha:  1.554e-01  linmin: -9.081e-06  t[s]:   2535.71
	FillingsUpdate:  mu: +0.113423499  nElectrons: 770.000000  magneticMoment: [ Abs: 0.00234  Tot: +0.00008 ]
	SubspaceRotationAdjust: set factor to 0.444
ElecMinimize: Iter:   8  F: -8095.584670700252900  |grad|_K:  1.672e-05  alpha:  1.150e-01  linmin: -1.730e-06  t[s]:   2631.75
	FillingsUpdate:  mu: +0.103956813  nElectrons: 770.000000  magneticMoment: [ Abs: 0.00199  Tot: +0.00009 ]
	SubspaceRotationAdjust: set factor to 0.47
ElecMinimize: Iter:   9  F: -8095.596614720409889  |grad|_K:  1.319e-05  alpha:  1.670e-01  linmin:  3.560e-07  t[s]:   2728.66
	FillingsUpdate:  mu: +0.102667972  nElectrons: 770.000000  magneticMoment: [ Abs: 0.00170  Tot: +0.00009 ]
	SubspaceRotationAdjust: set factor to 0.504
ElecMinimize: Iter:  10  F: -8095.603331537855411  |grad|_K:  9.860e-06  alpha:  1.512e-01  linmin: -2.752e-08  t[s]:   2824.91
	FillingsUpdate:  mu: +0.106116949  nElectrons: 770.000000  magneticMoment: [ Abs: 0.00143  Tot: +0.00009 ]
	SubspaceRotationAdjust: set factor to 0.505
ElecMinimize: Iter:  11  F: -8095.607207277192174  |grad|_K:  7.850e-06  alpha:  1.560e-01  linmin: -4.393e-07  t[s]:   2920.81
	FillingsUpdate:  mu: +0.107523089  nElectrons: 770.000000  magneticMoment: [ Abs: 0.00116  Tot: +0.00009 ]
	SubspaceRotationAdjust: set factor to 0.53
ElecMinimize: Iter:  12  F: -8095.609625529699770  |grad|_K:  5.475e-06  alpha:  1.535e-01  linmin:  3.308e-07  t[s]:   3016.76
	FillingsUpdate:  mu: +0.107482781  nElectrons: 770.000000  magneticMoment: [ Abs: 0.00096  Tot: +0.00008 ]
	SubspaceRotationAdjust: set factor to 0.592
ElecMinimize: Iter:  13  F: -8095.610864800066338  |grad|_K:  4.865e-06  alpha:  1.619e-01  linmin:  5.863e-07  t[s]:   3112.54
	FillingsUpdate:  mu: +0.105758261  nElectrons: 770.000000  magneticMoment: [ Abs: 0.00074  Tot: +0.00007 ]
	SubspaceRotationAdjust: set factor to 0.617
ElecMinimize: Iter:  14  F: -8095.611982247150991  |grad|_K:  3.997e-06  alpha:  1.849e-01  linmin:  3.482e-07  t[s]:   3208.34
	FillingsUpdate:  mu: +0.104809539  nElectrons: 770.000000  magneticMoment: [ Abs: 0.00061  Tot: +0.00006 ]
	SubspaceRotationAdjust: set factor to 0.565
ElecMinimize: Iter:  15  F: -8095.612518066134726  |grad|_K:  2.919e-06  alpha:  1.313e-01  linmin:  5.952e-09  t[s]:   3304.36
	FillingsUpdate:  mu: +0.105561466  nElectrons: 770.000000  magneticMoment: [ Abs: 0.00051  Tot: +0.00005 ]
	SubspaceRotationAdjust: set factor to 0.477
ElecMinimize: Iter:  16  F: -8095.612823574884715  |grad|_K:  2.132e-06  alpha:  1.403e-01  linmin:  7.359e-07  t[s]:   3400.25
	FillingsUpdate:  mu: +0.105933517  nElectrons: 770.000000  magneticMoment: [ Abs: 0.00042  Tot: +0.00004 ]
	SubspaceRotationAdjust: set factor to 0.503
ElecMinimize: Iter:  17  F: -8095.613011723373347  |grad|_K:  1.752e-06  alpha:  1.621e-01  linmin:  3.870e-07  t[s]:   3496.18
	FillingsUpdate:  mu: +0.105496584  nElectrons: 770.000000  magneticMoment: [ Abs: 0.00034  Tot: +0.00004 ]
	SubspaceRotationAdjust: set factor to 0.52
ElecMinimize: Iter:  18  F: -8095.613137494349758  |grad|_K:  1.277e-06  alpha:  1.603e-01  linmin:  1.250e-06  t[s]:   3592.13
	FillingsUpdate:  mu: +0.105286201  nElectrons: 770.000000  magneticMoment: [ Abs: 0.00028  Tot: +0.00003 ]
	SubspaceRotationAdjust: set factor to 0.445
ElecMinimize: Iter:  19  F: -8095.613193558412604  |grad|_K:  9.019e-07  alpha:  1.346e-01  linmin:  4.913e-07  t[s]:   3688.17
	FillingsUpdate:  mu: +0.105219224  nElectrons: 770.000000  magneticMoment: [ Abs: 0.00022  Tot: +0.00003 ]
	SubspaceRotationAdjust: set factor to 0.442
ElecMinimize: Iter:  20  F: -8095.613235644595989  |grad|_K:  8.886e-07  alpha:  2.026e-01  linmin:  3.782e-07  t[s]:   3784.17
	FillingsUpdate:  mu: +0.105173243  nElectrons: 770.000000  magneticMoment: [ Abs: 0.00017  Tot: +0.00002 ]
	SubspaceRotationAdjust: set factor to 0.479
ElecMinimize: Iter:  21  F: -8095.613265438895723  |grad|_K:  5.759e-07  alpha:  1.477e-01  linmin:  3.611e-08  t[s]:   3880.13
	FillingsUpdate:  mu: +0.105215485  nElectrons: 770.000000  magneticMoment: [ Abs: 0.00014  Tot: +0.00002 ]
	SubspaceRotationAdjust: set factor to 0.473
ElecMinimize: Iter:  22  F: -8095.613279051332938  |grad|_K:  4.987e-07  alpha:  1.607e-01  linmin:  2.746e-07  t[s]:   3976.05
	FillingsUpdate:  mu: +0.105217707  nElectrons: 770.000000  magneticMoment: [ Abs: 0.00011  Tot: +0.00001 ]
	SubspaceRotationAdjust: set factor to 0.507
ElecMinimize: Iter:  23  F: -8095.613290246132237  |grad|_K:  4.065e-07  alpha:  1.763e-01  linmin:  3.447e-07  t[s]:   4071.92
	FillingsUpdate:  mu: +0.105114627  nElectrons: 770.000000  magneticMoment: [ Abs: 0.00009  Tot: +0.00001 ]
	SubspaceRotationAdjust: set factor to 0.538
ElecMinimize: Iter:  24  F: -8095.613297625552150  |grad|_K:  3.596e-07  alpha:  1.749e-01  linmin:  3.251e-07  t[s]:   4167.80
	FillingsUpdate:  mu: +0.105054548  nElectrons: 770.000000  magneticMoment: [ Abs: 0.00007  Tot: +0.00001 ]
	SubspaceRotationAdjust: set factor to 0.574
ElecMinimize: Iter:  25  F: -8095.613303795960746  |grad|_K:  3.049e-07  alpha:  1.869e-01  linmin:  5.813e-07  t[s]:   4264.99
	FillingsUpdate:  mu: +0.105082980  nElectrons: 770.000000  magneticMoment: [ Abs: 0.00006  Tot: +0.00000 ]
	SubspaceRotationAdjust: set factor to 0.621
ElecMinimize: Iter:  26  F: -8095.613307256700864  |grad|_K:  2.374e-07  alpha:  1.459e-01  linmin:  9.172e-08  t[s]:   4360.87
	FillingsUpdate:  mu: +0.105095406  nElectrons: 770.000000  magneticMoment: [ Abs: 0.00005  Tot: +0.00000 ]
	SubspaceRotationAdjust: set factor to 0.643
ElecMinimize: Iter:  27  F: -8095.613310011259273  |grad|_K:  2.090e-07  alpha:  1.915e-01  linmin:  6.691e-07  t[s]:   4456.78
	FillingsUpdate:  mu: +0.105059519  nElectrons: 770.000000  magneticMoment: [ Abs: 0.00004  Tot: +0.00000 ]
	SubspaceRotationAdjust: set factor to 0.621
ElecMinimize: Iter:  28  F: -8095.613311591489946  |grad|_K:  1.617e-07  alpha:  1.418e-01  linmin: -1.903e-08  t[s]:   4552.64
	FillingsUpdate:  mu: +0.105026389  nElectrons: 770.000000  magneticMoment: [ Abs: 0.00004  Tot: -0.00000 ]
	SubspaceRotationAdjust: set factor to 0.57
ElecMinimize: Iter:  29  F: -8095.613312788364965  |grad|_K:  1.461e-07  alpha:  1.793e-01  linmin:  3.917e-07  t[s]:   4648.51
	FillingsUpdate:  mu: +0.105008707  nElectrons: 770.000000  magneticMoment: [ Abs: 0.00003  Tot: -0.00000 ]
	SubspaceRotationAdjust: set factor to 0.592
ElecMinimize: Iter:  30  F: -8095.613313643289075  |grad|_K:  1.090e-07  alpha:  1.569e-01  linmin:  5.897e-08  t[s]:   4745.01
	FillingsUpdate:  mu: +0.105023717  nElectrons: 770.000000  magneticMoment: [ Abs: 0.00003  Tot: -0.00000 ]
	SubspaceRotationAdjust: set factor to 0.622
ElecMinimize: Iter:  31  F: -8095.613314121660551  |grad|_K:  8.884e-08  alpha:  1.573e-01  linmin:  9.417e-08  t[s]:   4841.98
	FillingsUpdate:  mu: +0.105043900  nElectrons: 770.000000  magneticMoment: [ Abs: 0.00002  Tot: -0.00000 ]
	SubspaceRotationAdjust: set factor to 0.649
ElecMinimize: Iter:  32  F: -8095.613314469361285  |grad|_K:  7.100e-08  alpha:  1.726e-01  linmin: -1.284e-07  t[s]:   4938.06
	FillingsUpdate:  mu: +0.105028498  nElectrons: 770.000000  magneticMoment: [ Abs: 0.00002  Tot: -0.00000 ]
	SubspaceRotationAdjust: set factor to 0.675
ElecMinimize: Iter:  33  F: -8095.613314674456888  |grad|_K:  5.975e-08  alpha:  1.594e-01  linmin:  1.320e-07  t[s]:   5034.02
	FillingsUpdate:  mu: +0.105012565  nElectrons: 770.000000  magneticMoment: [ Abs: 0.00002  Tot: -0.00000 ]
	SubspaceRotationAdjust: set factor to 0.705
ElecMinimize: Iter:  34  F: -8095.613314821666791  |grad|_K:  5.000e-08  alpha:  1.613e-01  linmin:  7.035e-08  t[s]:   5130.00
	FillingsUpdate:  mu: +0.105021475  nElectrons: 770.000000  magneticMoment: [ Abs: 0.00001  Tot: -0.00000 ]
	SubspaceRotationAdjust: set factor to 0.732
ElecMinimize: Iter:  35  F: -8095.613314932743378  |grad|_K:  4.486e-08  alpha:  1.753e-01  linmin:  5.313e-07  t[s]:   5225.80
	FillingsUpdate:  mu: +0.105034550  nElectrons: 770.000000  magneticMoment: [ Abs: 0.00001  Tot: -0.00000 ]
	SubspaceRotationAdjust: set factor to 0.672
ElecMinimize: Iter:  36  F: -8095.613315003223761  |grad|_K:  3.365e-08  alpha:  1.378e-01  linmin: -1.155e-07  t[s]:   5321.70
	FillingsUpdate:  mu: +0.105029674  nElectrons: 770.000000  magneticMoment: [ Abs: 0.00001  Tot: -0.00000 ]
	SubspaceRotationAdjust: set factor to 0.631
ElecMinimize: Iter:  37  F: -8095.613315046584830  |grad|_K:  2.876e-08  alpha:  1.502e-01  linmin:  8.600e-08  t[s]:   5417.81
ElecMinimize: Converged (|Delta F|<1.000000e-07 for 2 iters).
Setting wave functions to eigenvectors of Hamiltonian
Converging empty states (this may take a while): |deigs|: 1.310e-02
Vacuum energy after initial minimize, F = -8095.613315046584830


-------- Electronic minimization -----------
	Linear fluid (dielectric constant: 78.4, screening length: 8.12261 Bohr) occupying 0.456735 of unit cell:	Completed after 24 iterations at t[s]:   5962.14
	FillingsUpdate:  mu: -0.155792374  nElectrons: 770.000000  magneticMoment: [ Abs: 0.00000  Tot: -0.00000 ]
ElecMinimize: Iter:   0  F: -8095.613872101324887  |grad|_K:  1.410e-06  alpha:  1.000e+00
	Linear fluid (dielectric constant: 78.4, screening length: 8.12261 Bohr) occupying 0.458965 of unit cell:	Completed after 19 iterations at t[s]:   6045.09
	Linear fluid (dielectric constant: 78.4, screening length: 8.12261 Bohr) occupying 0.458059 of unit cell:	Completed after 16 iterations at t[s]:   6074.82
	FillingsUpdate:  mu: -0.150802469  nElectrons: 770.000000  magneticMoment: [ Abs: 0.00000  Tot: -0.00000 ]
	SubspaceRotationAdjust: set factor to 0.567
ElecMinimize: Iter:   1  F: -8095.614164253463969  |grad|_K:  1.735e-06  alpha:  5.831e-01  linmin:  1.667e-07  t[s]:   6111.60
	Linear fluid (dielectric constant: 78.4, screening length: 8.12261 Bohr) occupying 0.460170 of unit cell:	Completed after 14 iterations at t[s]:   6151.00
	Linear fluid (dielectric constant: 78.4, screening length: 8.12261 Bohr) occupying 0.458632 of unit cell:	Completed after 13 iterations at t[s]:   6179.87
	FillingsUpdate:  mu: -0.151722322  nElectrons: 770.000000  magneticMoment: [ Abs: 0.00000  Tot: -0.00000 ]
	SubspaceRotationAdjust: set factor to 0.642
ElecMinimize: Iter:   2  F: -8095.614280174952000  |grad|_K:  1.379e-06  alpha:  1.516e-01  linmin:  2.728e-08  t[s]:   6216.84
	Linear fluid (dielectric constant: 78.4, screening length: 8.12261 Bohr) occupying 0.459033 of unit cell:	Completed after 10 iterations at t[s]:   6255.83
	Linear fluid (dielectric constant: 78.4, screening length: 8.12261 Bohr) occupying 0.459054 of unit cell:	Completed after 2 iterations at t[s]:   6282.39
	FillingsUpdate:  mu: -0.152429587  nElectrons: 770.000000  magneticMoment: [ Abs: 0.00000  Tot: -0.00000 ]
	SubspaceRotationAdjust: set factor to 0.78
ElecMinimize: Iter:   3  F: -8095.614357534926057  |grad|_K:  8.411e-07  alpha:  1.595e-01  linmin: -7.139e-09  t[s]:   6319.41
	Linear fluid (dielectric constant: 78.4, screening length: 8.12261 Bohr) occupying 0.459260 of unit cell:	Completed after 11 iterations at t[s]:   6358.45
	Linear fluid (dielectric constant: 78.4, screening length: 8.12261 Bohr) occupying 0.459375 of unit cell:	Completed after 11 iterations at t[s]:   6386.92
	FillingsUpdate:  mu: -0.151645331  nElectrons: 770.000000  magneticMoment: [ Abs: 0.00000  Tot: -0.00000 ]
	SubspaceRotationAdjust: set factor to 0.828
ElecMinimize: Iter:   4  F: -8095.614402612128288  |grad|_K:  5.630e-07  alpha:  2.494e-01  linmin:  8.093e-09  t[s]:   6423.76
	Linear fluid (dielectric constant: 78.4, screening length: 8.12261 Bohr) occupying 0.459534 of unit cell:	Completed after 10 iterations at t[s]:   6462.47
	Linear fluid (dielectric constant: 78.4, screening length: 8.12261 Bohr) occupying 0.459472 of unit cell:	Completed after 6 iterations at t[s]:   6490.03
	FillingsUpdate:  mu: -0.151539493  nElectrons: 770.000000  magneticMoment: [ Abs: 0.00000  Tot: -0.00000 ]
	SubspaceRotationAdjust: set factor to 0.905
ElecMinimize: Iter:   5  F: -8095.614414849949753  |grad|_K:  4.220e-07  alpha:  1.512e-01  linmin:  1.618e-08  t[s]:   6526.85
	Linear fluid (dielectric constant: 78.4, screening length: 8.12261 Bohr) occupying 0.459526 of unit cell:	Completed after 10 iterations at t[s]:   6565.52
	Linear fluid (dielectric constant: 78.4, screening length: 8.12261 Bohr) occupying 0.459545 of unit cell:	Completed after 2 iterations at t[s]:   6592.19
	FillingsUpdate:  mu: -0.151844464  nElectrons: 770.000000  magneticMoment: [ Abs: 0.00000  Tot: -0.00000 ]
	SubspaceRotationAdjust: set factor to 0.887
ElecMinimize: Iter:   6  F: -8095.614424120043623  |grad|_K:  3.034e-07  alpha:  2.036e-01  linmin: -1.621e-07  t[s]:   6629.06
	Linear fluid (dielectric constant: 78.4, screening length: 8.12261 Bohr) occupying 0.459590 of unit cell:	Completed after 3 iterations at t[s]:   6666.43
	Linear fluid (dielectric constant: 78.4, screening length: 8.12261 Bohr) occupying 0.459577 of unit cell:	Completed after 2 iterations at t[s]:   6693.06
	FillingsUpdate:  mu: -0.151838114  nElectrons: 770.000000  magneticMoment: [ Abs: 0.00000  Tot: -0.00000 ]
	SubspaceRotationAdjust: set factor to 0.916
ElecMinimize: Iter:   7  F: -8095.614427559735304  |grad|_K:  2.270e-07  alpha:  1.456e-01  linmin:  3.486e-08  t[s]:   6730.20
	Linear fluid (dielectric constant: 78.4, screening length: 8.12261 Bohr) occupying 0.459597 of unit cell:	Completed after 3 iterations at t[s]:   6767.93
	Linear fluid (dielectric constant: 78.4, screening length: 8.12261 Bohr) occupying 0.459601 of unit cell:	Completed after 2 iterations at t[s]:   6795.00
	FillingsUpdate:  mu: -0.151794046  nElectrons: 770.000000  magneticMoment: [ Abs: 0.00000  Tot: -0.00000 ]
	SubspaceRotationAdjust: set factor to 0.988
ElecMinimize: Iter:   8  F: -8095.614429825058323  |grad|_K:  1.473e-07  alpha:  1.724e-01  linmin:  2.275e-07  t[s]:   6831.96
	Linear fluid (dielectric constant: 78.4, screening length: 8.12261 Bohr) occupying 0.459610 of unit cell:	Completed after 2 iterations at t[s]:   6869.26
	Linear fluid (dielectric constant: 78.4, screening length: 8.12261 Bohr) occupying 0.459611 of unit cell:	Completed after 1 iterations at t[s]:   6895.76
	FillingsUpdate:  mu: -0.151761501  nElectrons: 770.000000  magneticMoment: [ Abs: 0.00000  Tot: -0.00000 ]
	SubspaceRotationAdjust: set factor to 1.01
ElecMinimize: Iter:   9  F: -8095.614430862300651  |grad|_K:  1.352e-07  alpha:  1.879e-01  linmin: -4.060e-06  t[s]:   6932.66
	Linear fluid (dielectric constant: 78.4, screening length: 8.12261 Bohr) occupying 0.459616 of unit cell:	Completed after 2 iterations at t[s]:   6969.85
	Linear fluid (dielectric constant: 78.4, screening length: 8.12261 Bohr) occupying 0.459616 of unit cell:	Completed after 0 iterations at t[s]:   6996.17
	FillingsUpdate:  mu: -0.151805901  nElectrons: 770.000000  magneticMoment: [ Abs: 0.00000  Tot: -0.00000 ]
	SubspaceRotationAdjust: set factor to 0.994
ElecMinimize: Iter:  10  F: -8095.614431691634309  |grad|_K:  9.122e-08  alpha:  1.763e-01  linmin:  1.393e-06  t[s]:   7033.07
	Linear fluid (dielectric constant: 78.4, screening length: 8.12261 Bohr) occupying 0.459618 of unit cell:	Completed after 2 iterations at t[s]:   7070.32
	Linear fluid (dielectric constant: 78.4, screening length: 8.12261 Bohr) occupying 0.459617 of unit cell:	Completed after 0 iterations at t[s]:   7096.45
	FillingsUpdate:  mu: -0.151760112  nElectrons: 770.000000  magneticMoment: [ Abs: 0.00000  Tot: -0.00000 ]
	SubspaceRotationAdjust: set factor to 1.03
ElecMinimize: Iter:  11  F: -8095.614432017538093  |grad|_K:  7.508e-08  alpha:  1.543e-01  linmin:  1.177e-06  t[s]:   7133.31
	Linear fluid (dielectric constant: 78.4, screening length: 8.12261 Bohr) occupying 0.459616 of unit cell:	Completed after 2 iterations at t[s]:   7170.52
	Linear fluid (dielectric constant: 78.4, screening length: 8.12261 Bohr) occupying 0.459616 of unit cell:	Completed after 0 iterations at t[s]:   7196.54
	FillingsUpdate:  mu: -0.151768452  nElectrons: 770.000000  magneticMoment: [ Abs: 0.00000  Tot: -0.00000 ]
	SubspaceRotationAdjust: set factor to 1.08
ElecMinimize: Iter:  12  F: -8095.614432280276560  |grad|_K:  5.526e-08  alpha:  1.840e-01  linmin: -2.388e-06  t[s]:   7233.35
	Linear fluid (dielectric constant: 78.4, screening length: 8.12261 Bohr) occupying 0.459613 of unit cell:	Completed after 1 iterations at t[s]:   7270.26
	Linear fluid (dielectric constant: 78.4, screening length: 8.12261 Bohr) occupying 0.459613 of unit cell:	Completed after 0 iterations at t[s]:   7296.37
	FillingsUpdate:  mu: -0.151781319  nElectrons: 770.000000  magneticMoment: [ Abs: 0.00000  Tot: +0.00000 ]
	SubspaceRotationAdjust: set factor to 1.12
ElecMinimize: Iter:  13  F: -8095.614432408558969  |grad|_K:  4.899e-08  alpha:  1.538e-01  linmin:  2.734e-06  t[s]:   7333.37
	Linear fluid (dielectric constant: 78.4, screening length: 8.12261 Bohr) occupying 0.459611 of unit cell:	Completed after 2 iterations at t[s]:   7370.57
	Linear fluid (dielectric constant: 78.4, screening length: 8.12261 Bohr) occupying 0.459610 of unit cell:	Completed after 0 iterations at t[s]:   7396.65
	FillingsUpdate:  mu: -0.151802406  nElectrons: 770.000000  magneticMoment: [ Abs: 0.00000  Tot: +0.00000 ]
	SubspaceRotationAdjust: set factor to 1.08
ElecMinimize: Iter:  14  F: -8095.614432504641627  |grad|_K:  3.590e-08  alpha:  1.663e-01  linmin: -3.833e-06  t[s]:   7433.51
	Linear fluid (dielectric constant: 78.4, screening length: 8.12261 Bohr) occupying 0.459610 of unit cell:	Completed after 2 iterations at t[s]:   7470.71
	Linear fluid (dielectric constant: 78.4, screening length: 8.12261 Bohr) occupying 0.459610 of unit cell:	Completed after 0 iterations at t[s]:   7496.85
	FillingsUpdate:  mu: -0.151792763  nElectrons: 770.000000  magneticMoment: [ Abs: 0.00000  Tot: +0.00000 ]
	SubspaceRotationAdjust: set factor to 1.14
ElecMinimize: Iter:  15  F: -8095.614432556775682  |grad|_K:  2.548e-08  alpha:  1.433e-01  linmin:  2.224e-06  t[s]:   7533.75
ElecMinimize: Converged (|Delta F|<1.000000e-07 for 2 iters).
Setting wave functions to eigenvectors of Hamiltonian
Converging empty states (this may take a while): |deigs|: 1.532e-04
Single-point solvation energy estimate, DeltaF = -0.001117510190852

Computing DFT-D3 correction:
# coordination-number Cu 8.287 8.290 8.288 8.914 8.918 8.918 8.918 8.919 9.035 9.035 9.035 9.035 6.874 6.874 6.874 6.874 5.198 4.988 4.945 5.891 9.030 9.029 9.029 9.036 8.920 8.920 8.920 8.920 8.294 8.294 8.294 8.294 4.947 4.947 4.947 4.947 6.870 6.937 6.875 7.868
# coordination-number C 3.866
# coordination-number O 1.115
# diagonal-C6 Cu 175.00 175.00 175.00 175.00 175.00 175.00 175.00 175.00 175.00 175.00 175.00 175.00 175.00 175.00 175.00 175.00 175.00 175.00 175.00 175.00 175.00 175.00 175.00 175.00 175.00 175.00 175.00 175.00 175.00 175.00 175.00 175.00 175.00 175.00 175.00 175.00 175.00 175.00 175.00 175.00
# diagonal-C6 C 18.54
# diagonal-C6 O 12.71
EvdW_6 =   -0.208063
EvdW_8 =   -0.326352

# Ionic positions in cartesian coordinates:
ion Cu   3.374454999999999   1.518659000000000  11.420712999999997 0
ion Cu   0.003943000000000   9.055351000000002  11.420712999999997 0
ion Cu  10.115479000000001   1.518659000000000  11.420712999999997 0
ion Cu   6.744966999999997   9.055351000000002  11.420712999999997 0
ion Cu   0.000344000000000   2.995850000000000   8.272439999999998 0
ion Cu  -3.370168000000001  10.532543000000000   8.272439999999998 0
ion Cu   6.741367000000000   2.995850000000000   8.272439999999998 0
ion Cu   3.370855999999998  10.532543000000000   8.272439999999998 0
ion Cu   3.367713999999999   4.556338000000000   5.270771000000000 0
ion Cu  -0.002791000000002  12.093015000000001   5.270771000000000 0
ion Cu  10.108750999999998   4.556338000000000   5.270771000000000 0
ion Cu   6.738232999999997  12.093015000000001   5.270771000000000 0
ion Cu  -0.002959000000001   6.045498000000001   2.187299000000000 0
ion Cu  -3.373471000000001  13.582190000000002   2.187299000000000 0
ion Cu   6.738077999999999   6.045498000000001   2.187299000000000 0
ion Cu   3.367565999999998  13.582190000000002   2.187299000000000 0
ion Cu   6.744669999999997  15.039877000000001  14.212244000000000 0
ion Cu  10.115181999999999   7.503185000000001  14.212244000000000 0
ion Cu   0.003646999999998  15.039877000000001  14.212244000000000 0
ion Cu   3.374158999999998   7.503185000000001  14.212244000000000 0
ion Cu   3.373288999999999   5.995801000000001   9.801515000000000 0
ion Cu   0.002770999999998  13.532508999999999   9.801515000000000 0
ion Cu  10.114312999999997   5.995801000000001   9.801515000000000 0
ion Cu   6.743807999999997  13.532508999999999   9.801515000000000 0
ion Cu   3.370235000000000   0.020545000000000   6.798760999999999 0
ion Cu  -0.000276000000001   7.557238000000001   6.798760999999999 0
ion Cu  10.111258999999999   0.020545000000000   6.798760999999999 0
ion Cu   6.740746999999999   7.557238000000001   6.798760999999999 0
ion Cu  -0.004564000000000   1.496471000000000   3.652749000000000 0
ion Cu  -3.375075000000001   9.033163000000002   3.652749000000000 0
ion Cu   6.736459999999999   1.496471000000000   3.652749000000000 0
ion Cu   3.365947999999998   9.033163000000002   3.652749000000000 0
ion Cu   3.366999999999999   3.046346000000001   0.863298000000000 0
ion Cu  -0.003519000000002  10.583054000000001   0.863298000000000 0
ion Cu  10.108022999999998   3.046346000000001   0.863298000000000 0
ion Cu   6.737504999999997  10.583054000000001   0.863298000000000 0
ion Cu   0.003383999999999   4.504741000000000  12.887157999999999 0
ion Cu  -3.367128000000000  12.041434000000001  12.887157999999999 0
ion Cu   6.744406999999997   4.504741000000000  12.887157999999999 0
ion Cu   3.373895999999998  12.041434000000001  12.887157999999999 0
ion C   5.620995999999998  10.528684000000000  15.299517999999999 1  Linear 0 0 1
ion O   5.681084999999999  10.528684000000000  17.454846000000000 1  Linear 0 0 1

# Forces in Cartesian coordinates:
force Cu  -0.000459172795225   0.001118202673910   0.000869612128846 0
force Cu  -0.002504051693320   0.000265057363211  -0.001712853012511 0
force Cu  -0.000500785128619   0.000563261949264  -0.000163527032376 0
force Cu   0.003887119257959  -0.002268618810444   0.000284819738277 0
force Cu  -0.000527114190233   0.000744384522904   0.000467447869184 0
force Cu  -0.000885507748342   0.000079155109729   0.000738334063676 0
force Cu  -0.000631392157542  -0.000508542427452  -0.000360972116851 0
force Cu  -0.000457183509241   0.000071809576900  -0.000463277312304 0
force Cu   0.000215166476901  -0.000054456851903  -0.000662259853271 0
force Cu   0.000440790746606   0.000696481310168  -0.000022069514670 0
force Cu   0.000066528750547   0.000663247904780  -0.000383146673346 0
force Cu   0.000098681559069   0.000155355895030  -0.000697923727577 0
force Cu  -0.000056950956878   0.000220939852096   0.000262405870796 0
force Cu   0.000180636595257   0.000102062815007   0.000756452948622 0
force Cu  -0.000080270699155   0.000235816984359   0.000311578386438 0
force Cu  -0.000404026883237  -0.000252838715346   0.000666964734596 0
force Cu   0.000630166725619   0.002925521700363  -0.002004133487097 0
force Cu   0.003683672051617  -0.002397412984911  -0.001760804021893 0
force Cu  -0.000899187342450   0.000063911978258  -0.000535023484635 0
force Cu  -0.004833793034434  -0.007334737525570  -0.003951624012841 0
force Cu  -0.000332571331177  -0.000746811532257  -0.000332756635694 0
force Cu   0.001075653632446  -0.001020757838958   0.001015358058198 0
force Cu  -0.000126167254246  -0.000609089340317   0.000632031848246 0
force Cu   0.001512415463318   0.002742985853574  -0.005780194356134 0
force Cu   0.000485578506192   0.000519866891334   0.000428549321547 0
force Cu  -0.000089861300730  -0.000134370730800  -0.000650826863229 0
force Cu  -0.000281792468170  -0.000190849116127  -0.000270214393488 0
force Cu  -0.000267538480970   0.000281328759589   0.001026497474417 0
force Cu   0.000568097122849  -0.000853263267156   0.000297153673377 0
force Cu  -0.000119714724027  -0.000382081420872   0.000008156824421 0
force Cu   0.000374953100934  -0.000734875746325  -0.000516742406384 0
force Cu   0.000061416250540  -0.000256402552013   0.000222120813610 0
force Cu   0.000264637374630   0.000462572441912  -0.000238449807980 0
force Cu   0.000082000945600   0.000411363585973  -0.000211674990307 0
force Cu  -0.000198076181231   0.000391043177075  -0.000335651637285 0
force Cu  -0.000046236455457   0.000216181148570  -0.000362998710972 0
force Cu   0.001068551805962  -0.000423301201859   0.000637341263147 0
force Cu   0.004468649694226   0.000830510698221  -0.001231471686471 0
force Cu   0.000554412533975  -0.003415071977631  -0.001526031449799 0
force Cu  -0.008948604273475   0.007951824239768  -0.007450847741593 0
force C  -0.011020298726629   0.001086810025362  -0.089702532645746 1  Linear 0 0 1
force O   0.014054116048965  -0.001334791036636   0.112565920184936 1  Linear 0 0 1

# Energy components:
   A_diel =       -0.0018343355600631
   Eewald =    25391.0340951096841309
       EH =    32804.9727430756320246
     Eloc =   -67815.9853817769180750
      Enl =     1468.1255526215588816
     EvdW =       -0.5344148778531922
      Exc =     -781.4912411050363517
 Exc_core =        1.9776356545827625
       KE =      836.2896836627360244
-------------------------------------
     Etot =    -8095.6131619711732128
       TS =        0.0012705856024834
-------------------------------------
        F =    -8095.6144325567756823


Dumping 'jdft.fillings' ... done
Dumping 'jdft.wfns' ... done
Dumping 'jdft.fluidState' ... done
Dumping 'jdft.ionpos' ... done
Dumping 'jdft.lattice' ... done
Dumping 'jdft.eigenvals' ... done
Dumping 'jdft.eigStats' ... 
	eMin: -4.308130 at state 7 ( [ +0.000000 +0.000000 +0.000000 ] spin -1 )
	HOMO: -0.152341 at state 2 ( [ +0.250000 +0.000000 +0.000000 ] spin 1 )
	mu  : -0.151793
	LUMO: -0.151346 at state 0 ( [ +0.000000 +0.000000 +0.000000 ] spin 1 )
	eMax: +0.178500 at state 2 ( [ +0.250000 +0.000000 +0.000000 ] spin 1 )
	HOMO-LUMO gap: +0.000996
	Optical gap  : +0.002850 at state 13 ( [ +0.500000 +0.333333 +0.000000 ] spin -1 )
Dumping 'jdft.Ecomponents' ... done
IonicMinimize: Iter:   0  F: -8095.614432556775682  |grad|_K:  1.018e-01  t[s]:   7998.15

#--- Lowdin population analysis ---
# oxidation-state Cu +0.024 +0.026 +0.024 +0.033 +0.075 +0.072 +0.074 +0.069 +0.046 +0.046 +0.046 +0.047 +0.058 +0.056 +0.056 +0.057 +0.229 +0.239 +0.241 +0.180 +0.046 +0.049 +0.045 +0.052 +0.073 +0.075 +0.077 +0.076 +0.029 +0.027 +0.026 +0.025 +0.239 +0.242 +0.242 +0.241 +0.056 +0.056 +0.062 -0.021
# magnetic-moments Cu -0.000 -0.000 -0.000 -0.000 -0.000 -0.000 -0.000 -0.000 -0.000 -0.000 -0.000 -0.000 -0.000 -0.000 -0.000 -0.000 -0.000 -0.000 -0.000 -0.000 -0.000 -0.000 -0.000 -0.000 -0.000 -0.000 -0.000 -0.000 -0.000 -0.000 -0.000 -0.000 -0.000 -0.000 -0.000 -0.000 -0.000 -0.000 -0.000 -0.000
# oxidation-state C +0.327
# magnetic-moments C +0.000
# oxidation-state O -0.147
# magnetic-moments O -0.000


Computing DFT-D3 correction:
# coordination-number Cu 8.287 8.290 8.288 8.977 8.918 8.918 8.918 8.919 9.035 9.035 9.035 9.035 6.874 6.874 6.874 6.874 5.207 4.989 4.945 5.892 9.030 9.029 9.029 9.037 8.920 8.920 8.920 8.920 8.294 8.294 8.294 8.294 4.947 4.947 4.947 4.947 6.870 6.943 6.875 7.870
# coordination-number C 3.964
# coordination-number O 1.099
# diagonal-C6 Cu 175.00 175.00 175.00 175.00 175.00 175.00 175.00 175.00 175.00 175.00 175.00 175.00 175.00 175.00 175.00 175.00 175.00 175.00 175.00 175.00 175.00 175.00 175.00 175.00 175.00 175.00 175.00 175.00 175.00 175.00 175.00 175.00 175.00 175.00 175.00 175.00 175.00 175.00 175.00 175.00
# diagonal-C6 C 18.36
# diagonal-C6 O 12.73
EvdW_6 =   -0.208032
EvdW_8 =   -0.326372

-------- Electronic minimization -----------
	Linear fluid (dielectric constant: 78.4, screening length: 8.12261 Bohr) occupying 0.459539 of unit cell:	Completed after 21 iterations at t[s]:   8039.46
	FillingsUpdate:  mu: -0.148567019  nElectrons: 770.000000  magneticMoment: [ Abs: 0.00000  Tot: -0.00000 ]
ElecMinimize: Iter:   0  F: -8095.498911174805471  |grad|_K:  2.927e-05  alpha:  1.000e+00
	Linear fluid (dielectric constant: 78.4, screening length: 8.12261 Bohr) occupying 0.458308 of unit cell:	Completed after 22 iterations at t[s]:   8123.11
	Linear fluid (dielectric constant: 78.4, screening length: 8.12261 Bohr) occupying 0.458781 of unit cell:	Completed after 20 iterations at t[s]:   8153.71
	FillingsUpdate:  mu: -0.147262224  nElectrons: 770.000000  magneticMoment: [ Abs: 0.00000  Tot: +0.00000 ]
	SubspaceRotationAdjust: set factor to 0.777
ElecMinimize: Iter:   1  F: -8095.597175245718972  |grad|_K:  2.117e-05  alpha:  4.448e-01  linmin: -9.677e-05  t[s]:   8190.68
	Linear fluid (dielectric constant: 78.4, screening length: 8.12261 Bohr) occupying 0.466935 of unit cell:	Completed after 26 iterations at t[s]:   8232.66
	Linear fluid (dielectric constant: 78.4, screening length: 8.12261 Bohr) occupying 0.458409 of unit cell:	Completed after 23 iterations at t[s]:   8264.07
	FillingsUpdate:  mu: -0.157600982  nElectrons: 770.000000  magneticMoment: [ Abs: 0.00000  Tot: +0.00000 ]
	SubspaceRotationAdjust: set factor to 0.702
ElecMinimize: Iter:   2  F: -8095.607926922270053  |grad|_K:  1.113e-05  alpha:  8.501e-02  linmin: -7.892e-04  t[s]:   8300.98
	Linear fluid (dielectric constant: 78.4, screening length: 8.12261 Bohr) occupying 0.458524 of unit cell:	Completed after 18 iterations at t[s]:   8341.46
	Linear fluid (dielectric constant: 78.4, screening length: 8.12261 Bohr) occupying 0.458648 of unit cell:	Completed after 17 iterations at t[s]:   8371.40
	FillingsUpdate:  mu: -0.160757970  nElectrons: 770.000000  magneticMoment: [ Abs: 0.00000  Tot: -0.00000 ]
	SubspaceRotationAdjust: set factor to 0.888
ElecMinimize: Iter:   3  F: -8095.613172542922257  |grad|_K:  8.113e-06  alpha:  1.534e-01  linmin:  1.916e-04  t[s]:   8408.40
	Linear fluid (dielectric constant: 78.4, screening length: 8.12261 Bohr) occupying 0.459000 of unit cell:	Completed after 19 iterations at t[s]:   8449.03
	Linear fluid (dielectric constant: 78.4, screening length: 8.12261 Bohr) occupying 0.459016 of unit cell:	Completed after 8 iterations at t[s]:   8477.33
	FillingsUpdate:  mu: -0.156048487  nElectrons: 770.000000  magneticMoment: [ Abs: 0.00000  Tot: -0.00000 ]
	SubspaceRotationAdjust: set factor to 0.956
ElecMinimize: Iter:   4  F: -8095.615811939500418  |grad|_K:  4.964e-06  alpha:  1.602e-01  linmin:  7.410e-06  t[s]:   8514.23
	Linear fluid (dielectric constant: 78.4, screening length: 8.12261 Bohr) occupying 0.459218 of unit cell:	Completed after 18 iterations at t[s]:   8554.65
	Linear fluid (dielectric constant: 78.4, screening length: 8.12261 Bohr) occupying 0.459242 of unit cell:	Completed after 10 iterations at t[s]:   8583.33
	FillingsUpdate:  mu: -0.152840823  nElectrons: 770.000000  magneticMoment: [ Abs: 0.00000  Tot: -0.00000 ]
	SubspaceRotationAdjust: set factor to 1.04
ElecMinimize: Iter:   5  F: -8095.616940597551547  |grad|_K:  3.582e-06  alpha:  1.796e-01  linmin:  2.146e-06  t[s]:   8620.19
	Linear fluid (dielectric constant: 78.4, screening length: 8.12261 Bohr) occupying 0.459375 of unit cell:	Completed after 18 iterations at t[s]:   8660.64
	Linear fluid (dielectric constant: 78.4, screening length: 8.12261 Bohr) occupying 0.459340 of unit cell:	Completed after 12 iterations at t[s]:   8689.89
	FillingsUpdate:  mu: -0.154521886  nElectrons: 770.000000  magneticMoment: [ Abs: 0.00000  Tot: -0.00000 ]
	SubspaceRotationAdjust: set factor to 0.955
ElecMinimize: Iter:   6  F: -8095.617378743781956  |grad|_K:  2.412e-06  alpha:  1.338e-01  linmin: -6.071e-07  t[s]:   8726.65
	Linear fluid (dielectric constant: 78.4, screening length: 8.12261 Bohr) occupying 0.459385 of unit cell:	Completed after 16 iterations at t[s]:   8766.83
	Linear fluid (dielectric constant: 78.4, screening length: 8.12261 Bohr) occupying 0.459406 of unit cell:	Completed after 12 iterations at t[s]:   8795.99
	FillingsUpdate:  mu: -0.156784897  nElectrons: 770.000000  magneticMoment: [ Abs: 0.00000  Tot: -0.00000 ]
	SubspaceRotationAdjust: set factor to 0.925
ElecMinimize: Iter:   7  F: -8095.617677235186420  |grad|_K:  2.066e-06  alpha:  2.010e-01  linmin:  6.834e-06  t[s]:   8833.25
	Linear fluid (dielectric constant: 78.4, screening length: 8.12261 Bohr) occupying 0.459610 of unit cell:	Completed after 15 iterations at t[s]:   8873.24
	Linear fluid (dielectric constant: 78.4, screening length: 8.12261 Bohr) occupying 0.459546 of unit cell:	Completed after 10 iterations at t[s]:   8901.83
	FillingsUpdate:  mu: -0.155092250  nElectrons: 770.000000  magneticMoment: [ Abs: 0.00000  Tot: -0.00000 ]
	SubspaceRotationAdjust: set factor to 1.1
ElecMinimize: Iter:   8  F: -8095.617827057535578  |grad|_K:  1.270e-06  alpha:  1.376e-01  linmin:  9.219e-07  t[s]:   8938.72
	Linear fluid (dielectric constant: 78.4, screening length: 8.12261 Bohr) occupying 0.459628 of unit cell:	Completed after 11 iterations at t[s]:   8977.86
	Linear fluid (dielectric constant: 78.4, screening length: 8.12261 Bohr) occupying 0.459641 of unit cell:	Completed after 7 iterations at t[s]:   9007.15
	FillingsUpdate:  mu: -0.153987366  nElectrons: 770.000000  magneticMoment: [ Abs: 0.00000  Tot: -0.00000 ]
	SubspaceRotationAdjust: set factor to 1.15
ElecMinimize: Iter:   9  F: -8095.617893068366357  |grad|_K:  1.063e-06  alpha:  1.603e-01  linmin: -1.580e-06  t[s]:   9043.83
	Linear fluid (dielectric constant: 78.4, screening length: 8.12261 Bohr) occupying 0.459695 of unit cell:	Completed after 15 iterations at t[s]:   9083.71
	Linear fluid (dielectric constant: 78.4, screening length: 8.12261 Bohr) occupying 0.459685 of unit cell:	Completed after 8 iterations at t[s]:   9111.90
	FillingsUpdate:  mu: -0.154610302  nElectrons: 770.000000  magneticMoment: [ Abs: 0.00000  Tot: -0.00000 ]
	SubspaceRotationAdjust: set factor to 0.945
ElecMinimize: Iter:  10  F: -8095.617930932177842  |grad|_K:  7.022e-07  alpha:  1.312e-01  linmin:  3.887e-06  t[s]:   9148.73
	Linear fluid (dielectric constant: 78.4, screening length: 8.12261 Bohr) occupying 0.459669 of unit cell:	Completed after 11 iterations at t[s]:   9187.79
	Linear fluid (dielectric constant: 78.4, screening length: 8.12261 Bohr) occupying 0.459669 of unit cell:	Completed after 2 iterations at t[s]:   9214.80
	FillingsUpdate:  mu: -0.155059773  nElectrons: 770.000000  magneticMoment: [ Abs: 0.00000  Tot: -0.00000 ]
	SubspaceRotationAdjust: set factor to 0.798
ElecMinimize: Iter:  11  F: -8095.617946915683206  |grad|_K:  4.881e-07  alpha:  1.269e-01  linmin: -3.954e-06  t[s]:   9251.62
	Linear fluid (dielectric constant: 78.4, screening length: 8.12261 Bohr) occupying 0.459675 of unit cell:	Completed after 7 iterations at t[s]:   9290.01
	Linear fluid (dielectric constant: 78.4, screening length: 8.12261 Bohr) occupying 0.459678 of unit cell:	Completed after 6 iterations at t[s]:   9317.74
	FillingsUpdate:  mu: -0.154868305  nElectrons: 770.000000  magneticMoment: [ Abs: 0.00000  Tot: -0.00000 ]
	SubspaceRotationAdjust: set factor to 0.906
ElecMinimize: Iter:  12  F: -8095.617957919941546  |grad|_K:  3.732e-07  alpha:  1.808e-01  linmin:  1.107e-05  t[s]:   9354.66
	Linear fluid (dielectric constant: 78.4, screening length: 8.12261 Bohr) occupying 0.459694 of unit cell:	Completed after 10 iterations at t[s]:   9393.56
	Linear fluid (dielectric constant: 78.4, screening length: 8.12261 Bohr) occupying 0.459692 of unit cell:	Completed after 2 iterations at t[s]:   9420.68
	FillingsUpdate:  mu: -0.154650296  nElectrons: 770.000000  magneticMoment: [ Abs: 0.00000  Tot: -0.00000 ]
	SubspaceRotationAdjust: set factor to 0.941
ElecMinimize: Iter:  13  F: -8095.617963557603616  |grad|_K:  2.927e-07  alpha:  1.587e-01  linmin:  1.701e-05  t[s]:   9457.48
	Linear fluid (dielectric constant: 78.4, screening length: 8.12261 Bohr) occupying 0.459699 of unit cell:	Completed after 8 iterations at t[s]:   9496.13
	Linear fluid (dielectric constant: 78.4, screening length: 8.12261 Bohr) occupying 0.459700 of unit cell:	Completed after 2 iterations at t[s]:   9523.25
	FillingsUpdate:  mu: -0.154789113  nElectrons: 770.000000  magneticMoment: [ Abs: 0.00000  Tot: -0.00000 ]
	SubspaceRotationAdjust: set factor to 1.04
ElecMinimize: Iter:  14  F: -8095.617967498523285  |grad|_K:  2.185e-07  alpha:  1.805e-01  linmin: -3.243e-06  t[s]:   9560.01
	Linear fluid (dielectric constant: 78.4, screening length: 8.12261 Bohr) occupying 0.459700 of unit cell:	Completed after 8 iterations at t[s]:   9598.62
	Linear fluid (dielectric constant: 78.4, screening length: 8.12261 Bohr) occupying 0.459700 of unit cell:	Completed after 2 iterations at t[s]:   9625.78
	FillingsUpdate:  mu: -0.154860847  nElectrons: 770.000000  magneticMoment: [ Abs: 0.00000  Tot: -0.00000 ]
	SubspaceRotationAdjust: set factor to 0.884
ElecMinimize: Iter:  15  F: -8095.617969412597631  |grad|_K:  1.681e-07  alpha:  1.567e-01  linmin:  2.223e-05  t[s]:   9662.59
	Linear fluid (dielectric constant: 78.4, screening length: 8.12261 Bohr) occupying 0.459706 of unit cell:	Completed after 6 iterations at t[s]:   9700.82
[...]
ElecMinimize: Iter:   4  F: -8095.624162649887694  |grad|_K:  2.825e-08  alpha:  1.823e-01  linmin: -1.493e-04  t[s]:  31134.82
	Linear fluid (dielectric constant: 78.4, screening length: 8.12261 Bohr) occupying 0.456344 of unit cell:	Completed after 2 iterations at t[s]:  31172.19
	Linear fluid (dielectric constant: 78.4, screening length: 8.12261 Bohr) occupying 0.456343 of unit cell:	Completed after 2 iterations at t[s]:  31199.07
	FillingsUpdate:  mu: -0.153725409  nElectrons: 770.000000  magneticMoment: [ Abs: 0.00000  Tot: -0.00000 ]
	SubspaceRotationAdjust: set factor to 1.4
ElecMinimize: Iter:   5  F: -8095.624162668425015  |grad|_K:  1.913e-08  alpha:  1.004e-01  linmin:  7.078e-06  t[s]:  31235.84
	Linear fluid (dielectric constant: 78.4, screening length: 8.12261 Bohr) occupying 0.456343 of unit cell:	Completed after 0 iterations at t[s]:  31272.68
ElecMinimize: 	Predicted alpha/alphaT>3.000000, increasing alphaT to 3.012821e-01.
	Linear fluid (dielectric constant: 78.4, screening length: 8.12261 Bohr) occupying 0.456344 of unit cell:	Completed after 2 iterations at t[s]:  31299.61
	Linear fluid (dielectric constant: 78.4, screening length: 8.12261 Bohr) occupying 0.456344 of unit cell:	Completed after 1 iterations at t[s]:  31326.32
	FillingsUpdate:  mu: -0.153736455  nElectrons: 770.000000  magneticMoment: [ Abs: 0.00000  Tot: -0.00000 ]
	SubspaceRotationAdjust: set factor to 1.1
ElecMinimize: Iter:   6  F: -8095.624162684053772  |grad|_K:  1.722e-08  alpha:  1.622e-01  linmin:  7.700e-04  t[s]:  31363.18
ElecMinimize: Converged (|Delta F|<1.000000e-07 for 2 iters).
Setting wave functions to eigenvectors of Hamiltonian
Converging empty states (this may take a while): |deigs|: 8.882e-10

Computing DFT-D3 correction:
# coordination-number Cu 8.287 8.289 8.288 8.588 8.918 8.918 8.918 8.918 9.035 9.035 9.035 9.035 6.874 6.874 6.874 6.874 5.134 4.978 4.945 5.782 9.029 9.029 9.028 9.032 8.920 8.920 8.920 8.920 8.294 8.294 8.294 8.294 4.947 4.947 4.947 4.947 6.870 6.912 6.874 7.770
# coordination-number C 3.285
# coordination-number O 1.055
# diagonal-C6 Cu 175.00 175.00 175.00 175.00 175.00 175.00 175.00 175.00 175.00 175.00 175.00 175.00 175.00 175.00 175.00 175.00 175.00 175.00 175.00 175.00 175.00 175.00 175.00 175.00 175.00 175.00 175.00 175.00 175.00 175.00 175.00 175.00 175.00 175.00 175.00 175.00 175.00 175.00 175.00 175.00
# diagonal-C6 C 24.42
# diagonal-C6 O 12.77
EvdW_6 =   -0.208419
EvdW_8 =   -0.326609
IonicMinimize: 	Wolfe criterion not satisfied: alpha: 1  (E-E0)/|gdotd0|: 0.169644  gdotd/gdotd0: -1.04014 (taking cubic step)

Computing DFT-D3 correction:
# coordination-number Cu 8.287 8.289 8.288 8.588 8.918 8.918 8.918 8.918 9.035 9.035 9.035 9.035 6.874 6.874 6.874 6.874 5.135 4.978 4.945 5.783 9.029 9.029 9.028 9.032 8.920 8.920 8.920 8.920 8.294 8.294 8.294 8.294 4.947 4.947 4.947 4.947 6.870 6.912 6.874 7.770
# coordination-number C 3.287
# coordination-number O 1.055
# diagonal-C6 Cu 175.00 175.00 175.00 175.00 175.00 175.00 175.00 175.00 175.00 175.00 175.00 175.00 175.00 175.00 175.00 175.00 175.00 175.00 175.00 175.00 175.00 175.00 175.00 175.00 175.00 175.00 175.00 175.00 175.00 175.00 175.00 175.00 175.00 175.00 175.00 175.00 175.00 175.00 175.00 175.00
# diagonal-C6 C 24.40
# diagonal-C6 O 12.77
EvdW_6 =   -0.208418
EvdW_8 =   -0.326609

-------- Electronic minimization -----------
	Linear fluid (dielectric constant: 78.4, screening length: 8.12261 Bohr) occupying 0.456356 of unit cell:	Completed after 5 iterations at t[s]:  31510.49
	FillingsUpdate:  mu: -0.153687610  nElectrons: 770.000000  magneticMoment: [ Abs: 0.00000  Tot: -0.00000 ]
ElecMinimize: Iter:   0  F: -8095.624162131534831  |grad|_K:  1.361e-07  alpha:  1.000e+00
	Linear fluid (dielectric constant: 78.4, screening length: 8.12261 Bohr) occupying 0.456343 of unit cell:	Completed after 13 iterations at t[s]:  31592.26
	Linear fluid (dielectric constant: 78.4, screening length: 8.12261 Bohr) occupying 0.456355 of unit cell:	Completed after 11 iterations at t[s]:  31621.10
	FillingsUpdate:  mu: -0.153760351  nElectrons: 770.000000  magneticMoment: [ Abs: 0.00000  Tot: -0.00000 ]
	SubspaceRotationAdjust: set factor to 1.25
ElecMinimize: Iter:   1  F: -8095.624162495644669  |grad|_K:  6.302e-08  alpha:  7.501e-02  linmin: -2.531e-05  t[s]:  31658.02
	Linear fluid (dielectric constant: 78.4, screening length: 8.12261 Bohr) occupying 0.456355 of unit cell:	Completed after 2 iterations at t[s]:  31695.57
	Linear fluid (dielectric constant: 78.4, screening length: 8.12261 Bohr) occupying 0.456355 of unit cell:	Completed after 2 iterations at t[s]:  31722.47
	FillingsUpdate:  mu: -0.153731054  nElectrons: 770.000000  magneticMoment: [ Abs: 0.00000  Tot: -0.00000 ]
	SubspaceRotationAdjust: set factor to 1.22
ElecMinimize: Iter:   2  F: -8095.624162647019148  |grad|_K:  3.916e-08  alpha:  1.404e-01  linmin: -1.390e-03  t[s]:  31759.34
	Linear fluid (dielectric constant: 78.4, screening length: 8.12261 Bohr) occupying 0.456355 of unit cell:	Completed after 3 iterations at t[s]:  31796.95
	Linear fluid (dielectric constant: 78.4, screening length: 8.12261 Bohr) occupying 0.456354 of unit cell:	Completed after 0 iterations at t[s]:  31823.57
	FillingsUpdate:  mu: -0.153728556  nElectrons: 770.000000  magneticMoment: [ Abs: 0.00000  Tot: -0.00000 ]
	SubspaceRotationAdjust: set factor to 1.1
ElecMinimize: Iter:   3  F: -8095.624162727190196  |grad|_K:  3.297e-08  alpha:  1.829e-01  linmin: -7.180e-04  t[s]:  31860.32
	Linear fluid (dielectric constant: 78.4, screening length: 8.12261 Bohr) occupying 0.456355 of unit cell:	Completed after 2 iterations at t[s]:  31897.82
	Linear fluid (dielectric constant: 78.4, screening length: 8.12261 Bohr) occupying 0.456355 of unit cell:	Completed after 0 iterations at t[s]:  31924.20
	FillingsUpdate:  mu: -0.153722519  nElectrons: 770.000000  magneticMoment: [ Abs: 0.00000  Tot: -0.00000 ]
	SubspaceRotationAdjust: set factor to 1.22
ElecMinimize: Iter:   4  F: -8095.624162770646763  |grad|_K:  3.225e-08  alpha:  1.325e-01  linmin:  7.949e-04  t[s]:  31961.06
ElecMinimize: Converged (|Delta F|<1.000000e-07 for 2 iters).
Setting wave functions to eigenvectors of Hamiltonian
Converging empty states (this may take a while): |deigs|: 7.519e-10

Computing DFT-D3 correction:
# coordination-number Cu 8.287 8.289 8.288 8.588 8.918 8.918 8.918 8.918 9.035 9.035 9.035 9.035 6.874 6.874 6.874 6.874 5.135 4.978 4.945 5.783 9.029 9.029 9.028 9.032 8.920 8.920 8.920 8.920 8.294 8.294 8.294 8.294 4.947 4.947 4.947 4.947 6.870 6.912 6.874 7.770
# coordination-number C 3.287
# coordination-number O 1.055
# diagonal-C6 Cu 175.00 175.00 175.00 175.00 175.00 175.00 175.00 175.00 175.00 175.00 175.00 175.00 175.00 175.00 175.00 175.00 175.00 175.00 175.00 175.00 175.00 175.00 175.00 175.00 175.00 175.00 175.00 175.00 175.00 175.00 175.00 175.00 175.00 175.00 175.00 175.00 175.00 175.00 175.00 175.00
# diagonal-C6 C 24.40
# diagonal-C6 O 12.77
EvdW_6 =   -0.208418
EvdW_8 =   -0.326609
IonicMinimize: 	Wolfe criterion not satisfied: alpha: 0.385914  (E-E0)/|gdotd0|: 0.00897106  gdotd/gdotd0: -0.561932 (taking cubic step)

Computing DFT-D3 correction:
# coordination-number Cu 8.287 8.289 8.288 8.589 8.918 8.918 8.918 8.918 9.035 9.035 9.035 9.035 6.874 6.874 6.874 6.874 5.135 4.978 4.945 5.783 9.029 9.029 9.028 9.032 8.920 8.920 8.920 8.920 8.294 8.294 8.294 8.294 4.947 4.947 4.947 4.947 6.870 6.912 6.874 7.770
# coordination-number C 3.287
# coordination-number O 1.055
# diagonal-C6 Cu 175.00 175.00 175.00 175.00 175.00 175.00 175.00 175.00 175.00 175.00 175.00 175.00 175.00 175.00 175.00 175.00 175.00 175.00 175.00 175.00 175.00 175.00 175.00 175.00 175.00 175.00 175.00 175.00 175.00 175.00 175.00 175.00 175.00 175.00 175.00 175.00 175.00 175.00 175.00 175.00
# diagonal-C6 C 24.40
# diagonal-C6 O 12.77
EvdW_6 =   -0.208418
EvdW_8 =   -0.326609

-------- Electronic minimization -----------
	Linear fluid (dielectric constant: 78.4, screening length: 8.12261 Bohr) occupying 0.456358 of unit cell:	Completed after 3 iterations at t[s]:  32108.83
	FillingsUpdate:  mu: -0.153741109  nElectrons: 770.000000  magneticMoment: [ Abs: 0.00000  Tot: -0.00000 ]
ElecMinimize: Iter:   0  F: -8095.624162472812714  |grad|_K:  1.177e-07  alpha:  1.000e+00
	Linear fluid (dielectric constant: 78.4, screening length: 8.12261 Bohr) occupying 0.456361 of unit cell:	Completed after 9 iterations at t[s]:  32190.18
	Linear fluid (dielectric constant: 78.4, screening length: 8.12261 Bohr) occupying 0.456358 of unit cell:	Completed after 10 iterations at t[s]:  32218.54
	FillingsUpdate:  mu: -0.153728302  nElectrons: 770.000000  magneticMoment: [ Abs: 0.00000  Tot: -0.00000 ]
	SubspaceRotationAdjust: set factor to 0.898
ElecMinimize: Iter:   1  F: -8095.624162697449719  |grad|_K:  4.756e-08  alpha:  6.305e-02  linmin: -2.096e-05  t[s]:  32255.40
	Linear fluid (dielectric constant: 78.4, screening length: 8.12261 Bohr) occupying 0.456357 of unit cell:	Completed after 2 iterations at t[s]:  32292.78
	Linear fluid (dielectric constant: 78.4, screening length: 8.12261 Bohr) occupying 0.456356 of unit cell:	Completed after 2 iterations at t[s]:  32319.71
	FillingsUpdate:  mu: -0.153720395  nElectrons: 770.000000  magneticMoment: [ Abs: 0.00000  Tot: -0.00000 ]
	SubspaceRotationAdjust: set factor to 0.643
ElecMinimize: Iter:   2  F: -8095.624162775739933  |grad|_K:  2.340e-08  alpha:  1.342e-01  linmin: -2.872e-04  t[s]:  32356.49
	Linear fluid (dielectric constant: 78.4, screening length: 8.12261 Bohr) occupying 0.456356 of unit cell:	Completed after 1 iterations at t[s]:  32393.67
	Linear fluid (dielectric constant: 78.4, screening length: 8.12261 Bohr) occupying 0.456356 of unit cell:	Completed after 0 iterations at t[s]:  32419.98
	FillingsUpdate:  mu: -0.153721257  nElectrons: 770.000000  magneticMoment: [ Abs: 0.00000  Tot: -0.00000 ]
	SubspaceRotationAdjust: set factor to 0.883
ElecMinimize: Iter:   3  F: -8095.624162793826144  |grad|_K:  1.553e-08  alpha:  1.265e-01  linmin: -7.157e-04  t[s]:  32456.73
ElecMinimize: Converged (|Delta F|<1.000000e-07 for 2 iters).
Setting wave functions to eigenvectors of Hamiltonian
Converging empty states (this may take a while): |deigs|: 3.833e-10

Computing DFT-D3 correction:
# coordination-number Cu 8.287 8.289 8.288 8.589 8.918 8.918 8.918 8.918 9.035 9.035 9.035 9.035 6.874 6.874 6.874 6.874 5.135 4.978 4.945 5.783 9.029 9.029 9.028 9.032 8.920 8.920 8.920 8.920 8.294 8.294 8.294 8.294 4.947 4.947 4.947 4.947 6.870 6.912 6.874 7.770
# coordination-number C 3.287
# coordination-number O 1.055
# diagonal-C6 Cu 175.00 175.00 175.00 175.00 175.00 175.00 175.00 175.00 175.00 175.00 175.00 175.00 175.00 175.00 175.00 175.00 175.00 175.00 175.00 175.00 175.00 175.00 175.00 175.00 175.00 175.00 175.00 175.00 175.00 175.00 175.00 175.00 175.00 175.00 175.00 175.00 175.00 175.00 175.00 175.00
# diagonal-C6 C 24.40
# diagonal-C6 O 12.77
EvdW_6 =   -0.208418
EvdW_8 =   -0.326609

# Ionic positions in cartesian coordinates:
ion Cu   3.374454999999999   1.518659000000000  11.420712999999997 0
ion Cu   0.003943000000000   9.055351000000002  11.420712999999997 0
ion Cu  10.115479000000001   1.518659000000000  11.420712999999997 0
ion Cu   6.744966999999997   9.055351000000002  11.420712999999997 0
ion Cu   0.000344000000000   2.995850000000000   8.272439999999998 0
ion Cu  -3.370168000000001  10.532543000000000   8.272439999999998 0
ion Cu   6.741367000000000   2.995850000000000   8.272439999999998 0
ion Cu   3.370855999999998  10.532543000000000   8.272439999999998 0
ion Cu   3.367713999999999   4.556338000000000   5.270771000000000 0
ion Cu  -0.002791000000002  12.093015000000001   5.270771000000000 0
ion Cu  10.108750999999998   4.556338000000000   5.270771000000000 0
ion Cu   6.738232999999997  12.093015000000001   5.270771000000000 0
ion Cu  -0.002959000000001   6.045498000000001   2.187299000000000 0
ion Cu  -3.373471000000001  13.582190000000002   2.187299000000000 0
ion Cu   6.738077999999999   6.045498000000001   2.187299000000000 0
ion Cu   3.367565999999998  13.582190000000002   2.187299000000000 0
ion Cu   6.744669999999997  15.039877000000001  14.212244000000000 0
ion Cu  10.115181999999999   7.503185000000001  14.212244000000000 0
ion Cu   0.003646999999998  15.039877000000001  14.212244000000000 0
ion Cu   3.374158999999998   7.503185000000001  14.212244000000000 0
ion Cu   3.373288999999999   5.995801000000001   9.801515000000000 0
ion Cu   0.002770999999998  13.532508999999999   9.801515000000000 0
ion Cu  10.114312999999997   5.995801000000001   9.801515000000000 0
ion Cu   6.743807999999997  13.532508999999999   9.801515000000000 0
ion Cu   3.370235000000000   0.020545000000000   6.798760999999999 0
ion Cu  -0.000276000000001   7.557238000000001   6.798760999999999 0
ion Cu  10.111258999999999   0.020545000000000   6.798760999999999 0
ion Cu   6.740746999999999   7.557238000000001   6.798760999999999 0
ion Cu  -0.004564000000000   1.496471000000000   3.652749000000000 0
ion Cu  -3.375075000000001   9.033163000000002   3.652749000000000 0
ion Cu   6.736459999999999   1.496471000000000   3.652749000000000 0
ion Cu   3.365947999999998   9.033163000000002   3.652749000000000 0
ion Cu   3.366999999999999   3.046346000000001   0.863298000000000 0
ion Cu  -0.003519000000002  10.583054000000001   0.863298000000000 0
ion Cu  10.108022999999998   3.046346000000001   0.863298000000000 0
ion Cu   6.737504999999997  10.583054000000001   0.863298000000000 0
ion Cu   0.003383999999999   4.504741000000000  12.887157999999999 0
ion Cu  -3.367128000000000  12.041434000000001  12.887157999999999 0
ion Cu   6.744406999999997   4.504741000000000  12.887157999999999 0
ion Cu   3.373895999999998  12.041434000000001  12.887157999999999 0
ion C   5.620995999999998  10.528684000000000  15.720796818099089 1  Linear 0 0 1
ion O   5.681084999999999  10.528684000000000  17.966956506018612 1  Linear 0 0 1

# Forces in Cartesian coordinates:
force Cu  -0.000392964834394   0.001012597501673   0.000860417014277 0
force Cu  -0.001814008032501   0.000306436311236  -0.001548934306216 0
force Cu  -0.000302379175622   0.000326110233805  -0.000019682121420 0
force Cu   0.003736487002125  -0.003069453157240  -0.002534837789973 0
force Cu  -0.000421578857788   0.000668374252531   0.000431055727950 0
force Cu  -0.000767909636408   0.000151522762792   0.000915293677548 0
force Cu  -0.000630062473281  -0.000670091628101  -0.000346215669125 0
force Cu   0.000000293000272   0.000100133625837   0.001100432441974 0
force Cu   0.000075061271035   0.000019679847100  -0.000622583169171 0
force Cu   0.000444218503082   0.000813701689351   0.000154905177343 0
force Cu   0.000147996340315   0.000723849787937  -0.000403092444720 0
force Cu   0.000186772523381   0.000254874369909  -0.001015210951558 0
force Cu  -0.000034929699807   0.000134520811753   0.000301840148941 0
force Cu   0.000306666958007   0.000110661105462   0.000746890169842 0
force Cu   0.000022997071260   0.000044421789985   0.000164451005436 0
force Cu  -0.000505617197153  -0.000242960981110   0.000594379224809 0
force Cu   0.000083852092491  -0.000141673722064  -0.000038595999970 0
force Cu   0.002050995924051  -0.001372006500725  -0.000872583987379 0
force Cu  -0.000840073162657  -0.000047953639531  -0.000382189697242 0
force Cu   0.000880136536711  -0.000308614580269   0.000939069897101 0
force Cu  -0.000115038143054  -0.000423377885940   0.000221852765090 0
force Cu   0.001142877897998  -0.000993584705217   0.001084579806548 0
force Cu   0.000101707073234  -0.000659837609183   0.000797254143789 0
force Cu   0.001061171554620   0.001376903656236  -0.004381409218559 0
force Cu   0.000432950262680   0.000402102413992   0.000499848589153 0
force Cu  -0.000247894882579  -0.000205222249973  -0.000676372864672 0
force Cu  -0.000213991400637  -0.000025588535193  -0.000706034121625 0
force Cu  -0.000192158869633   0.000179528163989   0.000509632526638 0
force Cu   0.000572112534780  -0.000618077280630   0.000605876408777 0
force Cu  -0.000265980689187  -0.000378887018263   0.000175487105575 0
force Cu   0.000266431841145  -0.000674687092320  -0.000572099355949 0
force Cu   0.000055877191262  -0.000079793897785   0.000462892024465 0
force Cu   0.000403747677658   0.000449184364268  -0.000366625115049 0
force Cu   0.000063233180938   0.000467964584602  -0.000154534770731 0
force Cu  -0.000361718405944   0.000385990064753  -0.000297893257563 0
force Cu   0.000028562791840   0.000309026410391  -0.000335396929935 0
force Cu   0.001047211801887  -0.000286132433177   0.000109575351704 0
force Cu   0.003421370797618   0.000516676836319  -0.000688565197513 0
force Cu   0.000339548333351  -0.002652795826681  -0.001596730944866 0
force Cu   0.000771708030825   0.000957860215999   0.006770186541484 0
force C  -0.018007760567583   0.003390315600579   0.000156766812516 1  Linear 0 0 1
force O   0.007583638080873  -0.000386291448187  -0.000286135578345 1  Linear 0 0 1

# Energy components:
   A_diel =       -0.0025566175351763
   Eewald =    25327.9932554939259717
       EH =    32740.8819401895088959
     Eloc =   -67688.7030392161977943
      Enl =     1468.0915689745863801
     EvdW =       -0.5350268073597646
      Exc =     -781.4081306274448480
 Exc_core =        1.9776393752391770
       KE =      836.0814000008157336
-------------------------------------
     Etot =    -8095.6229492344609753
       TS =        0.0012135593647559
-------------------------------------
        F =    -8095.6241627938261445


Dumping 'jdft.fillings' ... done
Dumping 'jdft.wfns' ... done
Dumping 'jdft.fluidState' ... done
Dumping 'jdft.ionpos' ... done
Dumping 'jdft.lattice' ... done
Dumping 'jdft.eigenvals' ... done
Dumping 'jdft.eigStats' ... 
	eMin: -4.300168 at state 0 ( [ +0.000000 +0.000000 +0.000000 ] spin 1 )
	HOMO: -0.153770 at state 0 ( [ +0.000000 +0.000000 +0.000000 ] spin 1 )
	mu  : -0.153721
	LUMO: -0.151569 at state 6 ( [ +0.500000 +0.333333 +0.000000 ] spin 1 )
	eMax: +0.178197 at state 2 ( [ +0.250000 +0.000000 +0.000000 ] spin 1 )
	HOMO-LUMO gap: +0.002200
	Optical gap  : +0.002427 at state 6 ( [ +0.500000 +0.333333 +0.000000 ] spin 1 )
Dumping 'jdft.Ecomponents' ... done
IonicMinimize: Iter:  12  F: -8095.624162793826144  |grad|_K:  2.307e-04  alpha:  1.599e-01  linmin:  5.153e-03  t[s]:  32561.01
IonicMinimize: Converged (|Delta F|<1.000000e-06 for 2 iters).

#--- Lowdin population analysis ---
# oxidation-state Cu +0.025 +0.028 +0.026 +0.050 +0.074 +0.073 +0.074 +0.070 +0.046 +0.046 +0.046 +0.047 +0.059 +0.057 +0.058 +0.059 +0.224 +0.238 +0.248 +0.169 +0.047 +0.050 +0.045 +0.049 +0.073 +0.075 +0.077 +0.077 +0.029 +0.027 +0.025 +0.026 +0.241 +0.245 +0.245 +0.248 +0.059 +0.058 +0.063 -0.004
# magnetic-moments Cu +0.000 +0.000 -0.000 +0.000 -0.000 +0.000 -0.000 +0.000 +0.000 -0.000 +0.000 -0.000 -0.000 +0.000 -0.000 +0.000 +0.000 -0.000 -0.000 +0.000 +0.000 +0.000 -0.000 -0.000 -0.000 +0.000 +0.000 -0.000 -0.000 +0.000 +0.000 -0.000 -0.000 -0.000 +0.000 -0.000 +0.000 +0.000 -0.000 -0.000
# oxidation-state C +0.299
# magnetic-moments C -0.000
# oxidation-state O -0.181
# magnetic-moments O +0.000


Dumping 'jdft.n_up' ... done
Dumping 'jdft.n_dn' ... done
Dumping 'jdft.tau_up' ... done
Dumping 'jdft.tau_dn' ... done
Dumping 'jdft.eigenvals' ... done
Dumping 'jdft.eigStats' ... 
	eMin: -4.300168 at state 0 ( [ +0.000000 +0.000000 +0.000000 ] spin 1 )
	HOMO: -0.153770 at state 0 ( [ +0.000000 +0.000000 +0.000000 ] spin 1 )
	mu  : -0.153721
	LUMO: -0.151569 at state 6 ( [ +0.500000 +0.333333 +0.000000 ] spin 1 )
	eMax: +0.178197 at state 2 ( [ +0.250000 +0.000000 +0.000000 ] spin 1 )
	HOMO-LUMO gap: +0.002200
	Optical gap  : +0.002427 at state 6 ( [ +0.500000 +0.333333 +0.000000 ] spin 1 )
Dumping 'jdft.kPts' ... done
Dumping 'jdft.kMap' ... done
Dumping 'jdft.dosUp' ... done.
Dumping 'jdft.dosDn' ... done.
End date and time: Thu Feb 17 11:31:58 2022  (Duration: 0-9:03:40.76)
Done!
