
*************** JDFTx 1.6.0  ***************

Start date and time: Mon Dec  6 17:24:59 2021
Executable /projects/musgravc/apps/jdftx-1.6.1/build/jdftx with command-line: -i in
Running on hosts (process indices):  shas0133.rc.int.colorado.edu (0-23)
Divided in process groups (process indices):  0 (0)  1 (1)  2 (2)  3 (3)  4 (4)  5 (5)  6 (6)  7 (7)  8 (8)  9 (9)  10 (10)  11 (11)  12 (12)  13 (13)  14 (14)  15 (15)  16 (16)  17 (17)  18 (18)  19 (19)  20 (20)  21 (21)  22 (22)  23 (23)
Resource initialization completed at t[s]:      0.00
Run totals: 24 processes, 24 threads, 0 GPUs


Input parsed successfully to the following command list (including defaults):

basis kpoint-dependent
converge-empty-states yes
coords-type Cartesian
core-overlap-check none
coulomb-interaction Periodic
davidson-band-ratio 1.1
density-of-states Etol 1.000000e-06 Esigma 1.000000e-03 \
		Complete \
	Total \
	OrthoOrbital Ag 1   s \
	OrthoOrbital Ag 1   p \
	OrthoOrbital Ag 1   px \
	OrthoOrbital Ag 1   py \
	OrthoOrbital Ag 1   pz \
	OrthoOrbital Ag 1   d \
	OrthoOrbital Ag 1   dxy \
	OrthoOrbital Ag 1   dyz \
	OrthoOrbital Ag 1   dz2 \
	OrthoOrbital Ag 1   dxz \
	OrthoOrbital Ag 1   dx2-y2 \
	OrthoOrbital Ag 2   s \
	OrthoOrbital Ag 2   p \
	OrthoOrbital Ag 2   px \
	OrthoOrbital Ag 2   py \
	OrthoOrbital Ag 2   pz \
	OrthoOrbital Ag 2   d \
	OrthoOrbital Ag 2   dxy \
	OrthoOrbital Ag 2   dyz \
	OrthoOrbital Ag 2   dz2 \
	OrthoOrbital Ag 2   dxz \
	OrthoOrbital Ag 2   dx2-y2 \
	OrthoOrbital Ag 3   s \
	OrthoOrbital Ag 3   p \
	OrthoOrbital Ag 3   px \
	OrthoOrbital Ag 3   py \
	OrthoOrbital Ag 3   pz \
	OrthoOrbital Ag 3   d \
	OrthoOrbital Ag 3   dxy \
	OrthoOrbital Ag 3   dyz \
	OrthoOrbital Ag 3   dz2 \
	OrthoOrbital Ag 3   dxz \
	OrthoOrbital Ag 3   dx2-y2 \
	OrthoOrbital Ag 4   s \
	OrthoOrbital Ag 4   p \
	OrthoOrbital Ag 4   px \
	OrthoOrbital Ag 4   py \
	OrthoOrbital Ag 4   pz \
	OrthoOrbital Ag 4   d \
	OrthoOrbital Ag 4   dxy \
	OrthoOrbital Ag 4   dyz \
	OrthoOrbital Ag 4   dz2 \
	OrthoOrbital Ag 4   dxz \
	OrthoOrbital Ag 4   dx2-y2 \
	OrthoOrbital Ag 5   s \
	OrthoOrbital Ag 5   p \
	OrthoOrbital Ag 5   px \
	OrthoOrbital Ag 5   py \
	OrthoOrbital Ag 5   pz \
	OrthoOrbital Ag 5   d \
	OrthoOrbital Ag 5   dxy \
	OrthoOrbital Ag 5   dyz \
	OrthoOrbital Ag 5   dz2 \
	OrthoOrbital Ag 5   dxz \
	OrthoOrbital Ag 5   dx2-y2 \
	OrthoOrbital Ag 6   s \
	OrthoOrbital Ag 6   p \
	OrthoOrbital Ag 6   px \
	OrthoOrbital Ag 6   py \
	OrthoOrbital Ag 6   pz \
	OrthoOrbital Ag 6   d \
	OrthoOrbital Ag 6   dxy \
	OrthoOrbital Ag 6   dyz \
	OrthoOrbital Ag 6   dz2 \
	OrthoOrbital Ag 6   dxz \
	OrthoOrbital Ag 6   dx2-y2 \
	OrthoOrbital Ag 7   s \
	OrthoOrbital Ag 7   p \
	OrthoOrbital Ag 7   px \
	OrthoOrbital Ag 7   py \
	OrthoOrbital Ag 7   pz \
	OrthoOrbital Ag 7   d \
	OrthoOrbital Ag 7   dxy \
	OrthoOrbital Ag 7   dyz \
	OrthoOrbital Ag 7   dz2 \
	OrthoOrbital Ag 7   dxz \
	OrthoOrbital Ag 7   dx2-y2 \
	OrthoOrbital Ag 8   s \
	OrthoOrbital Ag 8   p \
	OrthoOrbital Ag 8   px \
	OrthoOrbital Ag 8   py \
	OrthoOrbital Ag 8   pz \
	OrthoOrbital Ag 8   d \
	OrthoOrbital Ag 8   dxy \
	OrthoOrbital Ag 8   dyz \
	OrthoOrbital Ag 8   dz2 \
	OrthoOrbital Ag 8   dxz \
	OrthoOrbital Ag 8   dx2-y2
dump End ElecDensity KEdensity BandEigs EigStats RhoAtom DOS Kpoints
dump Ionic State IonicPositions Lattice EigStats Ecomponents
dump 
dump 
dump 
dump 
dump 
dump 
dump 
dump 
dump-name jdft.$VAR
elec-cutoff 20
elec-eigen-algo Davidson
elec-ex-corr gga-PBE
elec-initial-magnetization 0.000000 no
elec-n-bands 92
elec-smearing Fermi 0.001
electronic-minimize  \
	dirUpdateScheme      FletcherReeves \
	linminMethod         DirUpdateRecommended \
	nIterations          100 \
	history              15 \
	knormThreshold       0 \
	energyDiffThreshold  1e-07 \
	nEnergyDiff          2 \
	alphaTstart          1 \
	alphaTmin            1e-10 \
	updateTestStepSize   yes \
	alphaTreduceFactor   0.1 \
	alphaTincreaseFactor 3 \
	nAlphaAdjustMax      3 \
	wolfeEnergy          0.0001 \
	wolfeGradient        0.9 \
	fdTest               no
exchange-regularization WignerSeitzTruncated
fluid LinearPCM 298.000000 1.013250
fluid-anion F- 0.5 MeanFieldLJ \
	epsBulk 1 \
	pMol 0 \
	epsInf 1 \
	Pvap 0 \
	sigmaBulk 0 \
	Rvdw 2.24877 \
	Res 0 \
	tauNuc 343133
fluid-cation Na+ 0.5 MeanFieldLJ \
	epsBulk 1 \
	pMol 0 \
	epsInf 1 \
	Pvap 0 \
	sigmaBulk 0 \
	Rvdw 2.19208 \
	Res 0 \
	tauNuc 343133
fluid-ex-corr lda-TF lda-PZ
fluid-gummel-loop 10 1.000000e-05
fluid-minimize  \
	dirUpdateScheme      PolakRibiere \
	linminMethod         DirUpdateRecommended \
	nIterations          400 \
	history              15 \
	knormThreshold       1e-11 \
	energyDiffThreshold  0 \
	nEnergyDiff          2 \
	alphaTstart          1 \
	alphaTmin            1e-10 \
	updateTestStepSize   yes \
	alphaTreduceFactor   0.1 \
	alphaTincreaseFactor 3 \
	nAlphaAdjustMax      6 \
	wolfeEnergy          0.0001 \
	wolfeGradient        0.9 \
	fdTest               no
fluid-solvent H2O 55.338 ScalarEOS \
	epsBulk 78.4 \
	pMol 0.92466 \
	epsInf 1.77 \
	Pvap 1.06736e-10 \
	sigmaBulk 4.62e-05 \
	Rvdw 2.61727 \
	Res 1.42 \
	tauNuc 343133 \
	poleEl 15 7 1
forces-output-coords Positions
ion Ag   0.000000000000000   0.000000000000000  50.139125999999997 1
ion Ag   0.000000000000000   0.000000000000000  44.718679999999999 1
ion Ag   2.710223000000000   3.832834000000000  52.849348999999997 1
ion Ag   2.710223000000000   3.832834000000000  47.428902999999998 1
ion Ag   0.000000000000000   0.000000000000000  39.298234000000001 1
ion Ag   0.000000000000000   0.000000000000000  33.877788000000002 1
ion Ag   2.710223000000000   3.832834000000000  42.008457000000000 1
ion Ag   2.710223000000000   3.832834000000000  36.588011000000002 1
ion-species /projects/musgravc/apps/jdftx-1.6.0/build/pseudopotentials/GBRV_v1.5/$ID_pbe_v1.uspp
ion-species /projects/musgravc/apps/jdftx-1.6.0/build/pseudopotentials/GBRV_v1.5/$ID_pbe_v1.2.uspp
ion-species /projects/musgravc/apps/jdftx-1.6.0/build/pseudopotentials/GBRV_v1.5/$ID_pbe_v1.4.uspp
ion-species /projects/musgravc/apps/jdftx-1.6.0/build/pseudopotentials/GBRV_v1.5/$ID_pbe_v1.5.uspp
ion-width Ecut
ionic-minimize  \
	dirUpdateScheme      L-BFGS \
	linminMethod         DirUpdateRecommended \
	nIterations          100 \
	history              15 \
	knormThreshold       0.0001 \
	energyDiffThreshold  1e-06 \
	nEnergyDiff          2 \
	alphaTstart          1 \
	alphaTmin            1e-10 \
	updateTestStepSize   yes \
	alphaTreduceFactor   0.1 \
	alphaTincreaseFactor 3 \
	nAlphaAdjustMax      3 \
	wolfeEnergy          0.0001 \
	wolfeGradient        0.9 \
	fdTest               no
kpoint   0.000000000000   0.000000000000   0.000000000000  1.00000000000000
kpoint-folding 12 8 1 
latt-move-scale 0 0 0
latt-scale 1 1 1 
lattice  \
	   5.420447000000000    0.000000000000000    0.000000000000000  \
	   0.000000000000000    7.665668000000000    0.000000000000000  \
	   0.000000000000000    0.000000000000000   54.204459999999997 
lattice-minimize  \
	dirUpdateScheme      L-BFGS \
	linminMethod         DirUpdateRecommended \
	nIterations          0 \
	history              15 \
	knormThreshold       0 \
	energyDiffThreshold  1e-06 \
	nEnergyDiff          2 \
	alphaTstart          1 \
	alphaTmin            1e-10 \
	updateTestStepSize   yes \
	alphaTreduceFactor   0.1 \
	alphaTincreaseFactor 3 \
	nAlphaAdjustMax      3 \
	wolfeEnergy          0.0001 \
	wolfeGradient        0.9 \
	fdTest               no
lcao-params 30 1e-06 0.001
pcm-variant CANDLE
spintype z-spin
subspace-rotation-factor 1 yes
symmetries none
symmetry-threshold 0.0001
target-mu -0.1713 no

van-der-waals D3


Applied RMS atom displacement 0 bohrs to make symmetries exact.

---------- Initializing the Grid ----------
R = 
[      5.42045            0            0  ]
[            0      7.66567            0  ]
[            0            0      54.2045  ]
unit cell volume = 2252.27
G =
[    1.15916          0          0  ]
[          0   0.819653          0  ]
[          0          0   0.115916  ]
Minimum fftbox size, Smin = [  24  32  220  ]
Chosen fftbox size, S = [  24  32  224  ]

---------- Exchange Correlation functional ----------
Initalized PBE GGA exchange.
Initalized PBE GGA correlation.

---------- Setting up pseudopotentials ----------
Width of ionic core gaussian charges (only for fluid interactions / plotting) set to 0.397384

Reading pseudopotential file '/projects/musgravc/apps/jdftx-1.6.0/build/pseudopotentials/GBRV_v1.5/ag_pbe_v1.4.uspp':
  Title: Ag.  Created by USPP 7.3.6 on 1-4-15
  Reference state energy: -147.606242.  19 valence electrons in orbitals:
    |400>  occupation: 2  eigenvalue: -3.637437
    |410>  occupation: 6  eigenvalue: -2.297267
    |420>  occupation: 10  eigenvalue: -0.417763
    |500>  occupation: 0.5  eigenvalue: -0.283525
    |510>  occupation: 0  eigenvalue: -0.122889
  lMax: 2  lLocal: 0  QijEcut: 5.5
  6 projectors sampled on a log grid with 717 points:
    l: 0  eig: -0.283528  rCut: 1.5
    l: 0  eig: -3.637440  rCut: 1.5
    l: 1  eig: -0.122892  rCut: 1.5
    l: 1  eig: -2.297267  rCut: 1.5
    l: 2  eig: -0.417762  rCut: 1.7
    l: 2  eig: -1.000000  rCut: 1.7
  Partial core density with radius 1.2
  Transforming core density to a uniform radial grid of dG=0.02 with 1161 points.
  Transforming local potential to a uniform radial grid of dG=0.02 with 1161 points.
  Transforming nonlocal projectors to a uniform radial grid of dG=0.02 with 432 points.
  Transforming density augmentations to a uniform radial grid of dG=0.02 with 1161 points.
  Transforming atomic orbitals to a uniform radial grid of dG=0.02 with 432 points.
  Core radius for overlap checks: 1.70 bohrs.

Initialized 1 species with 8 total atoms.

Folded 1 k-points by 12x8x1 to 96 k-points.

---------- Setting up k-points, bands, fillings ----------
No reducable k-points. 
Computing the number of bands and number of electrons
Calculating initial fillings.
nElectrons: 152.000000   nBands: 92   nStates: 192

----- Setting up reduced wavefunction bases (one per k-point) -----
average nbasis = 9621.885 , ideal nbasis = 9621.862

----- Initializing Supercell corresponding to k-point mesh -----
Lattice vector linear combinations in supercell:
[  12   0   0  ]
[   0   8   0  ]
[   0   0   1  ]
Supercell lattice vectors:
[  65.0454  0  0  ]
[  0  61.3253  0  ]
[  0  0  54.2045  ]

Initializing DFT-D3 calculator:
	Parameters set for gga-PBE functional
	s6:  1.000  s_r6:  1.217
	s8:  0.722  s_r8:  1.000
	Per-atom parameters loaded for:
	Ag:  sqrtQ[a0]:  5.443  Rcov[a0]:  2.173  CN: [ 0.00 0.97 ]

Initializing DFT-D2 calculator for fluid / solvation:
	Ag:  C6:  427.91 Eh-a0^6  R0: 3.097 a0

---------- Setting up ewald sum ----------
Optimum gaussian width for ewald sums = 3.697729 bohr.
Real space sum over 1105 unit cells with max indices [  8  6  2  ]
Reciprocal space sum over 4851 terms with max indices [  4  5  24  ]

Computing DFT-D3 correction:
# coordination-number Ag 8.400 9.208 5.384 9.198 9.198 5.384 9.208 8.400
# diagonal-C6 Ag 268.61 268.61 268.61 268.61 268.61 268.61 268.61 268.61
EvdW_6 =   -0.048769
EvdW_8 =   -0.067521

---------- Allocating electronic variables ----------
Initializing wave functions:  linear combination of atomic orbitals
Ag pseudo-atom occupations:   s ( 2 1 )  p ( 6 0 )  d ( 10 )
	FillingsUpdate:  mu: -0.171300000  nElectrons: 152.000000  magneticMoment: [ Abs: 0.00092  Tot: +0.00007 ]
LCAOMinimize: Iter:   0  G: -1154.6884604650576875  |grad|_K:  7.424e-04  alpha:  1.000e+00
	FillingsUpdate:  mu: -0.171300000  nElectrons: 152.000000  magneticMoment: [ Abs: 0.00071  Tot: -0.00002 ]
LCAOMinimize: Iter:   1  G: -1154.6914793836581339  |grad|_K:  9.810e-04  alpha:  2.166e-01  linmin:  1.066e-01  cgtest: -7.955e-01  t[s]:     29.13
LCAOMinimize: 	Bad step direction: g.d > 0.
LCAOMinimize: 	Undoing step.
LCAOMinimize: 	Step failed: resetting search direction.
	FillingsUpdate:  mu: -0.171300000  nElectrons: 152.000000  magneticMoment: [ Abs: 0.00071  Tot: -0.00002 ]
LCAOMinimize: Iter:   2  G: -1154.6914793836581339  |grad|_K:  9.810e-04  alpha:  0.000e+00
	FillingsUpdate:  mu: -0.171300000  nElectrons: 152.000000  magneticMoment: [ Abs: 0.00075  Tot: -0.00004 ]
LCAOMinimize: Iter:   3  G: -1154.7742443276451922  |grad|_K:  2.089e-04  alpha:  7.192e-02  linmin: -1.503e-01  cgtest:  6.341e-01  t[s]:     49.95
LCAOMinimize: Encountered beta<0, resetting CG.
LCAOMinimize: 	Predicted alpha/alphaT>3.000000, increasing alphaT to 2.157453e-01.
	FillingsUpdate:  mu: -0.171300000  nElectrons: 152.000000  magneticMoment: [ Abs: 0.00070  Tot: -0.00002 ]
LCAOMinimize: Iter:   4  G: -1154.7853718532683160  |grad|_K:  2.557e-04  alpha:  2.433e-01  linmin:  4.746e-03  cgtest:  1.986e-02  t[s]:     65.62
	FillingsUpdate:  mu: -0.171300000  nElectrons: 152.000000  magneticMoment: [ Abs: 0.00060  Tot: +0.00009 ]
LCAOMinimize: Iter:   5  G: -1154.7935624416209066  |grad|_K:  2.348e-04  alpha:  1.368e-01  linmin:  1.385e-03  cgtest:  8.988e-03  t[s]:     77.75
	FillingsUpdate:  mu: -0.171300000  nElectrons: 152.000000  magneticMoment: [ Abs: 0.00057  Tot: +0.00003 ]
LCAOMinimize: Iter:   6  G: -1154.7956185127213757  |grad|_K:  2.580e-05  alpha:  4.254e-02  linmin:  6.655e-02  cgtest: -7.558e-01  t[s]:     89.88
	FillingsUpdate:  mu: -0.171300000  nElectrons: 152.000000  magneticMoment: [ Abs: 0.00057  Tot: +0.00003 ]
LCAOMinimize: Iter:   7  G: -1154.7956207837910370  |grad|_K:  2.310e-05  alpha:  2.182e-02  linmin:  9.409e-04  cgtest:  9.823e-01  t[s]:    102.21
LCAOMinimize: Encountered beta<0, resetting CG.
	FillingsUpdate:  mu: -0.171300000  nElectrons: 152.000000  magneticMoment: [ Abs: 0.00057  Tot: +0.00004 ]
LCAOMinimize: Iter:   8  G: -1154.7956509002437997  |grad|_K:  1.801e-05  alpha:  5.370e-02  linmin:  2.107e-03  cgtest: -1.570e-02  t[s]:    114.48
LCAOMinimize: 	Predicted alpha/alphaT>3.000000, increasing alphaT to 1.611142e-01.
	FillingsUpdate:  mu: -0.171300000  nElectrons: 152.000000  magneticMoment: [ Abs: 0.00058  Tot: +0.00003 ]
LCAOMinimize: Iter:   9  G: -1154.7957174072053022  |grad|_K:  9.163e-06  alpha:  1.975e-01  linmin:  4.814e-03  cgtest:  3.686e-02  t[s]:    131.26
	FillingsUpdate:  mu: -0.171300000  nElectrons: 152.000000  magneticMoment: [ Abs: 0.00058  Tot: +0.00003 ]
LCAOMinimize: Iter:  10  G: -1154.7957303856292128  |grad|_K:  7.145e-06  alpha:  1.401e-01  linmin:  1.905e-02  cgtest: -1.833e-01  t[s]:    143.42
	FillingsUpdate:  mu: -0.171300000  nElectrons: 152.000000  magneticMoment: [ Abs: 0.00059  Tot: +0.00003 ]
LCAOMinimize: Iter:  11  G: -1154.7957355482287767  |grad|_K:  8.359e-06  alpha:  1.172e-01  linmin:  8.348e-03  cgtest:  1.515e-01  t[s]:    155.63
	FillingsUpdate:  mu: -0.171300000  nElectrons: 152.000000  magneticMoment: [ Abs: 0.00059  Tot: +0.00003 ]
LCAOMinimize: Iter:  12  G: -1154.7957392795678970  |grad|_K:  1.585e-06  alpha:  5.667e-02  linmin:  8.549e-03  cgtest:  4.078e-01  t[s]:    167.77
LCAOMinimize: Encountered beta<0, resetting CG.
	FillingsUpdate:  mu: -0.171300000  nElectrons: 152.000000  magneticMoment: [ Abs: 0.00059  Tot: +0.00003 ]
LCAOMinimize: Iter:  13  G: -1154.7957393283586498  |grad|_K:  1.230e-06  alpha:  3.478e-02  linmin: -1.585e-01  cgtest:  9.671e-01  t[s]:    179.84
LCAOMinimize: Encountered beta<0, resetting CG.
	FillingsUpdate:  mu: -0.171300000  nElectrons: 152.000000  magneticMoment: [ Abs: 0.00059  Tot: +0.00003 ]
LCAOMinimize: Iter:  14  G: -1154.7957393485348803  |grad|_K:  1.111e-06  alpha:  2.309e-02  linmin: -1.579e-01  cgtest:  9.928e-01  t[s]:    192.10
LCAOMinimize: Encountered beta<0, resetting CG.
LCAOMinimize: Converged (|Delta G|<1.000000e-06 for 2 iters).
----- createFluidSolver() ----- (Fluid-side solver setup)
   Initializing fluid molecule 'H2O'
     Initializing site 'O'
       Electron density: proportional to exp(-r/0.36935)*erfc((r-0.51523)/0.36823) with norm 6.826
       Charge density: gaussian nuclear width 0.478731 with net site charge 0.826
       Polarizability: cuspless exponential with width 0.32 and norm 3.73
       Hard sphere radius: 2.57003 bohrs
       Positions in reference frame:
         [ +0.000000 +0.000000 +0.000000 ]
     Initializing site 'H'
       Electron density: proportional to exp(-r/0.34641)*erfc((r-0)/0.390882) with norm 0.587
       Charge density: gaussian nuclear width 0.377945 with net site charge -0.413
       Polarizability: cuspless exponential with width 0.39 and norm 3.3
       Positions in reference frame:
         [ +0.000000 -1.441945 +1.122523 ]
         [ +0.000000 +1.441945 +1.122523 ]
     Net charge: 0   dipole magnitude: 0.927204
     Initializing spherical shell mfKernel with radius 2.61727 Bohr
     deltaS corrections:
       site 'O': -7.54299
       site 'H': -6.83917
   Initializing fluid molecule 'Na+'
     Initializing site 'Na'
       Electron density: proportional to exp(-r/0.19682)*erfc((r-0.71491)/0.41314) with norm 8.1383
       Charge density: gaussian nuclear width 0.365347 with net site charge -1
       Hard sphere radius: 1.86327 bohrs
       Positions in reference frame:
         [ +0.000000 +0.000000 +0.000000 ]
     Net charge: -1   dipole magnitude: 0
     Initializing gaussian mfKernel with width: 1.55004 Bohr
     deltaS corrections:
       site 'Na': -22.3555
   Initializing fluid molecule 'F-'
     Initializing site 'F'
       Electron density: proportional to exp(-r/0.38886)*erfc((r-0)/0.438782) with norm 8
       Charge density: gaussian nuclear width 0.374796 with net site charge 1
       Hard sphere radius: 2.39995 bohrs
       Positions in reference frame:
         [ +0.000000 +0.000000 +0.000000 ]
     Net charge: 1   dipole magnitude: 0
     Initializing gaussian mfKernel with width: 1.59012 Bohr
     deltaS corrections:
       site 'F': -9.04335

Correction to mu due to finite nuclear width = -0.0669612
   Cavity determined by nc: 0.00142 and sigma: 0.707107
   Nonlocal vdW cavity from gaussian model electron density with norm = 8 and sigma = 0.993594 bohr
   Charge asymmetry in cavity with sensitivity pCavity = 36.5 e-bohr/Eh
   Electrostatic cavity expanded by eta = 1.46 bohrs
   Weighted density cavitation model constrained by Nbulk: 0.0049383 bohr^-3, Pvap: 3.14029 kPa, Rvdw: 2.61727 bohr and sigmaBulk: 4.62e-05 Eh/bohr^2 at T: 298 K.
   Weighted density dispersion model using vdW pair potentials with single solvent site with sqrtC6eff: 0.77 SI.


---- Citations for features of the code used in this run ----

   Software package:
      R. Sundararaman, K. Letchworth-Weaver, K.A. Schwarz, D. Gunceler, Y. Ozhabes and T.A. Arias, 'JDFTx: software for joint density-functional theory', SoftwareX 6, 278 (2017)

   gga-PBE exchange-correlation functional:
      J.P. Perdew, K. Burke and M. Ernzerhof, Phys. Rev. Lett. 77, 3865 (1996)

   Pseudopotentials:
      KF Garrity, JW Bennett, KM Rabe and D Vanderbilt, Comput. Mater. Sci. 81, 446 (2014)

   DFT-D3 dispersion correction:
      S. Grimme, J. Antony, S. Ehrlich and H. Krieg, J. Chem. Phys. 132, 154104 (2010)

   DFT-D2 dispersion correction:
      S. Grimme, J. Comput. Chem. 27, 1787 (2006)

   Charge-asymmetric nonlocally-determined local-electric (CANDLE) solvation model:
      R. Sundararaman and W.A. Goddard III, J. Chem. Phys. 142, 064107 (2015)

   Total energy minimization with Auxiliary Hamiltonian:
      C. Freysoldt, S. Boeck, and J. Neugebauer, Phys. Rev. B 79, 241103(R) (2009)

   Grand-canonical (fixed-potential) DFT:
      R. Sundararaman, W. A. Goddard III and T. A. Arias, J. Chem. Phys. 146, 114104 (2017)

   Linear-tetrahedron sampling for density of states:
      G. Lehmann and M. Taut, Phys. status solidi (b) 54, 469 (1972)

This list may not be complete. Please suggest additional citations or
report any other bugs at https://github.com/shankar1729/jdftx/issues

Initialization completed successfully at t[s]:    196.45


Computing DFT-D3 correction:
# coordination-number Ag 8.400 9.208 5.384 9.198 9.198 5.384 9.208 8.400
# diagonal-C6 Ag 268.61 268.61 268.61 268.61 268.61 268.61 268.61 268.61
EvdW_6 =   -0.048769
EvdW_8 =   -0.067521
Fluid solver invoked on fresh (random / LCAO) wavefunctions
Running a vacuum solve first:

-------- Initial electronic minimization -----------
	FillingsUpdate:  mu: +0.166566059  nElectrons: 152.000000  magneticMoment: [ Abs: 0.00059  Tot: +0.00003 ]
ElecMinimize: Iter:   0  G: -1154.795968245483891  |grad|_K:  2.122e-05  alpha:  1.000e+00
	FillingsUpdate:  mu: +0.172068617  nElectrons: 152.000000  magneticMoment: [ Abs: 0.00046  Tot: +0.00003 ]
	SubspaceRotationAdjust: set factor to 1
ElecMinimize: Iter:   1  G: -1154.829339065040813  |grad|_K:  1.467e-05  alpha:  4.354e-01  linmin:  3.177e-05  t[s]:    224.71
	FillingsUpdate:  mu: +0.163170855  nElectrons: 152.000000  magneticMoment: [ Abs: 0.00037  Tot: +0.00002 ]
	SubspaceRotationAdjust: set factor to 0.913
ElecMinimize: Iter:   2  G: -1154.839547650958139  |grad|_K:  7.270e-06  alpha:  2.775e-01  linmin: -1.206e-05  t[s]:    242.24
	FillingsUpdate:  mu: +0.178445518  nElectrons: 152.000000  magneticMoment: [ Abs: 0.00030  Tot: +0.00002 ]
	SubspaceRotationAdjust: set factor to 0.649
ElecMinimize: Iter:   3  G: -1154.841686714866000  |grad|_K:  7.379e-06  alpha:  2.373e-01  linmin: -3.995e-05  t[s]:    259.57
	FillingsUpdate:  mu: +0.168299358  nElectrons: 152.000000  magneticMoment: [ Abs: 0.00025  Tot: +0.00003 ]
	SubspaceRotationAdjust: set factor to 0.525
ElecMinimize: Iter:   4  G: -1154.843201078569336  |grad|_K:  3.167e-06  alpha:  1.612e-01  linmin:  5.483e-06  t[s]:    276.83
	FillingsUpdate:  mu: +0.166160037  nElectrons: 152.000000  magneticMoment: [ Abs: 0.00019  Tot: +0.00004 ]
	SubspaceRotationAdjust: set factor to 0.373
ElecMinimize: Iter:   5  G: -1154.843908619770900  |grad|_K:  3.200e-06  alpha:  4.146e-01  linmin:  8.473e-05  t[s]:    294.02
	FillingsUpdate:  mu: +0.168413082  nElectrons: 152.000000  magneticMoment: [ Abs: 0.00016  Tot: +0.00005 ]
	SubspaceRotationAdjust: set factor to 0.231
ElecMinimize: Iter:   6  G: -1154.844072751827525  |grad|_K:  2.057e-06  alpha:  9.622e-02  linmin:  1.770e-04  t[s]:    311.26
	FillingsUpdate:  mu: +0.172553483  nElectrons: 152.000000  magneticMoment: [ Abs: 0.00012  Tot: +0.00006 ]
	SubspaceRotationAdjust: set factor to 0.277
ElecMinimize: Iter:   7  G: -1154.844272596639485  |grad|_K:  1.368e-06  alpha:  2.811e-01  linmin: -2.917e-05  t[s]:    328.77
	FillingsUpdate:  mu: +0.171327182  nElectrons: 152.000000  magneticMoment: [ Abs: 0.00010  Tot: +0.00006 ]
	SubspaceRotationAdjust: set factor to 0.253
ElecMinimize: Iter:   8  G: -1154.844352944598995  |grad|_K:  1.145e-06  alpha:  2.507e-01  linmin:  2.443e-05  t[s]:    346.06
	FillingsUpdate:  mu: +0.169985432  nElectrons: 152.000000  magneticMoment: [ Abs: 0.00009  Tot: +0.00006 ]
	SubspaceRotationAdjust: set factor to 0.205
ElecMinimize: Iter:   9  G: -1154.844396640925652  |grad|_K:  7.014e-07  alpha:  1.951e-01  linmin:  1.109e-05  t[s]:    363.40
	FillingsUpdate:  mu: +0.170206161  nElectrons: 152.000000  magneticMoment: [ Abs: 0.00008  Tot: +0.00006 ]
	SubspaceRotationAdjust: set factor to 0.234
ElecMinimize: Iter:  10  G: -1154.844427343261032  |grad|_K:  5.826e-07  alpha:  3.662e-01  linmin:  2.465e-05  t[s]:    380.69
	FillingsUpdate:  mu: +0.170879366  nElectrons: 152.000000  magneticMoment: [ Abs: 0.00008  Tot: +0.00006 ]
	SubspaceRotationAdjust: set factor to 0.185
ElecMinimize: Iter:  11  G: -1154.844440679129775  |grad|_K:  4.200e-07  alpha:  2.306e-01  linmin: -1.044e-06  t[s]:    397.88
	FillingsUpdate:  mu: +0.171229824  nElectrons: 152.000000  magneticMoment: [ Abs: 0.00008  Tot: +0.00005 ]
	SubspaceRotationAdjust: set factor to 0.236
ElecMinimize: Iter:  12  G: -1154.844450921363205  |grad|_K:  3.000e-07  alpha:  3.403e-01  linmin:  1.232e-05  t[s]:    415.00
	FillingsUpdate:  mu: +0.170963193  nElectrons: 152.000000  magneticMoment: [ Abs: 0.00007  Tot: +0.00005 ]
	SubspaceRotationAdjust: set factor to 0.235
ElecMinimize: Iter:  13  G: -1154.844456295875261  |grad|_K:  2.681e-07  alpha:  3.504e-01  linmin:  7.666e-06  t[s]:    433.51
	FillingsUpdate:  mu: +0.170879014  nElectrons: 152.000000  magneticMoment: [ Abs: 0.00007  Tot: +0.00005 ]
	SubspaceRotationAdjust: set factor to 0.203
ElecMinimize: Iter:  14  G: -1154.844459587862275  |grad|_K:  2.133e-07  alpha:  2.684e-01  linmin:  1.723e-06  t[s]:    450.85
	FillingsUpdate:  mu: +0.171129120  nElectrons: 152.000000  magneticMoment: [ Abs: 0.00006  Tot: +0.00004 ]
	SubspaceRotationAdjust: set factor to 0.247
ElecMinimize: Iter:  15  G: -1154.844462292962362  |grad|_K:  1.643e-07  alpha:  3.486e-01  linmin:  4.579e-06  t[s]:    468.16
	FillingsUpdate:  mu: +0.171283269  nElectrons: 152.000000  magneticMoment: [ Abs: 0.00005  Tot: +0.00003 ]
	SubspaceRotationAdjust: set factor to 0.258
ElecMinimize: Iter:  16  G: -1154.844464133092060  |grad|_K:  1.506e-07  alpha:  4.002e-01  linmin:  5.560e-06  t[s]:    485.29
	FillingsUpdate:  mu: +0.171214960  nElectrons: 152.000000  magneticMoment: [ Abs: 0.00004  Tot: +0.00003 ]
	SubspaceRotationAdjust: set factor to 0.212
ElecMinimize: Iter:  17  G: -1154.844465102631375  |grad|_K:  1.205e-07  alpha:  2.504e-01  linmin: -5.297e-07  t[s]:    502.46
	FillingsUpdate:  mu: +0.171113831  nElectrons: 152.000000  magneticMoment: [ Abs: 0.00004  Tot: +0.00002 ]
	SubspaceRotationAdjust: set factor to 0.212
ElecMinimize: Iter:  18  G: -1154.844465847446145  |grad|_K:  8.325e-08  alpha:  3.005e-01  linmin:  3.439e-06  t[s]:    519.89
	FillingsUpdate:  mu: +0.171205233  nElectrons: 152.000000  magneticMoment: [ Abs: 0.00003  Tot: +0.00002 ]
	SubspaceRotationAdjust: set factor to 0.239
ElecMinimize: Iter:  19  G: -1154.844466299070064  |grad|_K:  6.605e-08  alpha:  3.830e-01  linmin:  1.428e-06  t[s]:    537.21
	FillingsUpdate:  mu: +0.171265590  nElectrons: 152.000000  magneticMoment: [ Abs: 0.00002  Tot: +0.00001 ]
	SubspaceRotationAdjust: set factor to 0.197
ElecMinimize: Iter:  20  G: -1154.844466507929155  |grad|_K:  5.246e-08  alpha:  2.807e-01  linmin:  5.285e-08  t[s]:    554.61
	FillingsUpdate:  mu: +0.171251786  nElectrons: 152.000000  magneticMoment: [ Abs: 0.00002  Tot: +0.00001 ]
	SubspaceRotationAdjust: set factor to 0.19
ElecMinimize: Iter:  21  G: -1154.844466649529977  |grad|_K:  3.717e-08  alpha:  3.014e-01  linmin:  3.290e-07  t[s]:    572.06
	FillingsUpdate:  mu: +0.171214298  nElectrons: 152.000000  magneticMoment: [ Abs: 0.00002  Tot: +0.00001 ]
	SubspaceRotationAdjust: set factor to 0.207
ElecMinimize: Iter:  22  G: -1154.844466732805813  |grad|_K:  2.755e-08  alpha:  3.531e-01  linmin:  1.010e-07  t[s]:    589.34
	FillingsUpdate:  mu: +0.171221821  nElectrons: 152.000000  magneticMoment: [ Abs: 0.00001  Tot: +0.00001 ]
	SubspaceRotationAdjust: set factor to 0.211
ElecMinimize: Iter:  23  G: -1154.844466777889011  |grad|_K:  2.239e-08  alpha:  3.481e-01  linmin:  3.647e-07  t[s]:    606.61
ElecMinimize: Converged (|Delta G|<1.000000e-07 for 2 iters).
Setting wave functions to eigenvectors of Hamiltonian
Converging empty states (this may take a while): |deigs|: 1.371e-02
Vacuum energy after initial minimize, F = -1154.844466777889011

Shifting auxilliary hamiltonian by -0.342522 to set nElectrons=152.000000

-------- Electronic minimization -----------
	Linear fluid (dielectric constant: 78.4, screening length: 8.12261 Bohr) occupying 0.442932 of unit cell:	Completed after 20 iterations at t[s]:    660.34
	FillingsUpdate:  mu: -0.171300000  nElectrons: 152.000000  magneticMoment: [ Abs: 0.00000  Tot: +0.00000 ]
ElecMinimize: Iter:   0  G: -1154.844803170622754  |grad|_K:  5.366e-06  alpha:  1.000e+00
	Linear fluid (dielectric constant: 78.4, screening length: 8.12261 Bohr) occupying 0.445921 of unit cell:	Completed after 20 iterations at t[s]:    675.36
	Linear fluid (dielectric constant: 78.4, screening length: 8.12261 Bohr) occupying 0.444077 of unit cell:	Completed after 19 iterations at t[s]:    681.02
ElecMinimize: 	Step increased G by 2.013924e-04, reducing alpha to 2.349247e-02.
	Linear fluid (dielectric constant: 78.4, screening length: 8.12261 Bohr) occupying 0.443054 of unit cell:	Completed after 19 iterations at t[s]:    693.05
	FillingsUpdate:  mu: -0.171300000  nElectrons: 151.990815  magneticMoment: [ Abs: 0.00000  Tot: +0.00000 ]
	SubspaceRotationAdjust: set factor to 0.107
ElecMinimize: Iter:   1  G: -1154.845003606973705  |grad|_K:  4.040e-06  alpha:  2.349e-02  linmin: -4.436e-02  t[s]:    700.03
	Linear fluid (dielectric constant: 78.4, screening length: 8.12261 Bohr) occupying 0.443233 of unit cell:	Completed after 13 iterations at t[s]:    706.60
	Linear fluid (dielectric constant: 78.4, screening length: 8.12261 Bohr) occupying 0.443491 of unit cell:	Completed after 14 iterations at t[s]:    711.98
	FillingsUpdate:  mu: -0.171300000  nElectrons: 151.962518  magneticMoment: [ Abs: 0.00000  Tot: +0.00000 ]
	SubspaceRotationAdjust: set factor to 0.0891
ElecMinimize: Iter:   2  G: -1154.845294290038055  |grad|_K:  2.022e-06  alpha:  5.784e-02  linmin: -5.838e-03  t[s]:    719.31
	Linear fluid (dielectric constant: 78.4, screening length: 8.12261 Bohr) occupying 0.443697 of unit cell:	Completed after 12 iterations at t[s]:    726.31
ElecMinimize: 	Predicted alpha/alphaT>3.000000, increasing alphaT to 1.735144e-01.
	Linear fluid (dielectric constant: 78.4, screening length: 8.12261 Bohr) occupying 0.444099 of unit cell:	Completed after 15 iterations at t[s]:    731.77
	Linear fluid (dielectric constant: 78.4, screening length: 8.12261 Bohr) occupying 0.444814 of unit cell:	Completed after 17 iterations at t[s]:    737.34
	FillingsUpdate:  mu: -0.171300000  nElectrons: 151.922500  magneticMoment: [ Abs: 0.00000  Tot: +0.00000 ]
	SubspaceRotationAdjust: set factor to 0.0534
ElecMinimize: Iter:   3  G: -1154.845638716202302  |grad|_K:  2.447e-06  alpha:  3.925e-01  linmin: -7.666e-03  t[s]:    744.26
	Linear fluid (dielectric constant: 78.4, screening length: 8.12261 Bohr) occupying 0.446835 of unit cell:	Completed after 18 iterations at t[s]:    751.25
	Linear fluid (dielectric constant: 78.4, screening length: 8.12261 Bohr) occupying 0.446104 of unit cell:	Completed after 14 iterations at t[s]:    756.69
	FillingsUpdate:  mu: -0.171300000  nElectrons: 151.909143  magneticMoment: [ Abs: 0.00000  Tot: +0.00000 ]
	SubspaceRotationAdjust: set factor to 0.0761
ElecMinimize: Iter:   4  G: -1154.845960695517988  |grad|_K:  1.754e-06  alpha:  2.423e-01  linmin: -3.396e-04  t[s]:    763.70
	Linear fluid (dielectric constant: 78.4, screening length: 8.12261 Bohr) occupying 0.446891 of unit cell:	Completed after 12 iterations at t[s]:    770.32
	Linear fluid (dielectric constant: 78.4, screening length: 8.12261 Bohr) occupying 0.447567 of unit cell:	Completed after 13 iterations at t[s]:    775.75
	FillingsUpdate:  mu: -0.171300000  nElectrons: 151.902925  magneticMoment: [ Abs: 0.00000  Tot: +0.00000 ]
	SubspaceRotationAdjust: set factor to 0.0767
ElecMinimize: Iter:   5  G: -1154.846198001798257  |grad|_K:  2.036e-06  alpha:  4.609e-01  linmin:  1.492e-03  t[s]:    782.76
	Linear fluid (dielectric constant: 78.4, screening length: 8.12261 Bohr) occupying 0.449632 of unit cell:	Completed after 14 iterations at t[s]:    789.43
	Linear fluid (dielectric constant: 78.4, screening length: 8.12261 Bohr) occupying 0.448853 of unit cell:	Completed after 14 iterations at t[s]:    794.86
	FillingsUpdate:  mu: -0.171300000  nElectrons: 151.893693  magneticMoment: [ Abs: 0.00000  Tot: +0.00000 ]
	SubspaceRotationAdjust: set factor to 0.102
ElecMinimize: Iter:   6  G: -1154.846380607522860  |grad|_K:  1.736e-06  alpha:  2.805e-01  linmin:  4.810e-05  t[s]:    801.78
	Linear fluid (dielectric constant: 78.4, screening length: 8.12261 Bohr) occupying 0.449859 of unit cell:	Completed after 15 iterations at t[s]:    808.26
	Linear fluid (dielectric constant: 78.4, screening length: 8.12261 Bohr) occupying 0.449891 of unit cell:	Completed after 9 iterations at t[s]:    813.58
	FillingsUpdate:  mu: -0.171300000  nElectrons: 151.882952  magneticMoment: [ Abs: 0.00000  Tot: +0.00000 ]
	SubspaceRotationAdjust: set factor to 0.109
ElecMinimize: Iter:   7  G: -1154.846529588884323  |grad|_K:  1.591e-06  alpha:  2.897e-01  linmin: -3.902e-04  t[s]:    820.56
	Linear fluid (dielectric constant: 78.4, screening length: 8.12261 Bohr) occupying 0.450876 of unit cell:	Completed after 13 iterations at t[s]:    827.14
	Linear fluid (dielectric constant: 78.4, screening length: 8.12261 Bohr) occupying 0.451067 of unit cell:	Completed after 12 iterations at t[s]:    832.53
	FillingsUpdate:  mu: -0.171300000  nElectrons: 151.873199  magneticMoment: [ Abs: 0.00000  Tot: +0.00000 ]
	SubspaceRotationAdjust: set factor to 0.124
ElecMinimize: Iter:   8  G: -1154.846682236927109  |grad|_K:  1.499e-06  alpha:  3.471e-01  linmin:  4.546e-05  t[s]:    839.54
	Linear fluid (dielectric constant: 78.4, screening length: 8.12261 Bohr) occupying 0.452207 of unit cell:	Completed after 12 iterations at t[s]:    846.16
	Linear fluid (dielectric constant: 78.4, screening length: 8.12261 Bohr) occupying 0.451996 of unit cell:	Completed after 11 iterations at t[s]:    851.42
	FillingsUpdate:  mu: -0.171300000  nElectrons: 151.869578  magneticMoment: [ Abs: 0.00000  Tot: +0.00000 ]
	SubspaceRotationAdjust: set factor to 0.138
ElecMinimize: Iter:   9  G: -1154.846789643068632  |grad|_K:  1.290e-06  alpha:  2.818e-01  linmin: -8.345e-05  t[s]:    858.39
	Linear fluid (dielectric constant: 78.4, screening length: 8.12261 Bohr) occupying 0.452735 of unit cell:	Completed after 13 iterations at t[s]:    864.99
	Linear fluid (dielectric constant: 78.4, screening length: 8.12261 Bohr) occupying 0.452928 of unit cell:	Completed after 11 iterations at t[s]:    870.26
	FillingsUpdate:  mu: -0.171300000  nElectrons: 151.864773  magneticMoment: [ Abs: 0.00000  Tot: +0.00000 ]
	SubspaceRotationAdjust: set factor to 0.154
ElecMinimize: Iter:  10  G: -1154.846892064528220  |grad|_K:  1.293e-06  alpha:  3.573e-01  linmin: -2.064e-04  t[s]:    877.45
	Linear fluid (dielectric constant: 78.4, screening length: 8.12261 Bohr) occupying 0.453884 of unit cell:	Completed after 14 iterations at t[s]:    884.12
	Linear fluid (dielectric constant: 78.4, screening length: 8.12261 Bohr) occupying 0.453678 of unit cell:	Completed after 12 iterations at t[s]:    889.47
	FillingsUpdate:  mu: -0.171300000  nElectrons: 151.855545  magneticMoment: [ Abs: 0.00000  Tot: +0.00000 ]
	SubspaceRotationAdjust: set factor to 0.157
ElecMinimize: Iter:  11  G: -1154.846973580092026  |grad|_K:  1.116e-06  alpha:  2.787e-01  linmin:  1.193e-04  t[s]:    896.51
	Linear fluid (dielectric constant: 78.4, screening length: 8.12261 Bohr) occupying 0.454268 of unit cell:	Completed after 12 iterations at t[s]:    902.97
	Linear fluid (dielectric constant: 78.4, screening length: 8.12261 Bohr) occupying 0.454355 of unit cell:	Completed after 10 iterations at t[s]:    908.29
	FillingsUpdate:  mu: -0.171300000  nElectrons: 151.850134  magneticMoment: [ Abs: 0.00000  Tot: +0.00000 ]
	SubspaceRotationAdjust: set factor to 0.182
ElecMinimize: Iter:  12  G: -1154.847041339974794  |grad|_K:  1.072e-06  alpha:  3.212e-01  linmin:  3.696e-05  t[s]:    915.21
	Linear fluid (dielectric constant: 78.4, screening length: 8.12261 Bohr) occupying 0.454994 of unit cell:	Completed after 13 iterations at t[s]:    921.66
	Linear fluid (dielectric constant: 78.4, screening length: 8.12261 Bohr) occupying 0.454840 of unit cell:	Completed after 11 iterations at t[s]:    926.95
	FillingsUpdate:  mu: -0.171300000  nElectrons: 151.850663  magneticMoment: [ Abs: 0.00000  Tot: +0.00000 ]
	SubspaceRotationAdjust: set factor to 0.17
ElecMinimize: Iter:  13  G: -1154.847088553663752  |grad|_K:  8.552e-07  alpha:  2.418e-01  linmin: -2.424e-05  t[s]:    934.06
	Linear fluid (dielectric constant: 78.4, screening length: 8.12261 Bohr) occupying 0.455180 of unit cell:	Completed after 12 iterations at t[s]:    940.51
	Linear fluid (dielectric constant: 78.4, screening length: 8.12261 Bohr) occupying 0.455237 of unit cell:	Completed after 4 iterations at t[s]:    945.56
	FillingsUpdate:  mu: -0.171300000  nElectrons: 151.848013  magneticMoment: [ Abs: 0.00000  Tot: +0.00000 ]
	SubspaceRotationAdjust: set factor to 0.202
ElecMinimize: Iter:  14  G: -1154.847123965569835  |grad|_K:  6.910e-07  alpha:  2.830e-01  linmin: -4.656e-06  t[s]:    952.56
	Linear fluid (dielectric constant: 78.4, screening length: 8.12261 Bohr) occupying 0.455532 of unit cell:	Completed after 12 iterations at t[s]:    959.12
	Linear fluid (dielectric constant: 78.4, screening length: 8.12261 Bohr) occupying 0.455515 of unit cell:	Completed after 9 iterations at t[s]:    964.47
	FillingsUpdate:  mu: -0.171300000  nElectrons: 151.844035  magneticMoment: [ Abs: 0.00000  Tot: +0.00000 ]
	SubspaceRotationAdjust: set factor to 0.185
ElecMinimize: Iter:  15  G: -1154.847145684523866  |grad|_K:  6.015e-07  alpha:  2.661e-01  linmin:  4.981e-05  t[s]:    971.44
	Linear fluid (dielectric constant: 78.4, screening length: 8.12261 Bohr) occupying 0.455746 of unit cell:	Completed after 13 iterations at t[s]:    978.07
	Linear fluid (dielectric constant: 78.4, screening length: 8.12261 Bohr) occupying 0.455714 of unit cell:	Completed after 9 iterations at t[s]:    983.31
	FillingsUpdate:  mu: -0.171300000  nElectrons: 151.844493  magneticMoment: [ Abs: 0.00000  Tot: +0.00000 ]
	SubspaceRotationAdjust: set factor to 0.193
ElecMinimize: Iter:  16  G: -1154.847159757092186  |grad|_K:  4.192e-07  alpha:  2.285e-01  linmin: -9.421e-06  t[s]:    990.29
	Linear fluid (dielectric constant: 78.4, screening length: 8.12261 Bohr) occupying 0.455825 of unit cell:	Completed after 10 iterations at t[s]:    996.80
	Linear fluid (dielectric constant: 78.4, screening length: 8.12261 Bohr) occupying 0.455856 of unit cell:	Completed after 7 iterations at t[s]:   1002.01
	FillingsUpdate:  mu: -0.171300000  nElectrons: 151.844484  magneticMoment: [ Abs: 0.00000  Tot: +0.00000 ]
	SubspaceRotationAdjust: set factor to 0.214
ElecMinimize: Iter:  17  G: -1154.847168499670033  |grad|_K:  3.493e-07  alpha:  2.912e-01  linmin: -1.051e-05  t[s]:   1009.02
	Linear fluid (dielectric constant: 78.4, screening length: 8.12261 Bohr) occupying 0.455965 of unit cell:	Completed after 12 iterations at t[s]:   1015.55
	Linear fluid (dielectric constant: 78.4, screening length: 8.12261 Bohr) occupying 0.455944 of unit cell:	Completed after 10 iterations at t[s]:   1021.69
	FillingsUpdate:  mu: -0.171300000  nElectrons: 151.842976  magneticMoment: [ Abs: 0.00000  Tot: +0.00000 ]
	SubspaceRotationAdjust: set factor to 0.2
ElecMinimize: Iter:  18  G: -1154.847173390480975  |grad|_K:  2.858e-07  alpha:  2.346e-01  linmin: -6.446e-07  t[s]:   1028.78
	Linear fluid (dielectric constant: 78.4, screening length: 8.12261 Bohr) occupying 0.456002 of unit cell:	Completed after 10 iterations at t[s]:   1035.10
	Linear fluid (dielectric constant: 78.4, screening length: 8.12261 Bohr) occupying 0.456005 of unit cell:	Completed after 2 iterations at t[s]:   1040.07
	FillingsUpdate:  mu: -0.171300000  nElectrons: 151.843269  magneticMoment: [ Abs: 0.00000  Tot: +0.00000 ]
	SubspaceRotationAdjust: set factor to 0.222
ElecMinimize: Iter:  19  G: -1154.847176850753385  |grad|_K:  2.090e-07  alpha:  2.480e-01  linmin: -3.107e-05  t[s]:   1047.03
	Linear fluid (dielectric constant: 78.4, screening length: 8.12261 Bohr) occupying 0.456035 of unit cell:	Completed after 10 iterations at t[s]:   1053.41
	Linear fluid (dielectric constant: 78.4, screening length: 8.12261 Bohr) occupying 0.456042 of unit cell:	Completed after 2 iterations at t[s]:   1058.48
	FillingsUpdate:  mu: -0.171300000  nElectrons: 151.843356  magneticMoment: [ Abs: 0.00000  Tot: -0.00000 ]
	SubspaceRotationAdjust: set factor to 0.242
ElecMinimize: Iter:  20  G: -1154.847179103045164  |grad|_K:  1.792e-07  alpha:  3.012e-01  linmin: -6.628e-05  t[s]:   1065.47
	Linear fluid (dielectric constant: 78.4, screening length: 8.12261 Bohr) occupying 0.456064 of unit cell:	Completed after 12 iterations at t[s]:   1072.00
	Linear fluid (dielectric constant: 78.4, screening length: 8.12261 Bohr) occupying 0.456058 of unit cell:	Completed after 10 iterations at t[s]:   1077.31
	FillingsUpdate:  mu: -0.171300000  nElectrons: 151.842628  magneticMoment: [ Abs: 0.00000  Tot: -0.00000 ]
	SubspaceRotationAdjust: set factor to 0.212
ElecMinimize: Iter:  21  G: -1154.847180291538052  |grad|_K:  1.415e-07  alpha:  2.151e-01  linmin:  8.734e-05  t[s]:   1084.33
	Linear fluid (dielectric constant: 78.4, screening length: 8.12261 Bohr) occupying 0.456061 of unit cell:	Completed after 10 iterations at t[s]:   1090.65
	Linear fluid (dielectric constant: 78.4, screening length: 8.12261 Bohr) occupying 0.456061 of unit cell:	Completed after 2 iterations at t[s]:   1095.61
	FillingsUpdate:  mu: -0.171300000  nElectrons: 151.843053  magneticMoment: [ Abs: 0.00000  Tot: -0.00000 ]
	SubspaceRotationAdjust: set factor to 0.225
ElecMinimize: Iter:  22  G: -1154.847181154713553  |grad|_K:  1.083e-07  alpha:  2.534e-01  linmin: -7.374e-05  t[s]:   1102.64
	Linear fluid (dielectric constant: 78.4, screening length: 8.12261 Bohr) occupying 0.456058 of unit cell:	Completed after 7 iterations at t[s]:   1109.05
	Linear fluid (dielectric constant: 78.4, screening length: 8.12261 Bohr) occupying 0.456057 of unit cell:	Completed after 2 iterations at t[s]:   1114.22
	FillingsUpdate:  mu: -0.171300000  nElectrons: 151.843355  magneticMoment: [ Abs: 0.00000  Tot: -0.00000 ]
	SubspaceRotationAdjust: set factor to 0.246
ElecMinimize: Iter:  23  G: -1154.847181739725329  |grad|_K:  8.712e-08  alpha:  2.907e-01  linmin: -1.567e-04  t[s]:   1121.27
	Linear fluid (dielectric constant: 78.4, screening length: 8.12261 Bohr) occupying 0.456048 of unit cell:	Completed after 10 iterations at t[s]:   1127.64
	Linear fluid (dielectric constant: 78.4, screening length: 8.12261 Bohr) occupying 0.456050 of unit cell:	Completed after 7 iterations at t[s]:   1132.80
	FillingsUpdate:  mu: -0.171300000  nElectrons: 151.843177  magneticMoment: [ Abs: 0.00000  Tot: -0.00000 ]
	SubspaceRotationAdjust: set factor to 0.219
ElecMinimize: Iter:  24  G: -1154.847182037604171  |grad|_K:  7.609e-08  alpha:  2.276e-01  linmin:  7.619e-05  t[s]:   1139.77
	Linear fluid (dielectric constant: 78.4, screening length: 8.12261 Bohr) occupying 0.456038 of unit cell:	Completed after 10 iterations at t[s]:   1146.26
	Linear fluid (dielectric constant: 78.4, screening length: 8.12261 Bohr) occupying 0.456038 of unit cell:	Completed after 0 iterations at t[s]:   1151.11
	FillingsUpdate:  mu: -0.171300000  nElectrons: 151.843566  magneticMoment: [ Abs: 0.00000  Tot: -0.00000 ]
	SubspaceRotationAdjust: set factor to 0.222
ElecMinimize: Iter:  25  G: -1154.847182264546746  |grad|_K:  5.581e-08  alpha:  2.304e-01  linmin: -4.659e-05  t[s]:   1158.10
	Linear fluid (dielectric constant: 78.4, screening length: 8.12261 Bohr) occupying 0.456027 of unit cell:	Completed after 1 iterations at t[s]:   1164.14
	Linear fluid (dielectric constant: 78.4, screening length: 8.12261 Bohr) occupying 0.456023 of unit cell:	Completed after 2 iterations at t[s]:   1169.14
	FillingsUpdate:  mu: -0.171300000  nElectrons: 151.843768  magneticMoment: [ Abs: 0.00000  Tot: -0.00000 ]
	SubspaceRotationAdjust: set factor to 0.251
ElecMinimize: Iter:  26  G: -1154.847182430040448  |grad|_K:  4.780e-08  alpha:  3.100e-01  linmin: -3.369e-05  t[s]:   1176.17
	Linear fluid (dielectric constant: 78.4, screening length: 8.12261 Bohr) occupying 0.456007 of unit cell:	Completed after 8 iterations at t[s]:   1182.60
	Linear fluid (dielectric constant: 78.4, screening length: 8.12261 Bohr) occupying 0.456008 of unit cell:	Completed after 0 iterations at t[s]:   1187.50
	FillingsUpdate:  mu: -0.171300000  nElectrons: 151.843779  magneticMoment: [ Abs: 0.00000  Tot: -0.00000 ]
	SubspaceRotationAdjust: set factor to 0.241
ElecMinimize: Iter:  27  G: -1154.847182538060679  |grad|_K:  4.319e-08  alpha:  2.750e-01  linmin:  3.588e-04  t[s]:   1194.48
	Linear fluid (dielectric constant: 78.4, screening length: 8.12261 Bohr) occupying 0.455992 of unit cell:	Completed after 9 iterations at t[s]:   1201.01
	Linear fluid (dielectric constant: 78.4, screening length: 8.12261 Bohr) occupying 0.455997 of unit cell:	Completed after 7 iterations at t[s]:   1206.23
	FillingsUpdate:  mu: -0.171300000  nElectrons: 151.844044  magneticMoment: [ Abs: 0.00000  Tot: -0.00000 ]
	SubspaceRotationAdjust: set factor to 0.206
ElecMinimize: Iter:  28  G: -1154.847182593444813  |grad|_K:  3.454e-08  alpha:  1.830e-01  linmin: -9.948e-05  t[s]:   1213.23
	Linear fluid (dielectric constant: 78.4, screening length: 8.12261 Bohr) occupying 0.455988 of unit cell:	Completed after 6 iterations at t[s]:   1219.60
	Linear fluid (dielectric constant: 78.4, screening length: 8.12261 Bohr) occupying 0.455983 of unit cell:	Completed after 2 iterations at t[s]:   1224.56
	FillingsUpdate:  mu: -0.171300000  nElectrons: 151.844113  magneticMoment: [ Abs: 0.00000  Tot: -0.00000 ]
	SubspaceRotationAdjust: set factor to 0.237
ElecMinimize: Iter:  29  G: -1154.847182651334151  |grad|_K:  2.782e-08  alpha:  2.818e-01  linmin: -6.154e-05  t[s]:   1231.57
ElecMinimize: Converged (|Delta G|<1.000000e-07 for 2 iters).
Setting wave functions to eigenvectors of Hamiltonian
Converging empty states (this may take a while): |deigs|: 3.569e-04
Single-point solvation energy estimate, DeltaG = -0.002715873445140

Computing DFT-D3 correction:
# coordination-number Ag 8.400 9.208 5.384 9.198 9.198 5.384 9.208 8.400
# diagonal-C6 Ag 268.61 268.61 268.61 268.61 268.61 268.61 268.61 268.61
EvdW_6 =   -0.048769
EvdW_8 =   -0.067521

# Ionic positions in cartesian coordinates:
ion Ag   0.000000000000000   0.000000000000000  50.139125999999997 1
ion Ag   0.000000000000000   0.000000000000000  44.718679999999999 1
ion Ag   2.710223000000000   3.832834000000000  52.849348999999997 1
ion Ag   2.710223000000000   3.832834000000000  47.428902999999998 1
ion Ag   0.000000000000000   0.000000000000000  39.298234000000001 1
ion Ag   0.000000000000000   0.000000000000000  33.877788000000002 1
ion Ag   2.710223000000000   3.832834000000000  42.008457000000000 1
ion Ag   2.710223000000000   3.832834000000000  36.588011000000002 1

# Forces in Cartesian coordinates:
force Ag   0.000010803835869   0.000001938877734   0.004422583918268 1
force Ag   0.000008595957029   0.000000112958227  -0.000308609608589 1
force Ag  -0.000014101615268  -0.000005392782592  -0.000390968546800 1
force Ag  -0.000012224281857   0.000000860472042  -0.000804295391451 1
force Ag   0.000009177178449  -0.000001476359656   0.000940352760200 1
force Ag   0.000008493193946   0.000004484403222   0.000797036207843 1
force Ag  -0.000010832581436  -0.000001209667426   0.000315710018714 1
force Ag  -0.000008593843058  -0.000002415952846  -0.004603775403474 1

# Energy components:
   A_diel =        0.0356341514065678
   Eewald =     4888.4321428802004448
       EH =     5961.0560613520992774
     Eloc =   -12215.9520566337778291
      Enl =       31.5729284323307979
     EvdW =       -0.1162894404394388
      Exc =     -115.9047006457028175
 Exc_core =        1.6653682104699974
       KE =      268.3425537766794378
  MuShift =        0.0104383795927900
-------------------------------------
     Etot =    -1180.8579195371412425
       TS =        0.0001596629177908
-------------------------------------
        F =    -1180.8580792000591373
      muN =      -26.0108965487249471
-------------------------------------
        G =    -1154.8471826513341512


Dumping 'jdft.fillings' ... done
Dumping 'jdft.wfns' ... done
Dumping 'jdft.fluidState' ... done
Dumping 'jdft.ionpos' ... done
Dumping 'jdft.lattice' ... done
Dumping 'jdft.eigenvals' ... done
Dumping 'jdft.eigStats' ... 
	eMin: -3.554259 at state 0 ( [ +0.000000 +0.000000 +0.000000 ] spin 1 )
	HOMO: -0.173141 at state 89 ( [ -0.083333 +0.125000 +0.000000 ] spin 1 )
	mu  : -0.171300
	LUMO: -0.170888 at state 102 ( [ +0.000000 -0.250000 +0.000000 ] spin -1 )
	eMax: +0.182017 at state 144 ( [ +0.500000 +0.000000 +0.000000 ] spin -1 )
	HOMO-LUMO gap: +0.002254
	Optical gap  : +0.015583 at state 37 ( [ +0.333333 -0.375000 +0.000000 ] spin 1 )
Dumping 'jdft.Ecomponents' ... done
IonicMinimize: Iter:   0  G: -1154.847182651334151  |grad|_K:  1.342e-03  t[s]:   1283.41

#--- Lowdin population analysis ---
# oxidation-state Ag -0.065 +0.001 +0.174 -0.010 -0.010 +0.174 +0.001 -0.065
# magnetic-moments Ag -0.000 -0.000 -0.000 -0.000 -0.000 -0.000 +0.000 -0.000


Computing DFT-D3 correction:
# coordination-number Ag 8.396 9.207 5.389 9.193 9.193 5.390 9.207 8.396
# diagonal-C6 Ag 268.61 268.61 268.61 268.61 268.61 268.61 268.61 268.61
EvdW_6 =   -0.048763
EvdW_8 =   -0.067506
Shifting auxilliary hamiltonian by -0.000003 to set nElectrons=151.844113

-------- Electronic minimization -----------
	Linear fluid (dielectric constant: 78.4, screening length: 8.12261 Bohr) occupying 0.455964 of unit cell:	Completed after 10 iterations at t[s]:   1290.68
	FillingsUpdate:  mu: -0.171300000  nElectrons: 151.844113  magneticMoment: [ Abs: 0.00000  Tot: -0.00000 ]
ElecMinimize: Iter:   0  G: -1154.847214565185595  |grad|_K:  1.658e-07  alpha:  1.000e+00
	Linear fluid (dielectric constant: 78.4, screening length: 8.12261 Bohr) occupying 0.455952 of unit cell:	Completed after 13 iterations at t[s]:   1305.45
	Linear fluid (dielectric constant: 78.4, screening length: 8.12261 Bohr) occupying 0.455961 of unit cell:	Completed after 13 iterations at t[s]:   1310.92
	FillingsUpdate:  mu: -0.171300000  nElectrons: 151.845295  magneticMoment: [ Abs: 0.00000  Tot: -0.00000 ]
	SubspaceRotationAdjust: set factor to 0.135
ElecMinimize: Iter:   1  G: -1154.847215820174370  |grad|_K:  2.030e-07  alpha:  2.676e-01  linmin: -1.161e-05  t[s]:   1318.59
	Linear fluid (dielectric constant: 78.4, screening length: 8.12261 Bohr) occupying 0.455958 of unit cell:	Completed after 11 iterations at t[s]:   1325.76
	Linear fluid (dielectric constant: 78.4, screening length: 8.12261 Bohr) occupying 0.455957 of unit cell:	Completed after 10 iterations at t[s]:   1331.04
	FillingsUpdate:  mu: -0.171300000  nElectrons: 151.844396  magneticMoment: [ Abs: 0.00000  Tot: -0.00000 ]
	SubspaceRotationAdjust: set factor to 0.151
ElecMinimize: Iter:   2  G: -1154.847218506401532  |grad|_K:  1.530e-07  alpha:  3.817e-01  linmin: -2.136e-05  t[s]:   1338.02
	Linear fluid (dielectric constant: 78.4, screening length: 8.12261 Bohr) occupying 0.455952 of unit cell:	Completed after 7 iterations at t[s]:   1344.37
	Linear fluid (dielectric constant: 78.4, screening length: 8.12261 Bohr) occupying 0.455949 of unit cell:	Completed after 6 iterations at t[s]:   1349.54
	FillingsUpdate:  mu: -0.171300000  nElectrons: 151.844227  magneticMoment: [ Abs: 0.00000  Tot: -0.00000 ]
	SubspaceRotationAdjust: set factor to 0.172
ElecMinimize: Iter:   3  G: -1154.847221217067727  |grad|_K:  1.542e-07  alpha:  6.780e-01  linmin:  1.470e-05  t[s]:   1356.49
	Linear fluid (dielectric constant: 78.4, screening length: 8.12261 Bohr) occupying 0.455938 of unit cell:	Completed after 12 iterations at t[s]:   1363.07
	Linear fluid (dielectric constant: 78.4, screening length: 8.12261 Bohr) occupying 0.455943 of unit cell:	Completed after 10 iterations at t[s]:   1368.37
	FillingsUpdate:  mu: -0.171300000  nElectrons: 151.844910  magneticMoment: [ Abs: 0.00000  Tot: -0.00000 ]
	SubspaceRotationAdjust: set factor to 0.146
ElecMinimize: Iter:   4  G: -1154.847222609796972  |grad|_K:  1.169e-07  alpha:  3.431e-01  linmin:  7.731e-06  t[s]:   1375.37
	Linear fluid (dielectric constant: 78.4, screening length: 8.12261 Bohr) occupying 0.455941 of unit cell:	Completed after 10 iterations at t[s]:   1381.89
	Linear fluid (dielectric constant: 78.4, screening length: 8.12261 Bohr) occupying 0.455942 of unit cell:	Completed after 8 iterations at t[s]:   1387.18
	FillingsUpdate:  mu: -0.171300000  nElectrons: 151.844374  magneticMoment: [ Abs: 0.00000  Tot: -0.00000 ]
	SubspaceRotationAdjust: set factor to 0.0994
ElecMinimize: Iter:   5  G: -1154.847223270992572  |grad|_K:  7.938e-08  alpha:  2.834e-01  linmin:  5.254e-05  t[s]:   1394.11
	Linear fluid (dielectric constant: 78.4, screening length: 8.12261 Bohr) occupying 0.455940 of unit cell:	Completed after 10 iterations at t[s]:   1400.60
	Linear fluid (dielectric constant: 78.4, screening length: 8.12261 Bohr) occupying 0.455940 of unit cell:	Completed after 2 iterations at t[s]:   1405.63
	FillingsUpdate:  mu: -0.171300000  nElectrons: 151.844691  magneticMoment: [ Abs: 0.00000  Tot: -0.00000 ]
	SubspaceRotationAdjust: set factor to 0.108
ElecMinimize: Iter:   6  G: -1154.847223607995375  |grad|_K:  4.483e-08  alpha:  3.137e-01  linmin: -1.812e-04  t[s]:   1412.81
	Linear fluid (dielectric constant: 78.4, screening length: 8.12261 Bohr) occupying 0.455939 of unit cell:	Completed after 8 iterations at t[s]:   1419.09
	Linear fluid (dielectric constant: 78.4, screening length: 8.12261 Bohr) occupying 0.455939 of unit cell:	Completed after 2 iterations at t[s]:   1424.04
	FillingsUpdate:  mu: -0.171300000  nElectrons: 151.844818  magneticMoment: [ Abs: 0.00000  Tot: -0.00000 ]
	SubspaceRotationAdjust: set factor to 0.113
ElecMinimize: Iter:   7  G: -1154.847223731737813  |grad|_K:  3.109e-08  alpha:  3.576e-01  linmin: -9.228e-04  t[s]:   1430.98
	Linear fluid (dielectric constant: 78.4, screening length: 8.12261 Bohr) occupying 0.455938 of unit cell:	Completed after 9 iterations at t[s]:   1437.45
	Linear fluid (dielectric constant: 78.4, screening length: 8.12261 Bohr) occupying 0.455938 of unit cell:	Completed after 0 iterations at t[s]:   1442.35
	FillingsUpdate:  mu: -0.171300000  nElectrons: 151.844674  magneticMoment: [ Abs: 0.00000  Tot: -0.00000 ]
	SubspaceRotationAdjust: set factor to 0.0882
ElecMinimize: Iter:   8  G: -1154.847223788529391  |grad|_K:  2.024e-08  alpha:  3.365e-01  linmin:  1.928e-03  t[s]:   1449.36
	Linear fluid (dielectric constant: 78.4, screening length: 8.12261 Bohr) occupying 0.455938 of unit cell:	Completed after 5 iterations at t[s]:   1455.52
	Linear fluid (dielectric constant: 78.4, screening length: 8.12261 Bohr) occupying 0.455938 of unit cell:	Completed after 1 iterations at t[s]:   1460.55
	FillingsUpdate:  mu: -0.171300000  nElectrons: 151.844739  magneticMoment: [ Abs: 0.00000  Tot: -0.00000 ]
	SubspaceRotationAdjust: set factor to 0.0989
ElecMinimize: Iter:   9  G: -1154.847223815314464  |grad|_K:  1.357e-08  alpha:  3.963e-01  linmin: -2.290e-03  t[s]:   1467.46
ElecMinimize: Converged (|Delta G|<1.000000e-07 for 2 iters).
Setting wave functions to eigenvectors of Hamiltonian
Converging empty states (this may take a while): |deigs|: 5.036e-08

Computing DFT-D3 correction:
# coordination-number Ag 8.396 9.207 5.389 9.193 9.193 5.390 9.207 8.396
# diagonal-C6 Ag 268.61 268.61 268.61 268.61 268.61 268.61 268.61 268.61
EvdW_6 =   -0.048763
EvdW_8 =   -0.067506
IonicMinimize: 	Wolfe criterion not satisfied: alpha: 1  (E-E0)/|gdotd0|: -0.95172  gdotd/gdotd0: 0.92268 (taking cubic step)

Computing DFT-D3 correction:
# coordination-number Ag 8.389 9.205 5.400 9.183 9.183 5.403 9.205 8.389
# diagonal-C6 Ag 268.61 268.61 268.61 268.61 268.61 268.61 268.61 268.61
EvdW_6 =   -0.048752
EvdW_8 =   -0.067477
Shifting auxilliary hamiltonian by -0.000002 to set nElectrons=151.844739

-------- Electronic minimization -----------
	Linear fluid (dielectric constant: 78.4, screening length: 8.12261 Bohr) occupying 0.455976 of unit cell:	Completed after 12 iterations at t[s]:   1491.85
	FillingsUpdate:  mu: -0.171300000  nElectrons: 151.844739  magneticMoment: [ Abs: 0.00000  Tot: -0.00000 ]
ElecMinimize: Iter:   0  G: -1154.847261888854518  |grad|_K:  2.310e-07  alpha:  1.000e+00
	Linear fluid (dielectric constant: 78.4, screening length: 8.12261 Bohr) occupying 0.455973 of unit cell:	Completed after 12 iterations at t[s]:   1506.80
	Linear fluid (dielectric constant: 78.4, screening length: 8.12261 Bohr) occupying 0.455974 of unit cell:	Completed after 10 iterations at t[s]:   1512.08
	FillingsUpdate:  mu: -0.171300000  nElectrons: 151.845310  magneticMoment: [ Abs: 0.00000  Tot: -0.00000 ]
	SubspaceRotationAdjust: set factor to 0.119
ElecMinimize: Iter:   1  G: -1154.847267701003602  |grad|_K:  2.158e-07  alpha:  6.373e-01  linmin:  1.294e-05  t[s]:   1518.96
	Linear fluid (dielectric constant: 78.4, screening length: 8.12261 Bohr) occupying 0.455973 of unit cell:	Completed after 10 iterations at t[s]:   1525.31
	Linear fluid (dielectric constant: 78.4, screening length: 8.12261 Bohr) occupying 0.455972 of unit cell:	Completed after 9 iterations at t[s]:   1530.67
	FillingsUpdate:  mu: -0.171300000  nElectrons: 151.844574  magneticMoment: [ Abs: 0.00000  Tot: -0.00000 ]
	SubspaceRotationAdjust: set factor to 0.135
ElecMinimize: Iter:   2  G: -1154.847273712946617  |grad|_K:  2.896e-07  alpha:  7.563e-01  linmin:  6.289e-06  t[s]:   1537.71
	Linear fluid (dielectric constant: 78.4, screening length: 8.12261 Bohr) occupying 0.455964 of unit cell:	Completed after 12 iterations at t[s]:   1544.25
	Linear fluid (dielectric constant: 78.4, screening length: 8.12261 Bohr) occupying 0.455965 of unit cell:	Completed after 10 iterations at t[s]:   1549.50
	FillingsUpdate:  mu: -0.171300000  nElectrons: 151.845313  magneticMoment: [ Abs: 0.00000  Tot: -0.00000 ]
	SubspaceRotationAdjust: set factor to 0.145
ElecMinimize: Iter:   3  G: -1154.847283033163194  |grad|_K:  2.894e-07  alpha:  6.509e-01  linmin: -1.679e-06  t[s]:   1556.52
	Linear fluid (dielectric constant: 78.4, screening length: 8.12261 Bohr) occupying 0.455959 of unit cell:	Completed after 11 iterations at t[s]:   1563.08
	Linear fluid (dielectric constant: 78.4, screening length: 8.12261 Bohr) occupying 0.455960 of unit cell:	Completed after 6 iterations at t[s]:   1568.24
	FillingsUpdate:  mu: -0.171300000  nElectrons: 151.844719  magneticMoment: [ Abs: 0.00000  Tot: -0.00000 ]
	SubspaceRotationAdjust: set factor to 0.147
ElecMinimize: Iter:   4  G: -1154.847291315190887  |grad|_K:  2.363e-07  alpha:  5.790e-01  linmin:  2.302e-06  t[s]:   1575.23
	Linear fluid (dielectric constant: 78.4, screening length: 8.12261 Bohr) occupying 0.455954 of unit cell:	Completed after 12 iterations at t[s]:   1581.68
	Linear fluid (dielectric constant: 78.4, screening length: 8.12261 Bohr) occupying 0.455956 of unit cell:	Completed after 10 iterations at t[s]:   1586.94
	FillingsUpdate:  mu: -0.171300000  nElectrons: 151.845404  magneticMoment: [ Abs: 0.00000  Tot: -0.00000 ]
	SubspaceRotationAdjust: set factor to 0.132
ElecMinimize: Iter:   5  G: -1154.847295361226998  |grad|_K:  1.669e-07  alpha:  4.243e-01  linmin: -3.971e-06  t[s]:   1594.02
	Linear fluid (dielectric constant: 78.4, screening length: 8.12261 Bohr) occupying 0.455955 of unit cell:	Completed after 12 iterations at t[s]:   1600.58
	Linear fluid (dielectric constant: 78.4, screening length: 8.12261 Bohr) occupying 0.455955 of unit cell:	Completed after 7 iterations at t[s]:   1605.77
	FillingsUpdate:  mu: -0.171300000  nElectrons: 151.844608  magneticMoment: [ Abs: 0.00000  Tot: -0.00000 ]
	SubspaceRotationAdjust: set factor to 0.0956
ElecMinimize: Iter:   6  G: -1154.847297176299207  |grad|_K:  1.160e-07  alpha:  3.816e-01  linmin:  1.165e-05  t[s]:   1612.72
	Linear fluid (dielectric constant: 78.4, screening length: 8.12261 Bohr) occupying 0.455952 of unit cell:	Completed after 9 iterations at t[s]:   1619.65
	Linear fluid (dielectric constant: 78.4, screening length: 8.12261 Bohr) occupying 0.455953 of unit cell:	Completed after 8 iterations at t[s]:   1625.28
	FillingsUpdate:  mu: -0.171300000  nElectrons: 151.845154  magneticMoment: [ Abs: 0.00000  Tot: -0.00000 ]
	SubspaceRotationAdjust: set factor to 0.0692
ElecMinimize: Iter:   7  G: -1154.847297908328301  |grad|_K:  6.935e-08  alpha:  3.187e-01  linmin:  3.661e-05  t[s]:   1632.23
	Linear fluid (dielectric constant: 78.4, screening length: 8.12261 Bohr) occupying 0.455951 of unit cell:	Completed after 7 iterations at t[s]:   1638.55
	Linear fluid (dielectric constant: 78.4, screening length: 8.12261 Bohr) occupying 0.455951 of unit cell:	Completed after 2 iterations at t[s]:   1643.53
	FillingsUpdate:  mu: -0.171300000  nElectrons: 151.845116  magneticMoment: [ Abs: 0.00000  Tot: -0.00000 ]
	SubspaceRotationAdjust: set factor to 0.082
ElecMinimize: Iter:   8  G: -1154.847298264107849  |grad|_K:  4.151e-08  alpha:  4.332e-01  linmin: -1.793e-04  t[s]:   1650.57
	Linear fluid (dielectric constant: 78.4, screening length: 8.12261 Bohr) occupying 0.455949 of unit cell:	Completed after 9 iterations at t[s]:   1656.99
	Linear fluid (dielectric constant: 78.4, screening length: 8.12261 Bohr) occupying 0.455949 of unit cell:	Completed after 2 iterations at t[s]:   1661.96
	FillingsUpdate:  mu: -0.171300000  nElectrons: 151.845000  magneticMoment: [ Abs: 0.00000  Tot: -0.00000 ]
	SubspaceRotationAdjust: set factor to 0.0733
ElecMinimize: Iter:   9  G: -1154.847298375666924  |grad|_K:  2.642e-08  alpha:  3.791e-01  linmin: -1.841e-04  t[s]:   1668.87
	Linear fluid (dielectric constant: 78.4, screening length: 8.12261 Bohr) occupying 0.455948 of unit cell:	Completed after 8 iterations at t[s]:   1675.18
	Linear fluid (dielectric constant: 78.4, screening length: 8.12261 Bohr) occupying 0.455948 of unit cell:	Completed after 0 iterations at t[s]:   1680.06
	FillingsUpdate:  mu: -0.171300000  nElectrons: 151.845100  magneticMoment: [ Abs: 0.00000  Tot: -0.00000 ]
	SubspaceRotationAdjust: set factor to 0.0734
ElecMinimize: Iter:  10  G: -1154.847298422381755  |grad|_K:  1.576e-08  alpha:  3.913e-01  linmin: -2.444e-03  t[s]:   1686.99
	Linear fluid (dielectric constant: 78.4, screening length: 8.12261 Bohr) occupying 0.455947 of unit cell:	Completed after 2 iterations at t[s]:   1693.13
	Linear fluid (dielectric constant: 78.4, screening length: 8.12261 Bohr) occupying 0.455946 of unit cell:	Completed after 0 iterations at t[s]:   1697.99
	FillingsUpdate:  mu: -0.171300000  nElectrons: 151.845123  magneticMoment: [ Abs: 0.00000  Tot: -0.00000 ]
	SubspaceRotationAdjust: set factor to 0.0902
ElecMinimize: Iter:  11  G: -1154.847298441470457  |grad|_K:  1.122e-08  alpha:  4.408e-01  linmin: -3.696e-04  t[s]:   1704.95
ElecMinimize: Converged (|Delta G|<1.000000e-07 for 2 iters).
Setting wave functions to eigenvectors of Hamiltonian
Converging empty states (this may take a while): |deigs|: 1.910e-08

Computing DFT-D3 correction:
# coordination-number Ag 8.389 9.205 5.400 9.183 9.183 5.403 9.205 8.389
# diagonal-C6 Ag 268.61 268.61 268.61 268.61 268.61 268.61 268.61 268.61
EvdW_6 =   -0.048752
EvdW_8 =   -0.067477

# Ionic positions in cartesian coordinates:
ion Ag   0.000035667316229   0.000006978402438  50.152255739021790 1
ion Ag   0.000029043679709   0.000001500643917  44.717616158441217 1
ion Ag   2.710183950962817   3.832818983421459  52.848038081626584 1
ion Ag   2.710189582963052   3.832837743185362  47.426352101092633 1
ion Ag   0.000030787343970  -0.000003267309733  39.300917045547585 1
ion Ag   0.000028735390460   0.000014614978902  33.880041095890519 1
ion Ag   2.710193758064316   3.832831532766957  42.009266117323122 1
ion Ag   2.710200474279448   3.832827913910696  36.574061661056561 1

# Forces in Cartesian coordinates:
force Ag   0.000009900843632   0.000001215883741   0.003569993345251 1
force Ag   0.000006954149476  -0.000000099336615   0.000004767800732 1
force Ag  -0.000013544464030  -0.000004901278681  -0.000324350949455 1
force Ag  -0.000010724215757   0.000000891587928  -0.000582948509366 1
force Ag   0.000007693518911  -0.000001669209957   0.000716132516907 1
force Ag   0.000008017245486   0.000003978214516   0.000673740177083 1
force Ag  -0.000009714788305  -0.000001187177504   0.000037163933001 1
force Ag  -0.000008188927199  -0.000001443116729  -0.003653752698831 1

# Energy components:
   A_diel =        0.0354199436641960
   Eewald =     4885.3129703642462118
       EH =     5957.9342147196066435
     Eloc =   -12209.7096937662572600
      Enl =       31.5722600042450239
     EvdW =       -0.1162294679118797
      Exc =     -115.9042895389662107
 Exc_core =        1.6653681839114236
       KE =      268.3413963090243897
  MuShift =        0.0103707358577128
-------------------------------------
     Etot =    -1180.8582125125788025
       TS =        0.0001555237459082
-------------------------------------
        F =    -1180.8583680363246913
      muN =      -26.0110695948541526
-------------------------------------
        G =    -1154.8472984414704570


Dumping 'jdft.fillings' ... done
Dumping 'jdft.wfns' ... done
Dumping 'jdft.fluidState' ... done
Dumping 'jdft.ionpos' ... done
Dumping 'jdft.lattice' ... done
Dumping 'jdft.eigenvals' ... done
Dumping 'jdft.eigStats' ... 
	eMin: -3.554194 at state 0 ( [ +0.000000 +0.000000 +0.000000 ] spin 1 )
	HOMO: -0.173254 at state 185 ( [ -0.083333 +0.125000 +0.000000 ] spin -1 )
	mu  : -0.171300
	LUMO: -0.170881 at state 2 ( [ +0.000000 +0.250000 +0.000000 ] spin 1 )
	eMax: +0.182059 at state 48 ( [ +0.500000 +0.000000 +0.000000 ] spin 1 )
	HOMO-LUMO gap: +0.002373
	Optical gap  : +0.015818 at state 163 ( [ -0.333333 +0.375000 +0.000000 ] spin -1 )
Dumping 'jdft.Ecomponents' ... done
IonicMinimize: Iter:   1  G: -1154.847298441470457  |grad|_K:  1.070e-03  alpha:  3.000e+00  linmin: -9.975e-01  t[s]:   1722.38

#--- Lowdin population analysis ---
# oxidation-state Ag -0.065 +0.001 +0.173 -0.009 -0.009 +0.172 +0.001 -0.065
# magnetic-moments Ag +0.000 -0.000 +0.000 -0.000 -0.000 +0.000 +0.000 +0.000


Computing DFT-D3 correction:
# coordination-number Ag 8.351 9.167 5.473 9.122 9.124 5.484 9.166 8.354
# diagonal-C6 Ag 268.61 268.61 268.61 268.61 268.61 268.61 268.61 268.61
EvdW_6 =   -0.048672
EvdW_8 =   -0.067296
Shifting auxilliary hamiltonian by -0.000011 to set nElectrons=151.845123

-------- Electronic minimization -----------
	Linear fluid (dielectric constant: 78.4, screening length: 8.12261 Bohr) occupying 0.455938 of unit cell:	Completed after 22 iterations at t[s]:   1729.29
	FillingsUpdate:  mu: -0.171300000  nElectrons: 151.845123  magneticMoment: [ Abs: 0.00000  Tot: -0.00000 ]
ElecMinimize: Iter:   0  G: -1154.566273454393468  |grad|_K:  7.535e-05  alpha:  1.000e+00
	Linear fluid (dielectric constant: 78.4, screening length: 8.12261 Bohr) occupying 0.456629 of unit cell:	Completed after 23 iterations at t[s]:   1744.53
	Linear fluid (dielectric constant: 78.4, screening length: 8.12261 Bohr) occupying 0.456173 of unit cell:	Completed after 22 iterations at t[s]:   1750.25
	FillingsUpdate:  mu: -0.171300000  nElectrons: 151.740500  magneticMoment: [ Abs: 0.00000  Tot: +0.00000 ]
	SubspaceRotationAdjust: set factor to 0.0712
ElecMinimize: Iter:   1  G: -1154.811449780864450  |grad|_K:  2.148e-05  alpha:  2.436e-01  linmin: -1.811e-02  t[s]:   1757.30
	Linear fluid (dielectric constant: 78.4, screening length: 8.12261 Bohr) occupying 0.456016 of unit cell:	Completed after 20 iterations at t[s]:   1764.20
	Linear fluid (dielectric constant: 78.4, screening length: 8.12261 Bohr) occupying 0.455998 of unit cell:	Completed after 14 iterations at t[s]:   1769.69
	FillingsUpdate:  mu: -0.171300000  nElectrons: 151.812935  magneticMoment: [ Abs: 0.00000  Tot: +0.00000 ]
	SubspaceRotationAdjust: set factor to 0.113
ElecMinimize: Iter:   2  G: -1154.835801651236807  |grad|_K:  6.311e-06  alpha:  2.938e-01  linmin: -4.807e-03  t[s]:   1776.69
	Linear fluid (dielectric constant: 78.4, screening length: 8.12261 Bohr) occupying 0.456015 of unit cell:	Completed after 15 iterations at t[s]:   1783.36
	Linear fluid (dielectric constant: 78.4, screening length: 8.12261 Bohr) occupying 0.456022 of unit cell:	Completed after 13 iterations at t[s]:   1788.80
	FillingsUpdate:  mu: -0.171300000  nElectrons: 151.840332  magneticMoment: [ Abs: 0.00000  Tot: +0.00000 ]
	SubspaceRotationAdjust: set factor to 0.135
ElecMinimize: Iter:   3  G: -1154.838397870192011  |grad|_K:  4.066e-06  alpha:  3.736e-01  linmin:  5.863e-04  t[s]:   1795.72
	Linear fluid (dielectric constant: 78.4, screening length: 8.12261 Bohr) occupying 0.456077 of unit cell:	Completed after 14 iterations at t[s]:   1802.39
	Linear fluid (dielectric constant: 78.4, screening length: 8.12261 Bohr) occupying 0.456101 of unit cell:	Completed after 13 iterations at t[s]:   1807.90
	FillingsUpdate:  mu: -0.171300000  nElectrons: 151.848682  magneticMoment: [ Abs: 0.00000  Tot: +0.00000 ]
	SubspaceRotationAdjust: set factor to 0.18
ElecMinimize: Iter:   4  G: -1154.839906514542690  |grad|_K:  4.176e-06  alpha:  5.398e-01  linmin:  1.222e-05  t[s]:   1814.86
	Linear fluid (dielectric constant: 78.4, screening length: 8.12261 Bohr) occupying 0.456181 of unit cell:	Completed after 14 iterations at t[s]:   1821.51
	Linear fluid (dielectric constant: 78.4, screening length: 8.12261 Bohr) occupying 0.456202 of unit cell:	Completed after 12 iterations at t[s]:   1826.86
	FillingsUpdate:  mu: -0.171300000  nElectrons: 151.860904  magneticMoment: [ Abs: 0.00000  Tot: +0.00000 ]
	SubspaceRotationAdjust: set factor to 0.223
ElecMinimize: Iter:   5  G: -1154.841980457154023  |grad|_K:  4.470e-06  alpha:  6.961e-01  linmin: -3.550e-05  t[s]:   1833.96
	Linear fluid (dielectric constant: 78.4, screening length: 8.12261 Bohr) occupying 0.456251 of unit cell:	Completed after 15 iterations at t[s]:   1840.71
	Linear fluid (dielectric constant: 78.4, screening length: 8.12261 Bohr) occupying 0.456249 of unit cell:	Completed after 10 iterations at t[s]:   1845.98
	FillingsUpdate:  mu: -0.171300000  nElectrons: 151.872078  magneticMoment: [ Abs: 0.00000  Tot: +0.00000 ]
	SubspaceRotationAdjust: set factor to 0.242
ElecMinimize: Iter:   6  G: -1154.844205267125062  |grad|_K:  5.195e-06  alpha:  6.496e-01  linmin: -1.995e-05  t[s]:   1852.92
	Linear fluid (dielectric constant: 78.4, screening length: 8.12261 Bohr) occupying 0.456308 of unit cell:	Completed after 16 iterations at t[s]:   1859.49
	Linear fluid (dielectric constant: 78.4, screening length: 8.12261 Bohr) occupying 0.456264 of unit cell:	Completed after 15 iterations at t[s]:   1865.12
	FillingsUpdate:  mu: -0.171300000  nElectrons: 151.833534  magneticMoment: [ Abs: 0.00000  Tot: +0.00000 ]
	SubspaceRotationAdjust: set factor to 0.183
ElecMinimize: Iter:   7  G: -1154.845469366737234  |grad|_K:  5.108e-06  alpha:  2.963e-01  linmin:  1.445e-04  t[s]:   1872.10
	Linear fluid (dielectric constant: 78.4, screening length: 8.12261 Bohr) occupying 0.456174 of unit cell:	Completed after 14 iterations at t[s]:   1878.64
	Linear fluid (dielectric constant: 78.4, screening length: 8.12261 Bohr) occupying 0.456190 of unit cell:	Completed after 12 iterations at t[s]:   1883.94
	FillingsUpdate:  mu: -0.171300000  nElectrons: 151.849058  magneticMoment: [ Abs: 0.00000  Tot: +0.00000 ]
	SubspaceRotationAdjust: set factor to 0.146
ElecMinimize: Iter:   8  G: -1154.846529445666647  |grad|_K:  2.906e-06  alpha:  2.445e-01  linmin:  2.363e-05  t[s]:   1891.03
	Linear fluid (dielectric constant: 78.4, screening length: 8.12261 Bohr) occupying 0.456145 of unit cell:	Completed after 12 iterations at t[s]:   1897.52
	Linear fluid (dielectric constant: 78.4, screening length: 8.12261 Bohr) occupying 0.456117 of unit cell:	Completed after 11 iterations at t[s]:   1902.84
	FillingsUpdate:  mu: -0.171300000  nElectrons: 151.850341  magneticMoment: [ Abs: 0.00000  Tot: +0.00000 ]
	SubspaceRotationAdjust: set factor to 0.161
ElecMinimize: Iter:   9  G: -1154.847084665360399  |grad|_K:  1.874e-06  alpha:  3.865e-01  linmin: -1.568e-06  t[s]:   1909.77
	Linear fluid (dielectric constant: 78.4, screening length: 8.12261 Bohr) occupying 0.456078 of unit cell:	Completed after 14 iterations at t[s]:   1916.17
	Linear fluid (dielectric constant: 78.4, screening length: 8.12261 Bohr) occupying 0.456081 of unit cell:	Completed after 10 iterations at t[s]:   1922.66
	FillingsUpdate:  mu: -0.171300000  nElectrons: 151.844520  magneticMoment: [ Abs: 0.00000  Tot: +0.00000 ]
	SubspaceRotationAdjust: set factor to 0.143
ElecMinimize: Iter:  10  G: -1154.847299018091462  |grad|_K:  1.407e-06  alpha:  3.573e-01  linmin: -2.039e-05  t[s]:   1929.62
	Linear fluid (dielectric constant: 78.4, screening length: 8.12261 Bohr) occupying 0.456050 of unit cell:	Completed after 13 iterations at t[s]:   1936.12
	Linear fluid (dielectric constant: 78.4, screening length: 8.12261 Bohr) occupying 0.456056 of unit cell:	Completed after 12 iterations at t[s]:   1941.42
	FillingsUpdate:  mu: -0.171300000  nElectrons: 151.850338  magneticMoment: [ Abs: 0.00000  Tot: +0.00000 ]
	SubspaceRotationAdjust: set factor to 0.119
ElecMinimize: Iter:  11  G: -1154.847397113939905  |grad|_K:  8.789e-07  alpha:  2.895e-01  linmin:  4.751e-05  t[s]:   1948.34
	Linear fluid (dielectric constant: 78.4, screening length: 8.12261 Bohr) occupying 0.456052 of unit cell:	Completed after 12 iterations at t[s]:   1954.97
	Linear fluid (dielectric constant: 78.4, screening length: 8.12261 Bohr) occupying 0.456050 of unit cell:	Completed after 10 iterations at t[s]:   1960.25
	FillingsUpdate:  mu: -0.171300000  nElectrons: 151.848253  magneticMoment: [ Abs: 0.00000  Tot: +0.00000 ]
	SubspaceRotationAdjust: set factor to 0.155
ElecMinimize: Iter:  12  G: -1154.847445403584743  |grad|_K:  6.044e-07  alpha:  3.664e-01  linmin: -7.280e-05  t[s]:   1967.26
	Linear fluid (dielectric constant: 78.4, screening length: 8.12261 Bohr) occupying 0.456053 of unit cell:	Completed after 12 iterations at t[s]:   1973.82
	Linear fluid (dielectric constant: 78.4, screening length: 8.12261 Bohr) occupying 0.456053 of unit cell:	Completed after 9 iterations at t[s]:   1979.02
	FillingsUpdate:  mu: -0.171300000  nElectrons: 151.846759  magneticMoment: [ Abs: 0.00000  Tot: +0.00000 ]
	SubspaceRotationAdjust: set factor to 0.173
ElecMinimize: Iter:  13  G: -1154.847471378628825  |grad|_K:  5.226e-07  alpha:  4.160e-01  linmin: -1.145e-05  t[s]:   1985.98
	Linear fluid (dielectric constant: 78.4, screening length: 8.12261 Bohr) occupying 0.456056 of unit cell:	Completed after 13 iterations at t[s]:   1992.39
	Linear fluid (dielectric constant: 78.4, screening length: 8.12261 Bohr) occupying 0.456056 of unit cell:	Completed after 2 iterations at t[s]:   1997.43
	FillingsUpdate:  mu: -0.171300000  nElectrons: 151.849226  magneticMoment: [ Abs: 0.00000  Tot: +0.00000 ]
	SubspaceRotationAdjust: set factor to 0.187
ElecMinimize: Iter:  14  G: -1154.847490562443454  |grad|_K:  5.024e-07  alpha:  4.112e-01  linmin:  1.262e-05  t[s]:   2004.37
	Linear fluid (dielectric constant: 78.4, screening length: 8.12261 Bohr) occupying 0.456062 of unit cell:	Completed after 11 iterations at t[s]:   2010.84
	Linear fluid (dielectric constant: 78.4, screening length: 8.12261 Bohr) occupying 0.456063 of unit cell:	Completed after 6 iterations at t[s]:   2016.06
	FillingsUpdate:  mu: -0.171300000  nElectrons: 151.847553  magneticMoment: [ Abs: 0.00000  Tot: +0.00000 ]
	SubspaceRotationAdjust: set factor to 0.208
ElecMinimize: Iter:  15  G: -1154.847508889783285  |grad|_K:  5.055e-07  alpha:  4.256e-01  linmin: -1.580e-05  t[s]:   2022.99
	Linear fluid (dielectric constant: 78.4, screening length: 8.12261 Bohr) occupying 0.456069 of unit cell:	Completed after 10 iterations at t[s]:   2029.32
	Linear fluid (dielectric constant: 78.4, screening length: 8.12261 Bohr) occupying 0.456070 of unit cell:	Completed after 7 iterations at t[s]:   2034.56
	FillingsUpdate:  mu: -0.171300000  nElectrons: 151.848529  magneticMoment: [ Abs: 0.00000  Tot: +0.00000 ]
	SubspaceRotationAdjust: set factor to 0.245
ElecMinimize: Iter:  16  G: -1154.847529993632861  |grad|_K:  4.474e-07  alpha:  4.824e-01  linmin: -2.459e-06  t[s]:   2041.63
	Linear fluid (dielectric constant: 78.4, screening length: 8.12261 Bohr) occupying 0.456075 of unit cell:	Completed after 10 iterations at t[s]:   2048.10
	Linear fluid (dielectric constant: 78.4, screening length: 8.12261 Bohr) occupying 0.456075 of unit cell:	Completed after 2 iterations at t[s]:   2053.06
	FillingsUpdate:  mu: -0.171300000  nElectrons: 151.848974  magneticMoment: [ Abs: 0.00000  Tot: +0.00000 ]
	SubspaceRotationAdjust: set factor to 0.262
ElecMinimize: Iter:  17  G: -1154.847547256954158  |grad|_K:  3.990e-07  alpha:  5.048e-01  linmin: -4.164e-06  t[s]:   2060.01
	Linear fluid (dielectric constant: 78.4, screening length: 8.12261 Bohr) occupying 0.456076 of unit cell:	Completed after 12 iterations at t[s]:   2066.46
	Linear fluid (dielectric constant: 78.4, screening length: 8.12261 Bohr) occupying 0.456076 of unit cell:	Completed after 11 iterations at t[s]:   2071.85
	FillingsUpdate:  mu: -0.171300000  nElectrons: 151.847039  magneticMoment: [ Abs: 0.00000  Tot: +0.00000 ]
	SubspaceRotationAdjust: set factor to 0.225
ElecMinimize: Iter:  18  G: -1154.847556597941320  |grad|_K:  3.776e-07  alpha:  3.435e-01  linmin:  2.727e-06  t[s]:   2078.77
	Linear fluid (dielectric constant: 78.4, screening length: 8.12261 Bohr) occupying 0.456068 of unit cell:	Completed after 13 iterations at t[s]:   2085.34
	Linear fluid (dielectric constant: 78.4, screening length: 8.12261 Bohr) occupying 0.456071 of unit cell:	Completed after 11 iterations at t[s]:   2090.73
	FillingsUpdate:  mu: -0.171300000  nElectrons: 151.848597  magneticMoment: [ Abs: 0.00000  Tot: +0.00000 ]
	SubspaceRotationAdjust: set factor to 0.159
ElecMinimize: Iter:  19  G: -1154.847561648524561  |grad|_K:  2.669e-07  alpha:  2.072e-01  linmin: -1.801e-06  t[s]:   2097.72
	Linear fluid (dielectric constant: 78.4, screening length: 8.12261 Bohr) occupying 0.456066 of unit cell:	Completed after 10 iterations at t[s]:   2104.39
	Linear fluid (dielectric constant: 78.4, screening length: 8.12261 Bohr) occupying 0.456062 of unit cell:	Completed after 9 iterations at t[s]:   2109.63
	FillingsUpdate:  mu: -0.171300000  nElectrons: 151.848047  magneticMoment: [ Abs: 0.00000  Tot: -0.00000 ]
	SubspaceRotationAdjust: set factor to 0.17
ElecMinimize: Iter:  20  G: -1154.847565796836761  |grad|_K:  1.811e-07  alpha:  3.408e-01  linmin:  2.878e-06  t[s]:   2116.65
	Linear fluid (dielectric constant: 78.4, screening length: 8.12261 Bohr) occupying 0.456052 of unit cell:	Completed after 10 iterations at t[s]:   2123.01
	Linear fluid (dielectric constant: 78.4, screening length: 8.12261 Bohr) occupying 0.456052 of unit cell:	Completed after 0 iterations at t[s]:   2127.93
	FillingsUpdate:  mu: -0.171300000  nElectrons: 151.847790  magneticMoment: [ Abs: 0.00000  Tot: -0.00000 ]
	SubspaceRotationAdjust: set factor to 0.189
ElecMinimize: Iter:  21  G: -1154.847567756118451  |grad|_K:  1.374e-07  alpha:  3.497e-01  linmin: -4.397e-05  t[s]:   2134.97
	Linear fluid (dielectric constant: 78.4, screening length: 8.12261 Bohr) occupying 0.456041 of unit cell:	Completed after 10 iterations at t[s]:   2141.28
	Linear fluid (dielectric constant: 78.4, screening length: 8.12261 Bohr) occupying 0.456042 of unit cell:	Completed after 7 iterations at t[s]:   2146.48
	FillingsUpdate:  mu: -0.171300000  nElectrons: 151.848506  magneticMoment: [ Abs: 0.00000  Tot: -0.00000 ]
	SubspaceRotationAdjust: set factor to 0.184
ElecMinimize: Iter:  22  G: -1154.847568761601678  |grad|_K:  1.110e-07  alpha:  3.108e-01  linmin:  1.770e-04  t[s]:   2153.41
	Linear fluid (dielectric constant: 78.4, screening length: 8.12261 Bohr) occupying 0.456033 of unit cell:	Completed after 9 iterations at t[s]:   2159.72
	Linear fluid (dielectric constant: 78.4, screening length: 8.12261 Bohr) occupying 0.456032 of unit cell:	Completed after 2 iterations at t[s]:   2164.88
	FillingsUpdate:  mu: -0.171300000  nElectrons: 151.848286  magneticMoment: [ Abs: 0.00000  Tot: -0.00000 ]
	SubspaceRotationAdjust: set factor to 0.241
ElecMinimize: Iter:  23  G: -1154.847569485291615  |grad|_K:  8.705e-08  alpha:  3.450e-01  linmin: -1.708e-04  t[s]:   2171.84
[...]
	Linear fluid (dielectric constant: 78.4, screening length: 8.12261 Bohr) occupying 0.452116 of unit cell:	Completed after 11 iterations at t[s]:   4814.59
	Linear fluid (dielectric constant: 78.4, screening length: 8.12261 Bohr) occupying 0.452115 of unit cell:	Completed after 0 iterations at t[s]:   4819.51
	FillingsUpdate:  mu: -0.171300000  nElectrons: 151.850397  magneticMoment: [ Abs: 0.00000  Tot: +0.00000 ]
	SubspaceRotationAdjust: set factor to 0.457
ElecMinimize: Iter:  17  G: -1154.847737761500639  |grad|_K:  2.451e-07  alpha:  2.585e-01  linmin:  1.612e-06  t[s]:   4826.51
	Linear fluid (dielectric constant: 78.4, screening length: 8.12261 Bohr) occupying 0.452163 of unit cell:	Completed after 11 iterations at t[s]:   4833.15
	Linear fluid (dielectric constant: 78.4, screening length: 8.12261 Bohr) occupying 0.452158 of unit cell:	Completed after 6 iterations at t[s]:   4838.42
	FillingsUpdate:  mu: -0.171300000  nElectrons: 151.850951  magneticMoment: [ Abs: 0.00000  Tot: +0.00000 ]
	SubspaceRotationAdjust: set factor to 0.496
ElecMinimize: Iter:  18  G: -1154.847740184196709  |grad|_K:  2.082e-07  alpha:  2.363e-01  linmin: -5.647e-06  t[s]:   4845.42
	Linear fluid (dielectric constant: 78.4, screening length: 8.12261 Bohr) occupying 0.452193 of unit cell:	Completed after 10 iterations at t[s]:   4851.85
	Linear fluid (dielectric constant: 78.4, screening length: 8.12261 Bohr) occupying 0.452197 of unit cell:	Completed after 2 iterations at t[s]:   4856.89
	FillingsUpdate:  mu: -0.171300000  nElectrons: 151.850496  magneticMoment: [ Abs: 0.00000  Tot: +0.00000 ]
	SubspaceRotationAdjust: set factor to 0.619
ElecMinimize: Iter:  19  G: -1154.847742130482857  |grad|_K:  1.629e-07  alpha:  2.626e-01  linmin: -7.579e-06  t[s]:   4863.98
	Linear fluid (dielectric constant: 78.4, screening length: 8.12261 Bohr) occupying 0.452222 of unit cell:	Completed after 9 iterations at t[s]:   4870.39
	Linear fluid (dielectric constant: 78.4, screening length: 8.12261 Bohr) occupying 0.452222 of unit cell:	Completed after 0 iterations at t[s]:   4875.28
	FillingsUpdate:  mu: -0.171300000  nElectrons: 151.849979  magneticMoment: [ Abs: 0.00000  Tot: +0.00000 ]
	SubspaceRotationAdjust: set factor to 0.673
ElecMinimize: Iter:  20  G: -1154.847743353432179  |grad|_K:  1.504e-07  alpha:  2.695e-01  linmin: -2.079e-05  t[s]:   4882.32
	Linear fluid (dielectric constant: 78.4, screening length: 8.12261 Bohr) occupying 0.452248 of unit cell:	Completed after 10 iterations at t[s]:   4888.72
	Linear fluid (dielectric constant: 78.4, screening length: 8.12261 Bohr) occupying 0.452239 of unit cell:	Completed after 9 iterations at t[s]:   4894.16
	FillingsUpdate:  mu: -0.171300000  nElectrons: 151.850336  magneticMoment: [ Abs: 0.00000  Tot: +0.00000 ]
	SubspaceRotationAdjust: set factor to 0.543
ElecMinimize: Iter:  21  G: -1154.847744020592245  |grad|_K:  1.338e-07  alpha:  1.712e-01  linmin:  5.850e-06  t[s]:   4901.17
	Linear fluid (dielectric constant: 78.4, screening length: 8.12261 Bohr) occupying 0.452248 of unit cell:	Completed after 10 iterations at t[s]:   4907.62
	Linear fluid (dielectric constant: 78.4, screening length: 8.12261 Bohr) occupying 0.452247 of unit cell:	Completed after 3 iterations at t[s]:   4912.69
	FillingsUpdate:  mu: -0.171300000  nElectrons: 151.849939  magneticMoment: [ Abs: 0.00000  Tot: +0.00000 ]
	SubspaceRotationAdjust: set factor to 0.423
ElecMinimize: Iter:  22  G: -1154.847744498952352  |grad|_K:  8.682e-08  alpha:  1.567e-01  linmin:  2.017e-05  t[s]:   4920.57
	Linear fluid (dielectric constant: 78.4, screening length: 8.12261 Bohr) occupying 0.452250 of unit cell:	Completed after 5 iterations at t[s]:   4927.15
	Linear fluid (dielectric constant: 78.4, screening length: 8.12261 Bohr) occupying 0.452252 of unit cell:	Completed after 2 iterations at t[s]:   4932.22
	FillingsUpdate:  mu: -0.171300000  nElectrons: 151.849984  magneticMoment: [ Abs: 0.00000  Tot: -0.00000 ]
	SubspaceRotationAdjust: set factor to 0.454
ElecMinimize: Iter:  23  G: -1154.847744807370646  |grad|_K:  6.368e-08  alpha:  2.399e-01  linmin: -3.684e-05  t[s]:   4939.22
	Linear fluid (dielectric constant: 78.4, screening length: 8.12261 Bohr) occupying 0.452251 of unit cell:	Completed after 8 iterations at t[s]:   4945.46
	Linear fluid (dielectric constant: 78.4, screening length: 8.12261 Bohr) occupying 0.452251 of unit cell:	Completed after 0 iterations at t[s]:   4950.37
	FillingsUpdate:  mu: -0.171300000  nElectrons: 151.850107  magneticMoment: [ Abs: 0.00000  Tot: -0.00000 ]
	SubspaceRotationAdjust: set factor to 0.439
ElecMinimize: Iter:  24  G: -1154.847744978031642  |grad|_K:  5.354e-08  alpha:  2.447e-01  linmin: -8.896e-05  t[s]:   4957.43
	Linear fluid (dielectric constant: 78.4, screening length: 8.12261 Bohr) occupying 0.452247 of unit cell:	Completed after 9 iterations at t[s]:   4963.79
	Linear fluid (dielectric constant: 78.4, screening length: 8.12261 Bohr) occupying 0.452248 of unit cell:	Completed after 2 iterations at t[s]:   4968.78
	FillingsUpdate:  mu: -0.171300000  nElectrons: 151.849982  magneticMoment: [ Abs: 0.00000  Tot: -0.00000 ]
	SubspaceRotationAdjust: set factor to 0.393
ElecMinimize: Iter:  25  G: -1154.847745078745220  |grad|_K:  4.402e-08  alpha:  2.034e-01  linmin:  2.339e-04  t[s]:   4975.74
	Linear fluid (dielectric constant: 78.4, screening length: 8.12261 Bohr) occupying 0.452244 of unit cell:	Completed after 8 iterations at t[s]:   4982.04
	Linear fluid (dielectric constant: 78.4, screening length: 8.12261 Bohr) occupying 0.452244 of unit cell:	Completed after 0 iterations at t[s]:   4987.10
	FillingsUpdate:  mu: -0.171300000  nElectrons: 151.850086  magneticMoment: [ Abs: 0.00000  Tot: -0.00000 ]
	SubspaceRotationAdjust: set factor to 0.467
ElecMinimize: Iter:  26  G: -1154.847745152263315  |grad|_K:  3.197e-08  alpha:  2.240e-01  linmin: -7.000e-04  t[s]:   4994.08
	Linear fluid (dielectric constant: 78.4, screening length: 8.12261 Bohr) occupying 0.452241 of unit cell:	Completed after 2 iterations at t[s]:   5000.15
	Linear fluid (dielectric constant: 78.4, screening length: 8.12261 Bohr) occupying 0.452240 of unit cell:	Completed after 3 iterations at t[s]:   5005.20
	FillingsUpdate:  mu: -0.171300000  nElectrons: 151.850159  magneticMoment: [ Abs: 0.00000  Tot: -0.00000 ]
	SubspaceRotationAdjust: set factor to 0.553
ElecMinimize: Iter:  27  G: -1154.847745197416771  |grad|_K:  2.816e-08  alpha:  2.564e-01  linmin:  1.299e-05  t[s]:   5012.39
ElecMinimize: Converged (|Delta G|<1.000000e-07 for 2 iters).
Setting wave functions to eigenvectors of Hamiltonian
Converging empty states (this may take a while): |deigs|: 1.026e-07

Computing DFT-D3 correction:
# coordination-number Ag 8.243 8.971 5.446 8.950 8.949 5.436 8.971 8.241
# diagonal-C6 Ag 268.61 268.61 268.61 268.61 268.61 268.61 268.61 268.61
EvdW_6 =   -0.048200
EvdW_8 =   -0.066553

# Ionic positions in cartesian coordinates:
ion Ag  -0.000175904276497  -0.000617260839651  50.307640915648932 1
ion Ag   0.000294131580736  -0.000577268675555  44.751046003831028 1
ion Ag   2.708586922714067   3.832771298040639  52.937523071731853 1
ion Ag   2.709992290611438   3.833404687854914  47.473409177641066 1
ion Ag   0.000475526299192   0.000157952514338  39.252980870956407 1
ion Ag   0.001020543371544   0.000435821070615  33.785635153089530 1
ion Ag   2.710214132413222   3.833162723362597  41.977640012342391 1
ion Ag   2.710484357286298   3.832598046672101  36.422672794758775 1

# Forces in Cartesian coordinates:
force Ag  -0.000012479397787   0.000050214535042  -0.000447166490092 1
force Ag   0.000003523752560   0.000059375039671  -0.000008296120340 1
force Ag   0.000005727780244  -0.000020678538146  -0.000214227115692 1
force Ag  -0.000002000159713  -0.000062898784593  -0.000165122122711 1
force Ag   0.000002035431401  -0.000003886793597   0.000035638759989 1
force Ag   0.000004431402419  -0.000013607962133   0.000167269759620 1
force Ag  -0.000003526539215  -0.000029797249908   0.000092631072054 1
force Ag   0.000007686088219   0.000025046693648   0.000153033751033 1

# Energy components:
   A_diel =        0.0343414776929832
   Eewald =     4783.3342630745182760
       EH =     5856.2016130070142026
     Eloc =   -12005.9817778479464323
      Enl =       31.5790364197994435
     EvdW =       -0.1147532004273414
      Exc =     -115.8858448888391166
 Exc_core =        1.6653678620856232
       KE =      268.2981392591594272
  MuShift =        0.0100334988100987
-------------------------------------
     Etot =    -1180.8595813381332391
       TS =        0.0000961735845517
-------------------------------------
        F =    -1180.8596775117177913
      muN =      -26.0119323143010774
-------------------------------------
        G =    -1154.8477451974167707


Dumping 'jdft.fillings' ... done
Dumping 'jdft.wfns' ... done
Dumping 'jdft.fluidState' ... done
Dumping 'jdft.ionpos' ... done
Dumping 'jdft.lattice' ... done
Dumping 'jdft.eigenvals' ... done
Dumping 'jdft.eigStats' ... 
	eMin: -3.552418 at state 96 ( [ +0.000000 +0.000000 +0.000000 ] spin -1 )
	HOMO: -0.172428 at state 102 ( [ +0.000000 -0.250000 +0.000000 ] spin -1 )
	mu  : -0.171300
	LUMO: -0.168400 at state 12 ( [ +0.083333 +0.500000 +0.000000 ] spin 1 )
	eMax: +0.183323 at state 144 ( [ +0.500000 +0.000000 +0.000000 ] spin -1 )
	HOMO-LUMO gap: +0.004028
	Optical gap  : +0.013764 at state 94 ( [ -0.083333 -0.250000 +0.000000 ] spin 1 )
Dumping 'jdft.Ecomponents' ... done
IonicMinimize: Iter:   6  G: -1154.847745197416771  |grad|_K:  1.169e-04  alpha:  1.000e+00  linmin:  6.955e-01  t[s]:   5030.36

#--- Lowdin population analysis ---
# oxidation-state Ag -0.065 +0.001 +0.168 -0.006 -0.006 +0.168 +0.001 -0.065
# magnetic-moments Ag -0.000 +0.000 -0.000 +0.000 -0.000 -0.000 -0.000 +0.000


Computing DFT-D3 correction:
# coordination-number Ag 8.257 8.999 5.441 8.976 8.964 5.443 8.992 8.251
# diagonal-C6 Ag 268.61 268.61 268.61 268.61 268.61 268.61 268.61 268.61
EvdW_6 =   -0.048254
EvdW_8 =   -0.066634
Shifting auxilliary hamiltonian by -0.000044 to set nElectrons=151.850159

-------- Electronic minimization -----------
	Linear fluid (dielectric constant: 78.4, screening length: 8.12261 Bohr) occupying 0.452649 of unit cell:	Completed after 15 iterations at t[s]:   5037.72
	FillingsUpdate:  mu: -0.171300000  nElectrons: 151.850159  magneticMoment: [ Abs: 0.00000  Tot: -0.00000 ]
ElecMinimize: Iter:   0  G: -1154.847713085554233  |grad|_K:  4.515e-07  alpha:  1.000e+00
	Linear fluid (dielectric constant: 78.4, screening length: 8.12261 Bohr) occupying 0.452644 of unit cell:	Completed after 14 iterations at t[s]:   5052.63
	Linear fluid (dielectric constant: 78.4, screening length: 8.12261 Bohr) occupying 0.452647 of unit cell:	Completed after 13 iterations at t[s]:   5058.09
	FillingsUpdate:  mu: -0.171300000  nElectrons: 151.852353  magneticMoment: [ Abs: 0.00000  Tot: -0.00000 ]
	SubspaceRotationAdjust: set factor to 0.309
ElecMinimize: Iter:   1  G: -1154.847726481295467  |grad|_K:  6.501e-07  alpha:  3.768e-01  linmin: -5.400e-04  t[s]:   5065.09
	Linear fluid (dielectric constant: 78.4, screening length: 8.12261 Bohr) occupying 0.452599 of unit cell:	Completed after 14 iterations at t[s]:   5071.76
	Linear fluid (dielectric constant: 78.4, screening length: 8.12261 Bohr) occupying 0.452627 of unit cell:	Completed after 13 iterations at t[s]:   5077.18
	FillingsUpdate:  mu: -0.171300000  nElectrons: 151.849566  magneticMoment: [ Abs: 0.00000  Tot: -0.00000 ]
	SubspaceRotationAdjust: set factor to 0.234
ElecMinimize: Iter:   2  G: -1154.847737890360122  |grad|_K:  3.174e-07  alpha:  1.548e-01  linmin: -7.350e-05  t[s]:   5084.16
	Linear fluid (dielectric constant: 78.4, screening length: 8.12261 Bohr) occupying 0.452622 of unit cell:	Completed after 7 iterations at t[s]:   5090.60
	Linear fluid (dielectric constant: 78.4, screening length: 8.12261 Bohr) occupying 0.452613 of unit cell:	Completed after 10 iterations at t[s]:   5096.01
	FillingsUpdate:  mu: -0.171300000  nElectrons: 151.849220  magneticMoment: [ Abs: 0.00000  Tot: -0.00000 ]
	SubspaceRotationAdjust: set factor to 0.308
ElecMinimize: Iter:   3  G: -1154.847745497537971  |grad|_K:  2.610e-07  alpha:  4.404e-01  linmin:  1.763e-07  t[s]:   5103.17
	Linear fluid (dielectric constant: 78.4, screening length: 8.12261 Bohr) occupying 0.452609 of unit cell:	Completed after 12 iterations at t[s]:   5109.60
	Linear fluid (dielectric constant: 78.4, screening length: 8.12261 Bohr) occupying 0.452610 of unit cell:	Completed after 10 iterations at t[s]:   5114.89
	FillingsUpdate:  mu: -0.171300000  nElectrons: 151.850223  magneticMoment: [ Abs: 0.00000  Tot: -0.00000 ]
	SubspaceRotationAdjust: set factor to 0.237
ElecMinimize: Iter:   4  G: -1154.847749037270432  |grad|_K:  1.573e-07  alpha:  3.035e-01  linmin:  1.676e-05  t[s]:   5121.85
	Linear fluid (dielectric constant: 78.4, screening length: 8.12261 Bohr) occupying 0.452606 of unit cell:	Completed after 11 iterations at t[s]:   5128.43
	Linear fluid (dielectric constant: 78.4, screening length: 8.12261 Bohr) occupying 0.452607 of unit cell:	Completed after 10 iterations at t[s]:   5133.83
	FillingsUpdate:  mu: -0.171300000  nElectrons: 151.849600  magneticMoment: [ Abs: 0.00000  Tot: -0.00000 ]
	SubspaceRotationAdjust: set factor to 0.162
ElecMinimize: Iter:   5  G: -1154.847750057735993  |grad|_K:  9.615e-08  alpha:  2.414e-01  linmin:  2.797e-05  t[s]:   5140.82
	Linear fluid (dielectric constant: 78.4, screening length: 8.12261 Bohr) occupying 0.452608 of unit cell:	Completed after 9 iterations at t[s]:   5147.31
	Linear fluid (dielectric constant: 78.4, screening length: 8.12261 Bohr) occupying 0.452608 of unit cell:	Completed after 2 iterations at t[s]:   5152.36
	FillingsUpdate:  mu: -0.171300000  nElectrons: 151.849794  magneticMoment: [ Abs: 0.00000  Tot: -0.00000 ]
	SubspaceRotationAdjust: set factor to 0.239
ElecMinimize: Iter:   6  G: -1154.847750552016350  |grad|_K:  5.200e-08  alpha:  3.131e-01  linmin: -1.586e-04  t[s]:   5159.33
	Linear fluid (dielectric constant: 78.4, screening length: 8.12261 Bohr) occupying 0.452610 of unit cell:	Completed after 10 iterations at t[s]:   5165.86
	Linear fluid (dielectric constant: 78.4, screening length: 8.12261 Bohr) occupying 0.452610 of unit cell:	Completed after 0 iterations at t[s]:   5170.74
	FillingsUpdate:  mu: -0.171300000  nElectrons: 151.850015  magneticMoment: [ Abs: 0.00000  Tot: -0.00000 ]
	SubspaceRotationAdjust: set factor to 0.243
ElecMinimize: Iter:   7  G: -1154.847750713099458  |grad|_K:  3.400e-08  alpha:  3.449e-01  linmin: -1.733e-03  t[s]:   5177.74
	Linear fluid (dielectric constant: 78.4, screening length: 8.12261 Bohr) occupying 0.452611 of unit cell:	Completed after 9 iterations at t[s]:   5184.12
	Linear fluid (dielectric constant: 78.4, screening length: 8.12261 Bohr) occupying 0.452611 of unit cell:	Completed after 2 iterations at t[s]:   5189.11
	FillingsUpdate:  mu: -0.171300000  nElectrons: 151.849934  magneticMoment: [ Abs: 0.00000  Tot: -0.00000 ]
	SubspaceRotationAdjust: set factor to 0.245
ElecMinimize: Iter:   8  G: -1154.847750791866019  |grad|_K:  2.739e-08  alpha:  3.824e-01  linmin:  4.346e-04  t[s]:   5196.13
	Linear fluid (dielectric constant: 78.4, screening length: 8.12261 Bohr) occupying 0.452611 of unit cell:	Completed after 5 iterations at t[s]:   5202.29
	Linear fluid (dielectric constant: 78.4, screening length: 8.12261 Bohr) occupying 0.452611 of unit cell:	Completed after 0 iterations at t[s]:   5207.15
	FillingsUpdate:  mu: -0.171300000  nElectrons: 151.850032  magneticMoment: [ Abs: 0.00000  Tot: -0.00000 ]
	SubspaceRotationAdjust: set factor to 0.297
ElecMinimize: Iter:   9  G: -1154.847750841345032  |grad|_K:  2.310e-08  alpha:  3.920e-01  linmin: -3.029e-05  t[s]:   5214.17
ElecMinimize: Converged (|Delta G|<1.000000e-07 for 2 iters).
Setting wave functions to eigenvectors of Hamiltonian
Converging empty states (this may take a while): |deigs|: 4.786e-08

Computing DFT-D3 correction:
# coordination-number Ag 8.257 8.999 5.441 8.976 8.964 5.443 8.992 8.251
# diagonal-C6 Ag 268.61 268.61 268.61 268.61 268.61 268.61 268.61 268.61
EvdW_6 =   -0.048254
EvdW_8 =   -0.066634

# Ionic positions in cartesian coordinates:
ion Ag  -0.000454348197797   0.000318785601873  50.292704855378048 1
ion Ag   0.000361632064725   0.000485633386465  44.749602057689238 1
ion Ag   2.708857244439327   3.832392083506355  52.928916364155938 1
ion Ag   2.709958782522523   3.832256924349427  47.467302075619976 1
ion Ag   0.000489013528554   0.000082663459155  39.259676043304538 1
ion Ag   0.001012380959126   0.000196071868531  33.797361405356057 1
ion Ag   2.710081489505334   3.832584390617614  41.981495661828106 1
ion Ag   2.710585805178207   3.833019447210577  36.431489536668096 1

# Forces in Cartesian coordinates:
force Ag   0.000000048228183  -0.000058729095720   0.000091759045314 1
force Ag  -0.000000795887111  -0.000067735040570  -0.000030142940629 1
force Ag  -0.000003492095948   0.000026694925315  -0.000219717189642 1
force Ag  -0.000002624633115   0.000072757117023  -0.000038742250478 1
force Ag   0.000000949759611  -0.000012805298553  -0.000116871512414 1
force Ag   0.000004545063484   0.000005611606318  -0.000032317924091 1
force Ag   0.000001109857241   0.000041010647055  -0.000025703020138 1
force Ag   0.000002970057314  -0.000007095465023   0.000024424285185 1

# Energy components:
   A_diel =        0.0343752460774763
   Eewald =     4793.0563859982630674
       EH =     5865.8915535973210353
     Eloc =   -12025.3955934851910570
      Enl =       31.5785961832606716
     EvdW =       -0.1148880022050987
      Exc =     -115.8877303720672671
 Exc_core =        1.6653678231285998
       KE =      268.3023289558562965
  MuShift =        0.0100420559634533
-------------------------------------
     Etot =    -1180.8595619995926427
       TS =        0.0000992651530399
-------------------------------------
        F =    -1180.8596612647456823
      muN =      -26.0119104234007104
-------------------------------------
        G =    -1154.8477508413450323


Dumping 'jdft.fillings' ... done
Dumping 'jdft.wfns' ... done
Dumping 'jdft.fluidState' ... done
Dumping 'jdft.ionpos' ... done
Dumping 'jdft.lattice' ... done
Dumping 'jdft.eigenvals' ... done
Dumping 'jdft.eigStats' ... 
	eMin: -3.552669 at state 0 ( [ +0.000000 +0.000000 +0.000000 ] spin 1 )
	HOMO: -0.172341 at state 2 ( [ +0.000000 +0.250000 +0.000000 ] spin 1 )
	mu  : -0.171300
	LUMO: -0.168438 at state 149 ( [ +0.500000 -0.375000 +0.000000 ] spin -1 )
	eMax: +0.183105 at state 48 ( [ +0.500000 +0.000000 +0.000000 ] spin 1 )
	HOMO-LUMO gap: +0.003903
	Optical gap  : +0.014125 at state 10 ( [ +0.083333 +0.250000 +0.000000 ] spin 1 )
Dumping 'jdft.Ecomponents' ... done
IonicMinimize: Iter:   7  G: -1154.847750841345032  |grad|_K:  5.628e-05  alpha:  1.000e+00  linmin:  6.584e-02  t[s]:   5233.05
IonicMinimize: Converged (|grad|_K<1.000000e-04).

#--- Lowdin population analysis ---
# oxidation-state Ag -0.065 +0.001 +0.168 -0.007 -0.006 +0.168 +0.001 -0.065
# magnetic-moments Ag +0.000 -0.000 -0.000 -0.000 +0.000 +0.000 -0.000 -0.000


Dumping 'jdft.n_up' ... done
Dumping 'jdft.n_dn' ... done
Dumping 'jdft.tau_up' ... done
Dumping 'jdft.tau_dn' ... done
Dumping 'jdft.eigenvals' ... done
Dumping 'jdft.eigStats' ... 
	eMin: -3.552669 at state 0 ( [ +0.000000 +0.000000 +0.000000 ] spin 1 )
	HOMO: -0.172341 at state 2 ( [ +0.000000 +0.250000 +0.000000 ] spin 1 )
	mu  : -0.171300
	LUMO: -0.168438 at state 149 ( [ +0.500000 -0.375000 +0.000000 ] spin -1 )
	eMax: +0.183105 at state 48 ( [ +0.500000 +0.000000 +0.000000 ] spin 1 )
	HOMO-LUMO gap: +0.003903
	Optical gap  : +0.014125 at state 10 ( [ +0.083333 +0.250000 +0.000000 ] spin 1 )
Dumping 'jdft.kPts' ... done
Dumping 'jdft.dosUp' ... done.
Dumping 'jdft.dosDn' ... done.
End date and time: Mon Dec  6 18:52:25 2021  (Duration: 0-1:27:25.96)
Done!
