
*************** JDFTx 1.7.0 (git hash 5f12716a) ***************

Start date and time: Fri Sep  9 07:52:42 2022
Executable /home/nisi6161/jdftx_alpine/build/jdftx with command-line: -i in
Running on hosts (process indices):  c3cpu-a2-u15-2.rc.int.colorado.edu (0-23)
Divided in process groups (process indices):  0 (0)  1 (1)  2 (2)  3 (3)  4 (4)  5 (5)  6 (6)  7 (7)  8 (8)  9 (9)  10 (10)  11 (11)  12 (12)  13 (13)  14 (14)  15 (15)  16 (16)  17 (17)  18 (18)  19 (19)  20 (20)  21 (21)  22 (22)  23 (23)
Resource initialization completed at t[s]:      0.00
Run totals: 24 processes, 64 threads, 0 GPUs


Input parsed successfully to the following command list (including defaults):

basis kpoint-dependent
converge-empty-states yes
coords-type Cartesian
core-overlap-check none
coulomb-interaction Periodic
davidson-band-ratio 1.1
density-of-states Etol 1.000000e-06 Esigma 1.000000e-03 \
		Complete \
	Total \
	OrthoOrbital Pt 1   s \
	OrthoOrbital Pt 1   p \
	OrthoOrbital Pt 1   px \
	OrthoOrbital Pt 1   py \
	OrthoOrbital Pt 1   pz \
	OrthoOrbital Pt 1   d \
	OrthoOrbital Pt 1   dxy \
	OrthoOrbital Pt 1   dyz \
	OrthoOrbital Pt 1   dz2 \
	OrthoOrbital Pt 1   dxz \
	OrthoOrbital Pt 1   dx2-y2 \
	OrthoOrbital Pt 2   s \
	OrthoOrbital Pt 2   p \
	OrthoOrbital Pt 2   px \
	OrthoOrbital Pt 2   py \
	OrthoOrbital Pt 2   pz \
	OrthoOrbital Pt 2   d \
	OrthoOrbital Pt 2   dxy \
	OrthoOrbital Pt 2   dyz \
	OrthoOrbital Pt 2   dz2 \
	OrthoOrbital Pt 2   dxz \
	OrthoOrbital Pt 2   dx2-y2 \
	OrthoOrbital Pt 3   s \
	OrthoOrbital Pt 3   p \
	OrthoOrbital Pt 3   px \
	OrthoOrbital Pt 3   py \
	OrthoOrbital Pt 3   pz \
	OrthoOrbital Pt 3   d \
	OrthoOrbital Pt 3   dxy \
	OrthoOrbital Pt 3   dyz \
	OrthoOrbital Pt 3   dz2 \
	OrthoOrbital Pt 3   dxz \
	OrthoOrbital Pt 3   dx2-y2 \
	OrthoOrbital Pt 4   s \
	OrthoOrbital Pt 4   p \
	OrthoOrbital Pt 4   px \
	OrthoOrbital Pt 4   py \
	OrthoOrbital Pt 4   pz \
	OrthoOrbital Pt 4   d \
	OrthoOrbital Pt 4   dxy \
	OrthoOrbital Pt 4   dyz \
	OrthoOrbital Pt 4   dz2 \
	OrthoOrbital Pt 4   dxz \
	OrthoOrbital Pt 4   dx2-y2 \
	OrthoOrbital Pt 5   s \
	OrthoOrbital Pt 5   p \
	OrthoOrbital Pt 5   px \
	OrthoOrbital Pt 5   py \
	OrthoOrbital Pt 5   pz \
	OrthoOrbital Pt 5   d \
	OrthoOrbital Pt 5   dxy \
	OrthoOrbital Pt 5   dyz \
	OrthoOrbital Pt 5   dz2 \
	OrthoOrbital Pt 5   dxz \
	OrthoOrbital Pt 5   dx2-y2 \
	OrthoOrbital Pt 6   s \
	OrthoOrbital Pt 6   p \
	OrthoOrbital Pt 6   px \
	OrthoOrbital Pt 6   py \
	OrthoOrbital Pt 6   pz \
	OrthoOrbital Pt 6   d \
	OrthoOrbital Pt 6   dxy \
	OrthoOrbital Pt 6   dyz \
	OrthoOrbital Pt 6   dz2 \
	OrthoOrbital Pt 6   dxz \
	OrthoOrbital Pt 6   dx2-y2 \
	OrthoOrbital Pt 7   s \
	OrthoOrbital Pt 7   p \
	OrthoOrbital Pt 7   px \
	OrthoOrbital Pt 7   py \
	OrthoOrbital Pt 7   pz \
	OrthoOrbital Pt 7   d \
	OrthoOrbital Pt 7   dxy \
	OrthoOrbital Pt 7   dyz \
	OrthoOrbital Pt 7   dz2 \
	OrthoOrbital Pt 7   dxz \
	OrthoOrbital Pt 7   dx2-y2 \
	OrthoOrbital Pt 8   s \
	OrthoOrbital Pt 8   p \
	OrthoOrbital Pt 8   px \
	OrthoOrbital Pt 8   py \
	OrthoOrbital Pt 8   pz \
	OrthoOrbital Pt 8   d \
	OrthoOrbital Pt 8   dxy \
	OrthoOrbital Pt 8   dyz \
	OrthoOrbital Pt 8   dz2 \
	OrthoOrbital Pt 8   dxz \
	OrthoOrbital Pt 8   dx2-y2 \
	OrthoOrbital Pt 9   s \
	OrthoOrbital Pt 9   p \
	OrthoOrbital Pt 9   px \
	OrthoOrbital Pt 9   py \
	OrthoOrbital Pt 9   pz \
	OrthoOrbital Pt 9   d \
	OrthoOrbital Pt 9   dxy \
	OrthoOrbital Pt 9   dyz \
	OrthoOrbital Pt 9   dz2 \
	OrthoOrbital Pt 9   dxz \
	OrthoOrbital Pt 9   dx2-y2 \
	OrthoOrbital Pt 10   s \
	OrthoOrbital Pt 10   p \
	OrthoOrbital Pt 10   px \
	OrthoOrbital Pt 10   py \
	OrthoOrbital Pt 10   pz \
	OrthoOrbital Pt 10   d \
	OrthoOrbital Pt 10   dxy \
	OrthoOrbital Pt 10   dyz \
	OrthoOrbital Pt 10   dz2 \
	OrthoOrbital Pt 10   dxz \
	OrthoOrbital Pt 10   dx2-y2 \
	OrthoOrbital Pt 11   s \
	OrthoOrbital Pt 11   p \
	OrthoOrbital Pt 11   px \
	OrthoOrbital Pt 11   py \
	OrthoOrbital Pt 11   pz \
	OrthoOrbital Pt 11   d \
	OrthoOrbital Pt 11   dxy \
	OrthoOrbital Pt 11   dyz \
	OrthoOrbital Pt 11   dz2 \
	OrthoOrbital Pt 11   dxz \
	OrthoOrbital Pt 11   dx2-y2 \
	OrthoOrbital Pt 12   s \
	OrthoOrbital Pt 12   p \
	OrthoOrbital Pt 12   px \
	OrthoOrbital Pt 12   py \
	OrthoOrbital Pt 12   pz \
	OrthoOrbital Pt 12   d \
	OrthoOrbital Pt 12   dxy \
	OrthoOrbital Pt 12   dyz \
	OrthoOrbital Pt 12   dz2 \
	OrthoOrbital Pt 12   dxz \
	OrthoOrbital Pt 12   dx2-y2 \
	OrthoOrbital Pt 13   s \
	OrthoOrbital Pt 13   p \
	OrthoOrbital Pt 13   px \
	OrthoOrbital Pt 13   py \
	OrthoOrbital Pt 13   pz \
	OrthoOrbital Pt 13   d \
	OrthoOrbital Pt 13   dxy \
	OrthoOrbital Pt 13   dyz \
	OrthoOrbital Pt 13   dz2 \
	OrthoOrbital Pt 13   dxz \
	OrthoOrbital Pt 13   dx2-y2 \
	OrthoOrbital Pt 14   s \
	OrthoOrbital Pt 14   p \
	OrthoOrbital Pt 14   px \
	OrthoOrbital Pt 14   py \
	OrthoOrbital Pt 14   pz \
	OrthoOrbital Pt 14   d \
	OrthoOrbital Pt 14   dxy \
	OrthoOrbital Pt 14   dyz \
	OrthoOrbital Pt 14   dz2 \
	OrthoOrbital Pt 14   dxz \
	OrthoOrbital Pt 14   dx2-y2 \
	OrthoOrbital Pt 15   s \
	OrthoOrbital Pt 15   p \
	OrthoOrbital Pt 15   px \
	OrthoOrbital Pt 15   py \
	OrthoOrbital Pt 15   pz \
	OrthoOrbital Pt 15   d \
	OrthoOrbital Pt 15   dxy \
	OrthoOrbital Pt 15   dyz \
	OrthoOrbital Pt 15   dz2 \
	OrthoOrbital Pt 15   dxz \
	OrthoOrbital Pt 15   dx2-y2 \
	OrthoOrbital Pt 16   s \
	OrthoOrbital Pt 16   p \
	OrthoOrbital Pt 16   px \
	OrthoOrbital Pt 16   py \
	OrthoOrbital Pt 16   pz \
	OrthoOrbital Pt 16   d \
	OrthoOrbital Pt 16   dxy \
	OrthoOrbital Pt 16   dyz \
	OrthoOrbital Pt 16   dz2 \
	OrthoOrbital Pt 16   dxz \
	OrthoOrbital Pt 16   dx2-y2 \
	OrthoOrbital Pt 17   s \
	OrthoOrbital Pt 17   p \
	OrthoOrbital Pt 17   px \
	OrthoOrbital Pt 17   py \
	OrthoOrbital Pt 17   pz \
	OrthoOrbital Pt 17   d \
	OrthoOrbital Pt 17   dxy \
	OrthoOrbital Pt 17   dyz \
	OrthoOrbital Pt 17   dz2 \
	OrthoOrbital Pt 17   dxz \
	OrthoOrbital Pt 17   dx2-y2 \
	OrthoOrbital Pt 18   s \
	OrthoOrbital Pt 18   p \
	OrthoOrbital Pt 18   px \
	OrthoOrbital Pt 18   py \
	OrthoOrbital Pt 18   pz \
	OrthoOrbital Pt 18   d \
	OrthoOrbital Pt 18   dxy \
	OrthoOrbital Pt 18   dyz \
	OrthoOrbital Pt 18   dz2 \
	OrthoOrbital Pt 18   dxz \
	OrthoOrbital Pt 18   dx2-y2 \
	OrthoOrbital Pt 19   s \
	OrthoOrbital Pt 19   p \
	OrthoOrbital Pt 19   px \
	OrthoOrbital Pt 19   py \
	OrthoOrbital Pt 19   pz \
	OrthoOrbital Pt 19   d \
	OrthoOrbital Pt 19   dxy \
	OrthoOrbital Pt 19   dyz \
	OrthoOrbital Pt 19   dz2 \
	OrthoOrbital Pt 19   dxz \
	OrthoOrbital Pt 19   dx2-y2
dump End ElecDensity KEdensity BandEigs EigStats RhoAtom DOS Kpoints
dump Ionic State IonicPositions Lattice EigStats Ecomponents
dump 
dump 
dump 
dump 
dump 
dump 
dump 
dump 
dump-name jdft.$VAR
elec-cutoff 20
elec-eigen-algo Davidson
elec-ex-corr gga-PBE
elec-initial-magnetization 0.000000 no
elec-n-bands 183
elec-smearing Fermi 0.001
electronic-minimize  \
	dirUpdateScheme      FletcherReeves \
	linminMethod         DirUpdateRecommended \
	nIterations          100 \
	history              15 \
	knormThreshold       0 \
	energyDiffThreshold  1e-07 \
	nEnergyDiff          2 \
	alphaTstart          1 \
	alphaTmin            1e-10 \
	updateTestStepSize   yes \
	alphaTreduceFactor   0.1 \
	alphaTincreaseFactor 3 \
	nAlphaAdjustMax      3 \
	wolfeEnergy          0.0001 \
	wolfeGradient        0.9 \
	fdTest               no
exchange-regularization WignerSeitzTruncated
fluid LinearPCM 298.000000 1.013250
fluid-anion F- 0.5 MeanFieldLJ \
	epsBulk 1 \
	pMol 0 \
	epsInf 1 \
	Pvap 0 \
	sigmaBulk 0 \
	Rvdw 2.24877 \
	Res 0 \
	tauNuc 343133
fluid-cation Na+ 0.5 MeanFieldLJ \
	epsBulk 1 \
	pMol 0 \
	epsInf 1 \
	Pvap 0 \
	sigmaBulk 0 \
	Rvdw 2.19208 \
	Res 0 \
	tauNuc 343133
fluid-ex-corr lda-TF lda-PZ
fluid-gummel-loop 10 1.000000e-05
fluid-minimize  \
	dirUpdateScheme      PolakRibiere \
	linminMethod         DirUpdateRecommended \
	nIterations          400 \
	history              15 \
	knormThreshold       1e-11 \
	energyDiffThreshold  0 \
	nEnergyDiff          2 \
	alphaTstart          1 \
	alphaTmin            1e-10 \
	updateTestStepSize   yes \
	alphaTreduceFactor   0.1 \
	alphaTincreaseFactor 3 \
	nAlphaAdjustMax      6 \
	wolfeEnergy          0.0001 \
	wolfeGradient        0.9 \
	fdTest               no
fluid-solvent H2O 55.338 ScalarEOS \
	epsBulk 78.4 \
	pMol 0.92466 \
	epsInf 1.77 \
	Pvap 1.06736e-10 \
	sigmaBulk 4.62e-05 \
	Rvdw 2.61727 \
	Res 1.42 \
	tauNuc 343133 \
	poleEl 15 7 1
forces-output-coords Positions
initial-state jdft.$VAR
ion Pt  -0.003892950890989   7.032749202405832  63.412807153313629 1
ion Pt   2.611518035153140   2.918720760483185  62.128266195828786 1
ion Pt   2.611843490312449  10.315788266545889  60.489953273529132 1
ion Pt   0.004199793994112   0.168244930480616  33.342660692068534 1
ion Pt  -0.007852300657854   6.055453917667418  58.455161383011124 1
ion Pt   2.606703448016440   1.788519787975393  56.914706698486931 1
ion Pt   2.605511934723014   9.069743896236581  55.153151400678524 1
ion Pt  -0.008088930390476   4.828461825285270  53.484325519942445 1
ion Pt   2.609794067237081   0.618872496871703  51.779891920414059 1
ion Pt   2.612602442658261   7.799893253800815  50.055372217842852 1
ion Pt  -0.000213036134200   3.601223413071514  48.378535556046664 1
ion Pt   0.003511976787164  10.805136942722626  46.700653779000255 1
ion Pt   2.621973443733872   6.583892229325288  44.976444580873832 1
ion Pt   0.007994719476295   2.372971193038122  43.270944402824277 1
ion Pt   0.010513768755393   9.535769470900959  41.603505177738917 1
ion Pt   2.625031651738157   5.412515078261598  39.842414848921784 1
ion Pt   0.008217791701669   1.146661788947069  38.303156777306270 1
ion Pt   0.004012031799805   8.288114329800178  36.266718365032091 1
ion Pt   2.620603621986648   4.283083216179944  34.628688057139776 1
ion-species /projects/musgravc/apps/jdftx-1.6.0/build/pseudopotentials/GBRV_v1.5/$ID_pbe_v1.uspp
ion-species /projects/musgravc/apps/jdftx-1.6.0/build/pseudopotentials/GBRV_v1.5/$ID_pbe_v1.2.uspp
ion-species /projects/musgravc/apps/jdftx-1.6.0/build/pseudopotentials/GBRV_v1.5/$ID_pbe_v1.4.uspp
ion-species /projects/musgravc/apps/jdftx-1.6.0/build/pseudopotentials/GBRV_v1.5/$ID_pbe_v1.5.uspp
ion-width Ecut
ionic-minimize  \
	dirUpdateScheme      L-BFGS \
	linminMethod         DirUpdateRecommended \
	nIterations          100 \
	history              15 \
	knormThreshold       0.0001 \
	energyDiffThreshold  0.0001 \
	nEnergyDiff          2 \
	alphaTstart          1 \
	alphaTmin            1e-10 \
	updateTestStepSize   yes \
	alphaTreduceFactor   0.1 \
	alphaTincreaseFactor 3 \
	nAlphaAdjustMax      3 \
	wolfeEnergy          0.0001 \
	wolfeGradient        0.9 \
	fdTest               no
kpoint   0.000000000000   0.000000000000   0.000000000000  1.00000000000000
kpoint-folding 11 5 1 
latt-move-scale 0 0 0
latt-scale 1 1 1 
lattice  \
	   5.231996000000000   -2.615997000000000    0.000000000000000  \
	   0.000000000000000   11.402868000000000    0.000000000000000  \
	   0.000000000000000    0.000000000000000   64.504367000000002 
lattice-minimize  \
	dirUpdateScheme      L-BFGS \
	linminMethod         DirUpdateRecommended \
	nIterations          0 \
	history              15 \
	knormThreshold       0 \
	energyDiffThreshold  1e-06 \
	nEnergyDiff          2 \
	alphaTstart          1 \
	alphaTmin            1e-10 \
	updateTestStepSize   yes \
	alphaTreduceFactor   0.1 \
	alphaTincreaseFactor 3 \
	nAlphaAdjustMax      3 \
	wolfeEnergy          0.0001 \
	wolfeGradient        0.9 \
	fdTest               no
lcao-params 30 1e-06 0.001
pcm-variant CANDLE
spintype z-spin
subspace-rotation-factor 1 yes
symmetries automatic
symmetry-threshold 0.0001
target-mu -0.24475 no

van-der-waals D3



---------- Setting up symmetries ----------

Found 8 point-group symmetries of the bravais lattice
Found 1 space-group symmetries with basis
Applied RMS atom displacement 0 bohrs to make symmetries exact.

---------- Initializing the Grid ----------
R = 
[        5.232       -2.616            0  ]
[            0      11.4029            0  ]
[            0            0      64.5044  ]
unit cell volume = 3848.32
G =
[    1.20092   0.275509         -0  ]
[          0   0.551018          0  ]
[          0         -0  0.0974071  ]
Minimum fftbox size, Smin = [  24  48  260  ]
Chosen fftbox size, S = [  24  48  270  ]

---------- Exchange Correlation functional ----------
Initalized PBE GGA exchange.
Initalized PBE GGA correlation.

---------- Setting up pseudopotentials ----------
Width of ionic core gaussian charges (only for fluid interactions / plotting) set to 0.397384

Reading pseudopotential file '/projects/musgravc/apps/jdftx-1.6.0/build/pseudopotentials/GBRV_v1.5/pt_pbe_v1.4.uspp':
  Title: Pt.  Created by USPP 7.3.6 on 31-3-15
  Reference state energy: -105.002503.  16 valence electrons in orbitals:
    |510>  occupation: 6  eigenvalue: -2.158104
    |520>  occupation: 9.5  eigenvalue: -0.335376
    |600>  occupation: 0  eigenvalue: -0.319640
    |610>  occupation: 0  eigenvalue: -0.122947
  lMax: 2  lLocal: 3  QijEcut: 5.5
  6 projectors sampled on a log grid with 745 points:
    l: 0  eig: -0.319640  rCut: 2.45
    l: 0  eig: 1.500000  rCut: 2.45
    l: 1  eig: -2.158104  rCut: 1.6
    l: 1  eig: -0.122947  rCut: 1.6
    l: 2  eig: -0.500000  rCut: 1.6
    l: 2  eig: -0.335375  rCut: 1.6
  Partial core density with radius 1.1
  Transforming core density to a uniform radial grid of dG=0.02 with 1284 points.
  Transforming local potential to a uniform radial grid of dG=0.02 with 1284 points.
  Transforming nonlocal projectors to a uniform radial grid of dG=0.02 with 432 points.
  Transforming density augmentations to a uniform radial grid of dG=0.02 with 1284 points.
  Transforming atomic orbitals to a uniform radial grid of dG=0.02 with 432 points.
  Core radius for overlap checks: 2.45 bohrs.

Initialized 1 species with 19 total atoms.

Folded 1 k-points by 11x5x1 to 55 k-points.

---------- Setting up k-points, bands, fillings ----------
Adding inversion symmetry to k-mesh for non-inversion-symmetric unit cell.
Reduced to 28 k-points under symmetry. 
Computing the number of bands and number of electrons
Reading initial fillings from file jdft.fillings.
nElectrons: 303.599564   nBands: 183   nStates: 56

----- Setting up reduced wavefunction bases (one per k-point) -----
average nbasis = 16439.073 , ideal nbasis = 16440.295

----- Initializing Supercell corresponding to k-point mesh -----
Lattice vector linear combinations in supercell:
[  11   0   0  ]
[   0   5   0  ]
[   0   0   1  ]
Supercell lattice vectors:
[  57.552  -13.08  0  ]
[  0  57.0143  0  ]
[  0  0  64.5044  ]

Initializing DFT-D3 calculator:
	Parameters set for gga-PBE functional
	s6:  1.000  s_r6:  1.217
	s8:  0.722  s_r8:  1.000
	Per-atom parameters loaded for:
	Pt:  sqrtQ[a0]:  5.888  Rcov[a0]:  2.116  CN: [ 0.00 1.92 6.67 ]

Initializing DFT-D2 calculator for fluid / solvation:
	Pt:  C6:  815.23 Eh-a0^6  R0: 3.326 a0 (WARNING: beyond Grimme's data set)

---------- Setting up ewald sum ----------
Optimum gaussian width for ewald sums = 3.827143 bohr.
Real space sum over 1045 unit cells with max indices [  9  5  2  ]
Reciprocal space sum over 6435 terms with max indices [  4  6  27  ]

Computing DFT-D3 correction:
# coordination-number Pt 5.974 7.094 8.567 5.971 9.213 9.398 9.497 9.518 9.561 9.557 9.571 9.557 9.560 9.520 9.499 9.399 9.213 8.564 7.093
# diagonal-C6 Pt 336.87 336.87 336.87 336.87 336.87 336.87 336.87 336.87 336.87 336.87 336.87 336.87 336.87 336.87 336.87 336.87 336.87 336.87 336.87
EvdW_6 =   -0.179045
EvdW_8 =   -0.282285

---------- Allocating electronic variables ----------
Initializing wave functions:  reading from 'jdft.wfns'
----- createFluidSolver() ----- (Fluid-side solver setup)
   Initializing fluid molecule 'H2O'
     Initializing site 'O'
       Electron density: proportional to exp(-r/0.36935)*erfc((r-0.51523)/0.36823) with norm 6.826
       Charge density: gaussian nuclear width 0.478731 with net site charge 0.826
       Polarizability: cuspless exponential with width 0.32 and norm 3.73
       Hard sphere radius: 2.57003 bohrs
       Positions in reference frame:
         [ +0.000000 +0.000000 +0.000000 ]
     Initializing site 'H'
       Electron density: proportional to exp(-r/0.34641)*erfc((r-0)/0.390882) with norm 0.587
       Charge density: gaussian nuclear width 0.377945 with net site charge -0.413
       Polarizability: cuspless exponential with width 0.39 and norm 3.3
       Positions in reference frame:
         [ +0.000000 -1.441945 +1.122523 ]
         [ +0.000000 +1.441945 +1.122523 ]
     Net charge: 0   dipole magnitude: 0.927204
     Initializing spherical shell mfKernel with radius 2.61727 Bohr
     deltaS corrections:
       site 'O': -7.54299
       site 'H': -6.83917
   Initializing fluid molecule 'Na+'
     Initializing site 'Na'
       Electron density: proportional to exp(-r/0.19682)*erfc((r-0.71491)/0.41314) with norm 8.1383
       Charge density: gaussian nuclear width 0.365347 with net site charge -1
       Hard sphere radius: 1.86327 bohrs
       Positions in reference frame:
         [ +0.000000 +0.000000 +0.000000 ]
     Net charge: -1   dipole magnitude: 0
     Initializing gaussian mfKernel with width: 1.55004 Bohr
     deltaS corrections:
       site 'Na': -22.3555
   Initializing fluid molecule 'F-'
     Initializing site 'F'
       Electron density: proportional to exp(-r/0.38886)*erfc((r-0)/0.438782) with norm 8
       Charge density: gaussian nuclear width 0.374796 with net site charge 1
       Hard sphere radius: 2.39995 bohrs
       Positions in reference frame:
         [ +0.000000 +0.000000 +0.000000 ]
     Net charge: 1   dipole magnitude: 0
     Initializing gaussian mfKernel with width: 1.59012 Bohr
     deltaS corrections:
       site 'F': -9.04335

Correction to mu due to finite nuclear width = -0.0783795
   Cavity determined by nc: 0.00142 and sigma: 0.707107
   Nonlocal vdW cavity from gaussian model electron density with norm = 8 and sigma = 0.993594 bohr
   Charge asymmetry in cavity with sensitivity pCavity = 36.5 e-bohr/Eh
   Electrostatic cavity expanded by eta = 1.46 bohrs
   Weighted density cavitation model constrained by Nbulk: 0.0049383 bohr^-3, Pvap: 3.14029 kPa, Rvdw: 2.61727 bohr and sigmaBulk: 4.62e-05 Eh/bohr^2 at T: 298 K.
   Weighted density dispersion model using vdW pair potentials with single solvent site with sqrtC6eff: 0.77 SI.
Reading fluid state from 'jdft.fluidState'


---- Citations for features of the code used in this run ----

   Software package:
      R. Sundararaman, K. Letchworth-Weaver, K.A. Schwarz, D. Gunceler, Y. Ozhabes and T.A. Arias, 'JDFTx: software for joint density-functional theory', SoftwareX 6, 278 (2017)

   gga-PBE exchange-correlation functional:
      J.P. Perdew, K. Burke and M. Ernzerhof, Phys. Rev. Lett. 77, 3865 (1996)

   Pseudopotentials:
      KF Garrity, JW Bennett, KM Rabe and D Vanderbilt, Comput. Mater. Sci. 81, 446 (2014)

   DFT-D3 dispersion correction:
      S. Grimme, J. Antony, S. Ehrlich and H. Krieg, J. Chem. Phys. 132, 154104 (2010)

   DFT-D2 dispersion correction:
      S. Grimme, J. Comput. Chem. 27, 1787 (2006)

   Charge-asymmetric nonlocally-determined local-electric (CANDLE) solvation model:
      R. Sundararaman and W.A. Goddard III, J. Chem. Phys. 142, 064107 (2015)

   Total energy minimization with Auxiliary Hamiltonian:
      C. Freysoldt, S. Boeck, and J. Neugebauer, Phys. Rev. B 79, 241103(R) (2009)

   Grand-canonical (fixed-potential) DFT:
      R. Sundararaman, W. A. Goddard III and T. A. Arias, J. Chem. Phys. 146, 114104 (2017)

   Linear-tetrahedron sampling for density of states:
      G. Lehmann and M. Taut, Phys. status solidi (b) 54, 469 (1972)

This list may not be complete. Please suggest additional citations or
report any other bugs at https://github.com/shankar1729/jdftx/issues

Initialization completed successfully at t[s]:     13.61


Computing DFT-D3 correction:
# coordination-number Pt 5.974 7.094 8.567 5.971 9.213 9.398 9.497 9.518 9.561 9.557 9.571 9.557 9.560 9.520 9.499 9.399 9.213 8.564 7.093
# diagonal-C6 Pt 336.87 336.87 336.87 336.87 336.87 336.87 336.87 336.87 336.87 336.87 336.87 336.87 336.87 336.87 336.87 336.87 336.87 336.87 336.87
EvdW_6 =   -0.179045
EvdW_8 =   -0.282285
Shifting auxilliary hamiltonian by 0.000079 to set nElectrons=303.599564

-------- Electronic minimization -----------
	Linear fluid (dielectric constant: 78.4, screening length: 8.12261 Bohr) occupying 0.380352 of unit cell:	Completed after 18 iterations at t[s]:     29.77
	FillingsUpdate:  mu: -0.244750000  nElectrons: 303.599564  magneticMoment: [ Abs: 0.00097  Tot: -0.00093 ]
ElecMinimize: Iter:   0  G: -1616.100877458537525  |grad|_K:  1.217e-05  alpha:  1.000e+00
	Linear fluid (dielectric constant: 78.4, screening length: 8.12261 Bohr) occupying 0.380436 of unit cell:	Completed after 31 iterations at t[s]:     98.16
	Linear fluid (dielectric constant: 78.4, screening length: 8.12261 Bohr) occupying 0.380352 of unit cell:	Completed after 31 iterations at t[s]:    121.31
	FillingsUpdate:  mu: -0.244750000  nElectrons: 303.592292  magneticMoment: [ Abs: 0.00097  Tot: -0.00093 ]
	SubspaceRotationAdjust: set factor to 0.508
ElecMinimize: Iter:   1  G: -1616.100915765516220  |grad|_K:  5.717e-06  alpha:  1.370e-03  linmin: -3.145e-02  t[s]:    156.59
	Linear fluid (dielectric constant: 78.4, screening length: 8.12261 Bohr) occupying 0.380352 of unit cell:	Completed after 13 iterations at t[s]:    185.25
ElecMinimize: 	Predicted alpha/alphaT>3.000000, increasing alphaT to 4.110406e-03.
	Linear fluid (dielectric constant: 78.4, screening length: 8.12261 Bohr) occupying 0.380351 of unit cell:	Completed after 15 iterations at t[s]:    207.59
	Linear fluid (dielectric constant: 78.4, screening length: 8.12261 Bohr) occupying 0.380351 of unit cell:	Completed after 14 iterations at t[s]:    228.93
	FillingsUpdate:  mu: -0.244750000  nElectrons: 303.593516  magneticMoment: [ Abs: 0.00097  Tot: -0.00092 ]
	SubspaceRotationAdjust: set factor to 0.257
ElecMinimize: Iter:   2  G: -1616.100954698312762  |grad|_K:  3.913e-06  alpha:  6.306e-03  linmin:  5.289e-05  t[s]:    263.97
	Linear fluid (dielectric constant: 78.4, screening length: 8.12261 Bohr) occupying 0.380350 of unit cell:	Completed after 16 iterations at t[s]:    292.72
	Linear fluid (dielectric constant: 78.4, screening length: 8.12261 Bohr) occupying 0.380350 of unit cell:	Completed after 15 iterations at t[s]:    315.80
	FillingsUpdate:  mu: -0.244750000  nElectrons: 303.598626  magneticMoment: [ Abs: 0.00096  Tot: -0.00092 ]
	SubspaceRotationAdjust: set factor to 0.133
	SubspaceRotationAdjust: resetting CG because factor has changed by 0.13269
	Linear fluid (dielectric constant: 78.4, screening length: 8.12261 Bohr) occupying 0.380350 of unit cell:	Completed after 0 iterations at t[s]:    363.48
ElecMinimize: 	State modified externally: resetting search direction.
ElecMinimize: Iter:   3  G: -1616.100964410111601  |grad|_K:  1.543e-06  alpha:  3.738e-03
	Linear fluid (dielectric constant: 78.4, screening length: 8.12261 Bohr) occupying 0.380350 of unit cell:	Completed after 13 iterations at t[s]:    425.39
ElecMinimize: 	Predicted alpha/alphaT>3.000000, increasing alphaT to 1.121421e-02.
	Linear fluid (dielectric constant: 78.4, screening length: 8.12261 Bohr) occupying 0.380350 of unit cell:	Completed after 16 iterations at t[s]:    448.99
	Linear fluid (dielectric constant: 78.4, screening length: 8.12261 Bohr) occupying 0.380351 of unit cell:	Completed after 19 iterations at t[s]:    471.98
	FillingsUpdate:  mu: -0.244750000  nElectrons: 303.595294  magneticMoment: [ Abs: 0.00096  Tot: -0.00092 ]
	SubspaceRotationAdjust: set factor to 0.0689
ElecMinimize: Iter:   4  G: -1616.100974012618963  |grad|_K:  1.475e-06  alpha:  2.385e-02  linmin:  2.812e-04  t[s]:    505.10
	Linear fluid (dielectric constant: 78.4, screening length: 8.12261 Bohr) occupying 0.380351 of unit cell:	Completed after 20 iterations at t[s]:    534.54
	Linear fluid (dielectric constant: 78.4, screening length: 8.12261 Bohr) occupying 0.380351 of unit cell:	Completed after 14 iterations at t[s]:    557.80
	FillingsUpdate:  mu: -0.244750000  nElectrons: 303.598019  magneticMoment: [ Abs: 0.00096  Tot: -0.00092 ]
	SubspaceRotationAdjust: set factor to 0.0442
ElecMinimize: Iter:   5  G: -1616.100981413128011  |grad|_K:  4.875e-07  alpha:  2.012e-02  linmin:  3.265e-04  t[s]:    592.02
	Linear fluid (dielectric constant: 78.4, screening length: 8.12261 Bohr) occupying 0.380351 of unit cell:	Completed after 6 iterations at t[s]:    617.87
ElecMinimize: 	Predicted alpha/alphaT>3.000000, increasing alphaT to 6.036384e-02.
	Linear fluid (dielectric constant: 78.4, screening length: 8.12261 Bohr) occupying 0.380351 of unit cell:	Completed after 7 iterations at t[s]:    640.13
	Linear fluid (dielectric constant: 78.4, screening length: 8.12261 Bohr) occupying 0.380352 of unit cell:	Completed after 11 iterations at t[s]:    662.63
	FillingsUpdate:  mu: -0.244750000  nElectrons: 303.598464  magneticMoment: [ Abs: 0.00096  Tot: -0.00092 ]
	SubspaceRotationAdjust: set factor to 0.0773
ElecMinimize: Iter:   6  G: -1616.100988185329243  |grad|_K:  1.138e-07  alpha:  1.674e-01  linmin: -2.928e-03  t[s]:    698.03
	Linear fluid (dielectric constant: 78.4, screening length: 8.12261 Bohr) occupying 0.380353 of unit cell:	Completed after 13 iterations at t[s]:    726.72
	Linear fluid (dielectric constant: 78.4, screening length: 8.12261 Bohr) occupying 0.380353 of unit cell:	Completed after 3 iterations at t[s]:    746.77
	FillingsUpdate:  mu: -0.244750000  nElectrons: 303.597860  magneticMoment: [ Abs: 0.00096  Tot: -0.00092 ]
	SubspaceRotationAdjust: set factor to 0.0427
ElecMinimize: Iter:   7  G: -1616.100988592463864  |grad|_K:  2.033e-07  alpha:  1.841e-01  linmin: -5.350e-04  t[s]:    780.72
	Linear fluid (dielectric constant: 78.4, screening length: 8.12261 Bohr) occupying 0.380356 of unit cell:	Completed after 16 iterations at t[s]:    809.46
	Linear fluid (dielectric constant: 78.4, screening length: 8.12261 Bohr) occupying 0.380354 of unit cell:	Completed after 15 iterations at t[s]:    832.80
	FillingsUpdate:  mu: -0.244750000  nElectrons: 303.598374  magneticMoment: [ Abs: 0.00096  Tot: -0.00092 ]
	SubspaceRotationAdjust: set factor to 0.0278
ElecMinimize: Iter:   8  G: -1616.100988805202178  |grad|_K:  8.203e-08  alpha:  2.823e-02  linmin: -5.821e-03  t[s]:    868.16
	Linear fluid (dielectric constant: 78.4, screening length: 8.12261 Bohr) occupying 0.380354 of unit cell:	Completed after 2 iterations at t[s]:    895.31
ElecMinimize: 	Predicted alpha/alphaT>3.000000, increasing alphaT to 8.468593e-02.
	Linear fluid (dielectric constant: 78.4, screening length: 8.12261 Bohr) occupying 0.380354 of unit cell:	Completed after 7 iterations at t[s]:    917.45
	Linear fluid (dielectric constant: 78.4, screening length: 8.12261 Bohr) occupying 0.380355 of unit cell:	Completed after 9 iterations at t[s]:    938.20
	FillingsUpdate:  mu: -0.244750000  nElectrons: 303.598339  magneticMoment: [ Abs: 0.00096  Tot: -0.00091 ]
	SubspaceRotationAdjust: set factor to 0.0214
ElecMinimize: Iter:   9  G: -1616.100989002368578  |grad|_K:  4.255e-08  alpha:  1.719e-01  linmin:  6.757e-03  t[s]:    972.34
	Linear fluid (dielectric constant: 78.4, screening length: 8.12261 Bohr) occupying 0.380355 of unit cell:	Completed after 5 iterations at t[s]:    999.55
	Linear fluid (dielectric constant: 78.4, screening length: 8.12261 Bohr) occupying 0.380356 of unit cell:	Completed after 7 iterations at t[s]:   1021.80
	FillingsUpdate:  mu: -0.244750000  nElectrons: 303.598259  magneticMoment: [ Abs: 0.00095  Tot: -0.00091 ]
	SubspaceRotationAdjust: set factor to 0.0139
	SubspaceRotationAdjust: resetting CG because factor has changed by 0.104702
	Linear fluid (dielectric constant: 78.4, screening length: 8.12261 Bohr) occupying 0.380356 of unit cell:	Completed after 0 iterations at t[s]:   1070.27
ElecMinimize: 	State modified externally: resetting search direction.
ElecMinimize: Iter:  10  G: -1616.100989118206599  |grad|_K:  4.626e-08  alpha:  3.954e-01
	Linear fluid (dielectric constant: 78.4, screening length: 8.12261 Bohr) occupying 0.380356 of unit cell:	Completed after 12 iterations at t[s]:   1131.22
	Linear fluid (dielectric constant: 78.4, screening length: 8.12261 Bohr) occupying 0.380356 of unit cell:	Completed after 11 iterations at t[s]:   1153.63
	FillingsUpdate:  mu: -0.244750000  nElectrons: 303.598492  magneticMoment: [ Abs: 0.00095  Tot: -0.00091 ]
	SubspaceRotationAdjust: set factor to 0.0155
ElecMinimize: Iter:  11  G: -1616.100989155612069  |grad|_K:  2.094e-08  alpha:  9.881e-02  linmin: -7.793e-03  t[s]:   1189.14
	Linear fluid (dielectric constant: 78.4, screening length: 8.12261 Bohr) occupying 0.380356 of unit cell:	Completed after 0 iterations at t[s]:   1216.19
ElecMinimize: 	Predicted alpha/alphaT>3.000000, increasing alphaT to 2.964282e-01.
	Linear fluid (dielectric constant: 78.4, screening length: 8.12261 Bohr) occupying 0.380356 of unit cell:	Completed after 2 iterations at t[s]:   1236.25
	Linear fluid (dielectric constant: 78.4, screening length: 8.12261 Bohr) occupying 0.380356 of unit cell:	Completed after 4 iterations at t[s]:   1256.54
	FillingsUpdate:  mu: -0.244750000  nElectrons: 303.598432  magneticMoment: [ Abs: 0.00095  Tot: -0.00091 ]
	SubspaceRotationAdjust: set factor to 0.0191
ElecMinimize: Iter:  12  G: -1616.100989185569006  |grad|_K:  1.805e-08  alpha:  4.107e-01  linmin:  1.669e-02  t[s]:   1291.98
ElecMinimize: Converged (|Delta G|<1.000000e-07 for 2 iters).
Setting wave functions to eigenvectors of Hamiltonian
Converging empty states (this may take a while): |deigs|: 2.867e-09

Computing DFT-D3 correction:
# coordination-number Pt 5.974 7.094 8.567 5.971 9.213 9.398 9.497 9.518 9.561 9.557 9.571 9.557 9.560 9.520 9.499 9.399 9.213 8.564 7.093
# diagonal-C6 Pt 336.87 336.87 336.87 336.87 336.87 336.87 336.87 336.87 336.87 336.87 336.87 336.87 336.87 336.87 336.87 336.87 336.87 336.87 336.87
EvdW_6 =   -0.179045
EvdW_8 =   -0.282285

# Ionic positions in cartesian coordinates:
ion Pt  -0.003892950890989   7.032749202405832  63.412807153313629 1
ion Pt   2.611518035153140   2.918720760483185  62.128266195828786 1
ion Pt   2.611843490312449  10.315788266545889  60.489953273529132 1
ion Pt   0.004199793994112   0.168244930480616  33.342660692068534 1
ion Pt  -0.007852300657854   6.055453917667418  58.455161383011124 1
ion Pt   2.606703448016440   1.788519787975393  56.914706698486931 1
ion Pt   2.605511934723014   9.069743896236581  55.153151400678524 1
ion Pt  -0.008088930390476   4.828461825285270  53.484325519942445 1
ion Pt   2.609794067237081   0.618872496871703  51.779891920414059 1
ion Pt   2.612602442658261   7.799893253800815  50.055372217842852 1
ion Pt  -0.000213036134200   3.601223413071514  48.378535556046664 1
ion Pt   0.003511976787164  10.805136942722626  46.700653779000255 1
ion Pt   2.621973443733872   6.583892229325288  44.976444580873832 1
ion Pt   0.007994719476295   2.372971193038122  43.270944402824277 1
ion Pt   0.010513768755393   9.535769470900959  41.603505177738917 1
ion Pt   2.625031651738157   5.412515078261598  39.842414848921784 1
ion Pt   0.008217791701669   1.146661788947069  38.303156777306270 1
ion Pt   0.004012031799805   8.288114329800178  36.266718365032091 1
ion Pt   2.620603621986648   4.283083216179944  34.628688057139776 1

# Forces in Cartesian coordinates:
force Pt  -0.000033754018317  -0.000607961361558  -0.001117543684013 1
force Pt  -0.000036946928420  -0.000893155072737  -0.002520111330271 1
force Pt  -0.000031892548404   0.000957553422100  -0.000117790993813 1
force Pt   0.000031027658658   0.000690728195600   0.001282135703422 1
force Pt   0.000055767977124   0.000362041368748   0.002202617408914 1
force Pt   0.000027652246877  -0.000057825448303   0.000180282320188 1
force Pt  -0.000037105645731  -0.000565326310499  -0.000260361164376 1
force Pt  -0.000096118657465   0.000443541585165   0.001441608505188 1
force Pt  -0.000018151704382   0.000058660645853   0.000158073695796 1
force Pt   0.000058243236660  -0.000378920054431  -0.000110775403926 1
force Pt   0.000001015932083  -0.000034171194624   0.000049678766028 1
force Pt  -0.000061665119825   0.000486566509640   0.000504642271070 1
force Pt   0.000021182198441  -0.000213120289287   0.000090029797143 1
force Pt   0.000098399428836  -0.000268084230475  -0.000925898049478 1
force Pt   0.000036595121591   0.000333058677850   0.000221094280571 1
force Pt  -0.000025526755278   0.000276244546578  -0.000330144620944 1
force Pt  -0.000058988913389  -0.000482963268707  -0.002865449262046 1
force Pt   0.000033386717769  -0.000814585027531  -0.000080434569307 1
force Pt   0.000036642677832   0.000707748003986   0.002340984215237 1

# Energy components:
   A_diel =        0.1554147506297909
   Eewald =    11605.0585231747809303
       EH =    13195.0261996602293948
     Eloc =   -26783.8796446653286694
      Enl =      -20.0507659497394464
     EvdW =       -0.4613297897248054
      Exc =     -540.5282495627418484
 Exc_core =      311.4362484449205795
       KE =      542.8087508354565216
  MuShift =        0.0314746826202799
-------------------------------------
     Etot =    -1690.4033784188950449
       TS =        0.0033270665976475
-------------------------------------
        F =    -1690.4067054854926937
      muN =      -74.3057162999236738
-------------------------------------
        G =    -1616.1009891855690057


Dumping 'jdft.fillings' ... done
Dumping 'jdft.wfns' ... done
Dumping 'jdft.fluidState' ... done
Dumping 'jdft.ionpos' ... done
Dumping 'jdft.lattice' ... done
Dumping 'jdft.eigenvals' ... done
Dumping 'jdft.eigStats' ... 
	eMin: -2.194890 at state 30 ( [ +0.000000 +0.400000 +0.000000 ] spin -1 )
	HOMO: -0.244760 at state 27 ( [ +0.454545 -0.200000 +0.000000 ] spin 1 )
	mu  : -0.244750
	LUMO: -0.244730 at state 37 ( [ +0.181818 +0.200000 +0.000000 ] spin -1 )
	eMax: +0.093917 at state 20 ( [ +0.363636 +0.400000 +0.000000 ] spin 1 )
	HOMO-LUMO gap: +0.000030
	Optical gap  : +0.000562 at state 43 ( [ +0.272727 +0.400000 +0.000000 ] spin -1 )
Dumping 'jdft.Ecomponents' ... done
IonicMinimize: Iter:   0  G: -1616.100989185569006  |grad|_K:  8.018e-04  t[s]:   1374.59

#--- Lowdin population analysis ---
# oxidation-state Pt +0.185 +0.082 -0.027 +0.181 +0.018 +0.009 +0.014 +0.008 +0.010 +0.009 +0.005 +0.009 +0.011 +0.009 +0.013 +0.007 +0.015 -0.031 +0.078
# magnetic-moments Pt -0.000 -0.000 -0.000 -0.000 -0.000 -0.000 -0.000 -0.000 -0.000 -0.000 -0.000 -0.000 -0.000 -0.000 -0.000 -0.000 -0.000 -0.000 -0.000


Computing DFT-D3 correction:
# coordination-number Pt 5.975 7.101 8.569 5.973 9.216 9.399 9.496 9.517 9.560 9.556 9.570 9.556 9.559 9.518 9.497 9.400 9.216 8.567 7.100
# diagonal-C6 Pt 336.87 336.87 336.87 336.87 336.87 336.87 336.87 336.87 336.87 336.87 336.87 336.87 336.87 336.87 336.87 336.87 336.87 336.87 336.87
EvdW_6 =   -0.179048
EvdW_8 =   -0.282291
Shifting auxilliary hamiltonian by -0.000004 to set nElectrons=303.598432

-------- Electronic minimization -----------
	Linear fluid (dielectric constant: 78.4, screening length: 8.12261 Bohr) occupying 0.380395 of unit cell:	Completed after 21 iterations at t[s]:   1405.68
	FillingsUpdate:  mu: -0.244750000  nElectrons: 303.598432  magneticMoment: [ Abs: 0.00078  Tot: -0.00073 ]
ElecMinimize: Iter:   0  G: -1616.100973085789064  |grad|_K:  1.211e-06  alpha:  1.000e+00
	Linear fluid (dielectric constant: 78.4, screening length: 8.12261 Bohr) occupying 0.380382 of unit cell:	Completed after 23 iterations at t[s]:   1474.62
	Linear fluid (dielectric constant: 78.4, screening length: 8.12261 Bohr) occupying 0.380393 of unit cell:	Completed after 24 iterations at t[s]:   1499.01
	FillingsUpdate:  mu: -0.244750000  nElectrons: 303.603823  magneticMoment: [ Abs: 0.00077  Tot: -0.00073 ]
	SubspaceRotationAdjust: set factor to 0.0112
ElecMinimize: Iter:   1  G: -1616.100999350411030  |grad|_K:  8.093e-07  alpha:  1.058e-01  linmin:  2.595e-04  t[s]:   1533.87
	Linear fluid (dielectric constant: 78.4, screening length: 8.12261 Bohr) occupying 0.380389 of unit cell:	Completed after 19 iterations at t[s]:   1561.13
	Linear fluid (dielectric constant: 78.4, screening length: 8.12261 Bohr) occupying 0.380389 of unit cell:	Completed after 14 iterations at t[s]:   1584.21
	FillingsUpdate:  mu: -0.244750000  nElectrons: 303.600544  magneticMoment: [ Abs: 0.00077  Tot: -0.00073 ]
	SubspaceRotationAdjust: set factor to 0.00977
ElecMinimize: Iter:   2  G: -1616.101012962750701  |grad|_K:  2.430e-07  alpha:  1.228e-01  linmin: -5.783e-05  t[s]:   1619.49
	Linear fluid (dielectric constant: 78.4, screening length: 8.12261 Bohr) occupying 0.380386 of unit cell:	Completed after 10 iterations at t[s]:   1647.56
ElecMinimize: 	Predicted alpha/alphaT>3.000000, increasing alphaT to 3.684969e-01.
	Linear fluid (dielectric constant: 78.4, screening length: 8.12261 Bohr) occupying 0.380382 of unit cell:	Completed after 12 iterations at t[s]:   1670.65
	Linear fluid (dielectric constant: 78.4, screening length: 8.12261 Bohr) occupying 0.380381 of unit cell:	Completed after 6 iterations at t[s]:   1691.28
	FillingsUpdate:  mu: -0.244750000  nElectrons: 303.599800  magneticMoment: [ Abs: 0.00077  Tot: -0.00072 ]
	SubspaceRotationAdjust: set factor to 0.0136
ElecMinimize: Iter:   3  G: -1616.101017289843867  |grad|_K:  1.300e-07  alpha:  4.325e-01  linmin:  3.896e-04  t[s]:   1724.93
	Linear fluid (dielectric constant: 78.4, screening length: 8.12261 Bohr) occupying 0.380376 of unit cell:	Completed after 13 iterations at t[s]:   1753.11
	Linear fluid (dielectric constant: 78.4, screening length: 8.12261 Bohr) occupying 0.380377 of unit cell:	Completed after 10 iterations at t[s]:   1775.83
	FillingsUpdate:  mu: -0.244750000  nElectrons: 303.600478  magneticMoment: [ Abs: 0.00077  Tot: -0.00072 ]
	SubspaceRotationAdjust: set factor to 0.00967
ElecMinimize: Iter:   4  G: -1616.101018225683447  |grad|_K:  1.441e-07  alpha:  3.255e-01  linmin:  1.049e-03  t[s]:   1811.38
	Linear fluid (dielectric constant: 78.4, screening length: 8.12261 Bohr) occupying 0.380371 of unit cell:	Completed after 14 iterations at t[s]:   1839.00
	Linear fluid (dielectric constant: 78.4, screening length: 8.12261 Bohr) occupying 0.380374 of unit cell:	Completed after 12 iterations at t[s]:   1860.09
	FillingsUpdate:  mu: -0.244750000  nElectrons: 303.599560  magneticMoment: [ Abs: 0.00077  Tot: -0.00072 ]
	SubspaceRotationAdjust: set factor to 0.00676
ElecMinimize: Iter:   5  G: -1616.101018864792650  |grad|_K:  8.226e-08  alpha:  1.831e-01  linmin:  1.182e-04  t[s]:   1895.39
	Linear fluid (dielectric constant: 78.4, screening length: 8.12261 Bohr) occupying 0.380373 of unit cell:	Completed after 6 iterations at t[s]:   1922.81
ElecMinimize: 	Predicted alpha/alphaT>3.000000, increasing alphaT to 5.492523e-01.
	Linear fluid (dielectric constant: 78.4, screening length: 8.12261 Bohr) occupying 0.380372 of unit cell:	Completed after 7 iterations at t[s]:   1944.81
	Linear fluid (dielectric constant: 78.4, screening length: 8.12261 Bohr) occupying 0.380372 of unit cell:	Completed after 2 iterations at t[s]:   1966.64
	FillingsUpdate:  mu: -0.244750000  nElectrons: 303.599552  magneticMoment: [ Abs: 0.00076  Tot: -0.00072 ]
	SubspaceRotationAdjust: set factor to 0.00813
ElecMinimize: Iter:   6  G: -1616.101019565658135  |grad|_K:  6.926e-08  alpha:  6.118e-01  linmin: -6.908e-04  t[s]:   2000.30
	Linear fluid (dielectric constant: 78.4, screening length: 8.12261 Bohr) occupying 0.380374 of unit cell:	Completed after 9 iterations at t[s]:   2027.10
	Linear fluid (dielectric constant: 78.4, screening length: 8.12261 Bohr) occupying 0.380374 of unit cell:	Completed after 0 iterations at t[s]:   2048.38
	FillingsUpdate:  mu: -0.244750000  nElectrons: 303.599529  magneticMoment: [ Abs: 0.00076  Tot: -0.00072 ]
	SubspaceRotationAdjust: set factor to 0.00911
ElecMinimize: Iter:   7  G: -1616.101020111106664  |grad|_K:  6.186e-08  alpha:  6.687e-01  linmin: -1.326e-03  t[s]:   2083.66
	Linear fluid (dielectric constant: 78.4, screening length: 8.12261 Bohr) occupying 0.380378 of unit cell:	Completed after 12 iterations at t[s]:   2112.15
	Linear fluid (dielectric constant: 78.4, screening length: 8.12261 Bohr) occupying 0.380377 of unit cell:	Completed after 7 iterations at t[s]:   2134.03
	FillingsUpdate:  mu: -0.244750000  nElectrons: 303.598966  magneticMoment: [ Abs: 0.00076  Tot: -0.00072 ]
	SubspaceRotationAdjust: set factor to 0.00754
ElecMinimize: Iter:   8  G: -1616.101020463120904  |grad|_K:  7.752e-08  alpha:  5.364e-01  linmin:  6.529e-04  t[s]:   2166.94
	Linear fluid (dielectric constant: 78.4, screening length: 8.12261 Bohr) occupying 0.380386 of unit cell:	Completed after 12 iterations at t[s]:   2195.19
	Linear fluid (dielectric constant: 78.4, screening length: 8.12261 Bohr) occupying 0.380381 of unit cell:	Completed after 11 iterations at t[s]:   2217.67
	FillingsUpdate:  mu: -0.244750000  nElectrons: 303.599323  magneticMoment: [ Abs: 0.00076  Tot: -0.00072 ]
	SubspaceRotationAdjust: set factor to 0.00551
ElecMinimize: Iter:   9  G: -1616.101020728153571  |grad|_K:  5.626e-08  alpha:  2.637e-01  linmin:  5.332e-05  t[s]:   2253.14
	Linear fluid (dielectric constant: 78.4, screening length: 8.12261 Bohr) occupying 0.380384 of unit cell:	Completed after 2 iterations at t[s]:   2280.35
	Linear fluid (dielectric constant: 78.4, screening length: 8.12261 Bohr) occupying 0.380387 of unit cell:	Completed after 7 iterations at t[s]:   2300.80
	FillingsUpdate:  mu: -0.244750000  nElectrons: 303.599088  magneticMoment: [ Abs: 0.00075  Tot: -0.00071 ]
	SubspaceRotationAdjust: set factor to 0.00687
ElecMinimize: Iter:  10  G: -1616.101021053812246  |grad|_K:  4.811e-08  alpha:  6.128e-01  linmin:  8.818e-04  t[s]:   2334.71
	Linear fluid (dielectric constant: 78.4, screening length: 8.12261 Bohr) occupying 0.380390 of unit cell:	Completed after 9 iterations at t[s]:   2362.49
	Linear fluid (dielectric constant: 78.4, screening length: 8.12261 Bohr) occupying 0.380390 of unit cell:	Completed after 0 iterations at t[s]:   2383.71
	FillingsUpdate:  mu: -0.244750000  nElectrons: 303.598732  magneticMoment: [ Abs: 0.00075  Tot: -0.00071 ]
	SubspaceRotationAdjust: set factor to 0.00668
ElecMinimize: Iter:  11  G: -1616.101021277783047  |grad|_K:  4.908e-08  alpha:  5.762e-01  linmin:  9.072e-04  t[s]:   2418.99
	Linear fluid (dielectric constant: 78.4, screening length: 8.12261 Bohr) occupying 0.380392 of unit cell:	Completed after 12 iterations at t[s]:   2447.38
	Linear fluid (dielectric constant: 78.4, screening length: 8.12261 Bohr) occupying 0.380391 of unit cell:	Completed after 9 iterations at t[s]:   2469.94
	FillingsUpdate:  mu: -0.244750000  nElectrons: 303.598967  magneticMoment: [ Abs: 0.00075  Tot: -0.00071 ]
	SubspaceRotationAdjust: set factor to 0.0052
ElecMinimize: Iter:  12  G: -1616.101021392922576  |grad|_K:  4.144e-08  alpha:  2.964e-01  linmin: -6.488e-06  t[s]:   2502.60
	Linear fluid (dielectric constant: 78.4, screening length: 8.12261 Bohr) occupying 0.380392 of unit cell:	Completed after 2 iterations at t[s]:   2529.32
	Linear fluid (dielectric constant: 78.4, screening length: 8.12261 Bohr) occupying 0.380392 of unit cell:	Completed after 6 iterations at t[s]:   2551.07
	FillingsUpdate:  mu: -0.244750000  nElectrons: 303.598787  magneticMoment: [ Abs: 0.00075  Tot: -0.00071 ]
	SubspaceRotationAdjust: set factor to 0.00631
ElecMinimize: Iter:  13  G: -1616.101021548935250  |grad|_K:  3.511e-08  alpha:  5.488e-01  linmin:  2.504e-03  t[s]:   2586.61
	Linear fluid (dielectric constant: 78.4, screening length: 8.12261 Bohr) occupying 0.380393 of unit cell:	Completed after 8 iterations at t[s]:   2614.75
	Linear fluid (dielectric constant: 78.4, screening length: 8.12261 Bohr) occupying 0.380393 of unit cell:	Completed after 0 iterations at t[s]:   2634.89
	FillingsUpdate:  mu: -0.244750000  nElectrons: 303.598606  magneticMoment: [ Abs: 0.00075  Tot: -0.00070 ]
	SubspaceRotationAdjust: set factor to 0.0068
ElecMinimize: Iter:  14  G: -1616.101021673557398  |grad|_K:  3.534e-08  alpha:  6.111e-01  linmin: -1.333e-03  t[s]:   2668.22
	Linear fluid (dielectric constant: 78.4, screening length: 8.12261 Bohr) occupying 0.380394 of unit cell:	Completed after 11 iterations at t[s]:   2696.42
	Linear fluid (dielectric constant: 78.4, screening length: 8.12261 Bohr) occupying 0.380393 of unit cell:	Completed after 6 iterations at t[s]:   2718.41
	FillingsUpdate:  mu: -0.244750000  nElectrons: 303.598853  magneticMoment: [ Abs: 0.00074  Tot: -0.00070 ]
	SubspaceRotationAdjust: set factor to 0.00589
ElecMinimize: Iter:  15  G: -1616.101021776255493  |grad|_K:  3.890e-08  alpha:  4.707e-01  linmin:  1.002e-03  t[s]:   2753.82
	Linear fluid (dielectric constant: 78.4, screening length: 8.12261 Bohr) occupying 0.380394 of unit cell:	Completed after 10 iterations at t[s]:   2781.44
	Linear fluid (dielectric constant: 78.4, screening length: 8.12261 Bohr) occupying 0.380394 of unit cell:	Completed after 0 iterations at t[s]:   2801.00
	FillingsUpdate:  mu: -0.244750000  nElectrons: 303.598674  magneticMoment: [ Abs: 0.00074  Tot: -0.00070 ]
	SubspaceRotationAdjust: set factor to 0.00582
ElecMinimize: Iter:  16  G: -1616.101021900911746  |grad|_K:  3.462e-08  alpha:  4.951e-01  linmin: -1.172e-03  t[s]:   2835.70
	Linear fluid (dielectric constant: 78.4, screening length: 8.12261 Bohr) occupying 0.380395 of unit cell:	Completed after 2 iterations at t[s]:   2862.57
	Linear fluid (dielectric constant: 78.4, screening length: 8.12261 Bohr) occupying 0.380395 of unit cell:	Completed after 2 iterations at t[s]:   2884.03
	FillingsUpdate:  mu: -0.244750000  nElectrons: 303.598706  magneticMoment: [ Abs: 0.00073  Tot: -0.00069 ]
	SubspaceRotationAdjust: set factor to 0.00668
ElecMinimize: Iter:  17  G: -1616.101022053275983  |grad|_K:  3.653e-08  alpha:  7.400e-01  linmin: -1.954e-04  t[s]:   2919.71
	Linear fluid (dielectric constant: 78.4, screening length: 8.12261 Bohr) occupying 0.380396 of unit cell:	Completed after 11 iterations at t[s]:   2946.11
	Linear fluid (dielectric constant: 78.4, screening length: 8.12261 Bohr) occupying 0.380396 of unit cell:	Completed after 2 iterations at t[s]:   2966.25
	FillingsUpdate:  mu: -0.244750000  nElectrons: 303.598974  magneticMoment: [ Abs: 0.00073  Tot: -0.00069 ]
	SubspaceRotationAdjust: set factor to 0.00612
ElecMinimize: Iter:  18  G: -1616.101022189434616  |grad|_K:  4.381e-08  alpha:  5.951e-01  linmin:  1.206e-03  t[s]:   3001.74
	Linear fluid (dielectric constant: 78.4, screening length: 8.12261 Bohr) occupying 0.380396 of unit cell:	Completed after 10 iterations at t[s]:   3029.83
	Linear fluid (dielectric constant: 78.4, screening length: 8.12261 Bohr) occupying 0.380396 of unit cell:	Completed after 10 iterations at t[s]:   3052.42
	FillingsUpdate:  mu: -0.244750000  nElectrons: 303.598752  magneticMoment: [ Abs: 0.00072  Tot: -0.00069 ]
	SubspaceRotationAdjust: set factor to 0.00476
ElecMinimize: Iter:  19  G: -1616.101022284578221  |grad|_K:  3.565e-08  alpha:  3.203e-01  linmin: -1.433e-04  t[s]:   3087.27
	Linear fluid (dielectric constant: 78.4, screening length: 8.12261 Bohr) occupying 0.380396 of unit cell:	Completed after 2 iterations at t[s]:   3112.34
	Linear fluid (dielectric constant: 78.4, screening length: 8.12261 Bohr) occupying 0.380396 of unit cell:	Completed after 2 iterations at t[s]:   3133.77
	FillingsUpdate:  mu: -0.244750000  nElectrons: 303.598814  magneticMoment: [ Abs: 0.00072  Tot: -0.00068 ]
	SubspaceRotationAdjust: set factor to 0.00589
ElecMinimize: Iter:  20  G: -1616.101022402135868  |grad|_K:  3.172e-08  alpha:  5.494e-01  linmin:  6.957e-04  t[s]:   3168.89
	Linear fluid (dielectric constant: 78.4, screening length: 8.12261 Bohr) occupying 0.380396 of unit cell:	Completed after 10 iterations at t[s]:   3196.90
	Linear fluid (dielectric constant: 78.4, screening length: 8.12261 Bohr) occupying 0.380396 of unit cell:	Completed after 4 iterations at t[s]:   3218.93
	FillingsUpdate:  mu: -0.244750000  nElectrons: 303.598961  magneticMoment: [ Abs: 0.00072  Tot: -0.00068 ]
	SubspaceRotationAdjust: set factor to 0.00537
ElecMinimize: Iter:  21  G: -1616.101022468161773  |grad|_K:  3.270e-08  alpha:  4.022e-01  linmin: -4.221e-04  t[s]:   3252.27
	Linear fluid (dielectric constant: 78.4, screening length: 8.12261 Bohr) occupying 0.380396 of unit cell:	Completed after 10 iterations at t[s]:   3279.37
	Linear fluid (dielectric constant: 78.4, screening length: 8.12261 Bohr) occupying 0.380396 of unit cell:	Completed after 3 iterations at t[s]:   3300.89
	FillingsUpdate:  mu: -0.244750000  nElectrons: 303.598786  magneticMoment: [ Abs: 0.00071  Tot: -0.00068 ]
	SubspaceRotationAdjust: set factor to 0.00465
ElecMinimize: Iter:  22  G: -1616.101022521614823  |grad|_K:  2.484e-08  alpha:  2.959e-01  linmin:  1.181e-03  t[s]:   3336.37
ElecMinimize: Converged (|Delta G|<1.000000e-07 for 2 iters).
Setting wave functions to eigenvectors of Hamiltonian
Converging empty states (this may take a while): |deigs|: 1.285e-08

Computing DFT-D3 correction:
# coordination-number Pt 5.975 7.101 8.569 5.973 9.216 9.399 9.496 9.517 9.560 9.556 9.570 9.556 9.559 9.518 9.497 9.400 9.216 8.567 7.100
# diagonal-C6 Pt 336.87 336.87 336.87 336.87 336.87 336.87 336.87 336.87 336.87 336.87 336.87 336.87 336.87 336.87 336.87 336.87 336.87 336.87 336.87
EvdW_6 =   -0.179048
EvdW_8 =   -0.282291

# Ionic positions in cartesian coordinates:
ion Pt  -0.003926692430603   7.032141239428624  63.411682102372488 1
ion Pt   2.611481100703422   2.917827603794798  62.125738577241393 1
ion Pt   2.611811610242748  10.316745818352338  60.489827975278189 1
ion Pt   0.004230834131472   0.168935657060565  33.343935320514831 1
ion Pt  -0.007796520202028   6.055815957420515  58.457356493162912 1
ion Pt   2.606731112742020   1.788461960911439  56.914879473549995 1
ion Pt   2.605474841555986   9.069178568310431  55.152883532257022 1
ion Pt  -0.008185036569239   4.828905365254784  53.485759621190503 1
ion Pt   2.609775928011401   0.618931155901905  51.780042486852729 1
ion Pt   2.612660698373623   7.799514332130733  50.055253935181796 1
ion Pt  -0.000212007723415   3.601189240261239  48.378577727555573 1
ion Pt   0.003450324146042  10.805623507616616  46.701150914014207 1
ion Pt   2.621994638411015   6.583679107420350  44.976527103413851 1
ion Pt   0.008093131383833   2.372703107191996  43.270010997517673 1
ion Pt   0.010550376355686   9.536102527963159  41.603718764762363 1
ion Pt   2.625006137461582   5.412791321192524  39.842077197043722 1
ion Pt   0.008158815266982   1.146178824062711  38.300283820787101 1
ion Pt   0.004045430996275   8.287299743156996  36.266630423205662 1
ion Pt   2.620640277143182   4.283790962568279  34.631021534097883 1

# Forces in Cartesian coordinates:
force Pt  -0.000032853782111  -0.000555727534283  -0.000694382900859 1
force Pt  -0.000037028892917  -0.000663779044647  -0.002005517835899 1
force Pt  -0.000029898202245   0.000618470626734  -0.000006176876503 1
force Pt   0.000031518628955   0.000579998674714   0.000792161309804 1
force Pt   0.000049136781542   0.000375236920229   0.001897650474794 1
force Pt   0.000022829243119  -0.000038531661062   0.000223046034640 1
force Pt  -0.000033507080403  -0.000467830754702   0.000076953108164 1
force Pt  -0.000086319154667   0.000312229296826   0.001400620453199 1
force Pt  -0.000019428660109   0.000104936262641   0.000214467629128 1
force Pt   0.000048508767048  -0.000357926174155  -0.000150789835152 1
force Pt   0.000000525804810  -0.000013514434904  -0.000089888294663 1
force Pt  -0.000051194387785   0.000408957881364   0.000146206600801 1
force Pt   0.000021207145849  -0.000183846433765  -0.000235177565240 1
force Pt   0.000087342134122  -0.000213395627554  -0.001207031197397 1
force Pt   0.000033815610728   0.000333321917219  -0.000090634233665 1
force Pt  -0.000020757578723   0.000163153874034  -0.000238802753713 1
force Pt  -0.000051753265225  -0.000444167428601  -0.002153535319100 1
force Pt   0.000031732234458  -0.000554739538345  -0.000033194320422 1
force Pt   0.000036144883098   0.000592759099009   0.001945465667325 1

# Energy components:
   A_diel =        0.1552984052507037
   Eewald =    11605.6547123010823270
       EH =    13195.5981845794776746
     Eloc =   -26785.0490287449320022
      Enl =      -20.0503026543346330
     EvdW =       -0.4613387437237926
      Exc =     -540.5293339751015083
 Exc_core =      311.4362482200992872
       KE =      542.8106150256355704
  MuShift =        0.0314469440460226
-------------------------------------
     Etot =    -1690.4034986425006082
       TS =        0.0033267962643964
-------------------------------------
        F =    -1690.4068254387650541
      muN =      -74.3058029171501602
-------------------------------------
        G =    -1616.1010225216148228


Dumping 'jdft.fillings' ... done
Dumping 'jdft.wfns' ... done
Dumping 'jdft.fluidState' ... done
Dumping 'jdft.ionpos' ... done
Dumping 'jdft.lattice' ... done
Dumping 'jdft.eigenvals' ... done
Dumping 'jdft.eigStats' ... 
	eMin: -2.194974 at state 30 ( [ +0.000000 +0.400000 +0.000000 ] spin -1 )
	HOMO: -0.244778 at state 21 ( [ +0.363636 -0.400000 +0.000000 ] spin 1 )
	mu  : -0.244750
	LUMO: -0.244758 at state 37 ( [ +0.181818 +0.200000 +0.000000 ] spin -1 )
	eMax: +0.093898 at state 20 ( [ +0.363636 +0.400000 +0.000000 ] spin 1 )
	HOMO-LUMO gap: +0.000020
	Optical gap  : +0.000578 at state 43 ( [ +0.272727 +0.400000 +0.000000 ] spin -1 )
Dumping 'jdft.Ecomponents' ... done
IonicMinimize: Iter:   1  G: -1616.101022521614823  |grad|_K:  6.515e-04  alpha:  1.000e+00  linmin: -9.825e-01  t[s]:   3416.89

#--- Lowdin population analysis ---
# oxidation-state Pt +0.188 +0.083 -0.026 +0.186 +0.017 +0.008 +0.011 +0.006 +0.007 +0.004 +0.002 +0.006 +0.010 +0.009 +0.013 +0.010 +0.018 -0.027 +0.082
# magnetic-moments Pt -0.000 -0.000 -0.000 -0.000 -0.000 -0.000 -0.000 -0.000 -0.000 -0.000 -0.000 -0.000 -0.000 -0.000 -0.000 -0.000 -0.000 -0.000 -0.000


Computing DFT-D3 correction:
# coordination-number Pt 5.979 7.141 8.587 5.977 9.241 9.411 9.493 9.510 9.542 9.538 9.556 9.541 9.548 9.516 9.499 9.415 9.241 8.586 7.139
# diagonal-C6 Pt 336.87 336.87 336.87 336.87 336.87 336.87 336.87 336.87 336.87 336.87 336.87 336.87 336.87 336.87 336.87 336.87 336.87 336.87 336.87
EvdW_6 =   -0.179047
EvdW_8 =   -0.282292
Shifting auxilliary hamiltonian by 0.000042 to set nElectrons=303.598786

-------- Electronic minimization -----------
	Linear fluid (dielectric constant: 78.4, screening length: 8.12261 Bohr) occupying 0.380626 of unit cell:	Completed after 21 iterations at t[s]:   3450.44
	FillingsUpdate:  mu: -0.244750000  nElectrons: 303.598786  magneticMoment: [ Abs: 0.00058  Tot: -0.00054 ]
ElecMinimize: Iter:   0  G: -1616.100745091236831  |grad|_K:  2.519e-06  alpha:  1.000e+00
	Linear fluid (dielectric constant: 78.4, screening length: 8.12261 Bohr) occupying 0.380615 of unit cell:	Completed after 22 iterations at t[s]:   3519.73
	Linear fluid (dielectric constant: 78.4, screening length: 8.12261 Bohr) occupying 0.380623 of unit cell:	Completed after 22 iterations at t[s]:   3542.87
	FillingsUpdate:  mu: -0.244750000  nElectrons: 303.586332  magneticMoment: [ Abs: 0.00058  Tot: -0.00054 ]
	SubspaceRotationAdjust: set factor to 0.00324
ElecMinimize: Iter:   1  G: -1616.100986526458200  |grad|_K:  8.995e-07  alpha:  2.243e-01  linmin: -6.816e-04  t[s]:   3576.15
	Linear fluid (dielectric constant: 78.4, screening length: 8.12261 Bohr) occupying 0.380635 of unit cell:	Completed after 16 iterations at t[s]:   3605.09
	Linear fluid (dielectric constant: 78.4, screening length: 8.12261 Bohr) occupying 0.380643 of unit cell:	Completed after 14 iterations at t[s]:   3628.13
	FillingsUpdate:  mu: -0.244750000  nElectrons: 303.589551  magneticMoment: [ Abs: 0.00058  Tot: -0.00054 ]
	SubspaceRotationAdjust: set factor to 0.00377
ElecMinimize: Iter:   2  G: -1616.101038712407899  |grad|_K:  4.423e-07  alpha:  3.805e-01  linmin:  2.292e-04  t[s]:   3663.60
	Linear fluid (dielectric constant: 78.4, screening length: 8.12261 Bohr) occupying 0.380660 of unit cell:	Completed after 8 iterations at t[s]:   3690.92
	Linear fluid (dielectric constant: 78.4, screening length: 8.12261 Bohr) occupying 0.380668 of unit cell:	Completed after 7 iterations at t[s]:   3711.52
	FillingsUpdate:  mu: -0.244750000  nElectrons: 303.590142  magneticMoment: [ Abs: 0.00058  Tot: -0.00054 ]
	SubspaceRotationAdjust: set factor to 0.0048
ElecMinimize: Iter:   3  G: -1616.101056860987228  |grad|_K:  3.040e-07  alpha:  5.476e-01  linmin: -2.405e-04  t[s]:   3746.37
	Linear fluid (dielectric constant: 78.4, screening length: 8.12261 Bohr) occupying 0.380689 of unit cell:	Completed after 13 iterations at t[s]:   3774.70
	Linear fluid (dielectric constant: 78.4, screening length: 8.12261 Bohr) occupying 0.380692 of unit cell:	Completed after 5 iterations at t[s]:   3796.44
	FillingsUpdate:  mu: -0.244750000  nElectrons: 303.590410  magneticMoment: [ Abs: 0.00057  Tot: -0.00054 ]
	SubspaceRotationAdjust: set factor to 0.00576
ElecMinimize: Iter:   4  G: -1616.101066747763980  |grad|_K:  2.767e-07  alpha:  6.313e-01  linmin: -3.301e-05  t[s]:   3832.28
	Linear fluid (dielectric constant: 78.4, screening length: 8.12261 Bohr) occupying 0.380713 of unit cell:	Completed after 12 iterations at t[s]:   3858.53
	Linear fluid (dielectric constant: 78.4, screening length: 8.12261 Bohr) occupying 0.380713 of unit cell:	Completed after 2 iterations at t[s]:   3878.99
	FillingsUpdate:  mu: -0.244750000  nElectrons: 303.592765  magneticMoment: [ Abs: 0.00057  Tot: -0.00054 ]
	SubspaceRotationAdjust: set factor to 0.00627
ElecMinimize: Iter:   5  G: -1616.101075217433618  |grad|_K:  2.682e-07  alpha:  6.529e-01  linmin: -9.600e-05  t[s]:   3914.34
	Linear fluid (dielectric constant: 78.4, screening length: 8.12261 Bohr) occupying 0.380718 of unit cell:	Completed after 12 iterations at t[s]:   3942.82
	Linear fluid (dielectric constant: 78.4, screening length: 8.12261 Bohr) occupying 0.380717 of unit cell:	Completed after 10 iterations at t[s]:   3965.43
	FillingsUpdate:  mu: -0.244750000  nElectrons: 303.592666  magneticMoment: [ Abs: 0.00057  Tot: -0.00054 ]
	SubspaceRotationAdjust: set factor to 0.00561
ElecMinimize: Iter:   6  G: -1616.101082365396906  |grad|_K:  2.806e-07  alpha:  5.858e-01  linmin:  2.709e-04  t[s]:   3999.90
	Linear fluid (dielectric constant: 78.4, screening length: 8.12261 Bohr) occupying 0.380704 of unit cell:	Completed after 15 iterations at t[s]:   4026.63
	Linear fluid (dielectric constant: 78.4, screening length: 8.12261 Bohr) occupying 0.380708 of unit cell:	Completed after 12 iterations at t[s]:   4049.66
	FillingsUpdate:  mu: -0.244750000  nElectrons: 303.595608  magneticMoment: [ Abs: 0.00057  Tot: -0.00054 ]
	SubspaceRotationAdjust: set factor to 0.0048
ElecMinimize: Iter:   7  G: -1616.101087936702243  |grad|_K:  2.163e-07  alpha:  4.189e-01  linmin: -2.243e-05  t[s]:   4084.86
	Linear fluid (dielectric constant: 78.4, screening length: 8.12261 Bohr) occupying 0.380685 of unit cell:	Completed after 12 iterations at t[s]:   4113.24
	Linear fluid (dielectric constant: 78.4, screening length: 8.12261 Bohr) occupying 0.380676 of unit cell:	Completed after 11 iterations at t[s]:   4136.13
	FillingsUpdate:  mu: -0.244750000  nElectrons: 303.596417  magneticMoment: [ Abs: 0.00057  Tot: -0.00054 ]
	SubspaceRotationAdjust: set factor to 0.00463
ElecMinimize: Iter:   8  G: -1616.101092558829805  |grad|_K:  1.732e-07  alpha:  5.832e-01  linmin:  1.737e-04  t[s]:   4168.92
	Linear fluid (dielectric constant: 78.4, screening length: 8.12261 Bohr) occupying 0.380640 of unit cell:	Completed after 11 iterations at t[s]:   4196.85
	Linear fluid (dielectric constant: 78.4, screening length: 8.12261 Bohr) occupying 0.380640 of unit cell:	Completed after 0 iterations at t[s]:   4217.92
	FillingsUpdate:  mu: -0.244750000  nElectrons: 303.597863  magneticMoment: [ Abs: 0.00057  Tot: -0.00054 ]
	SubspaceRotationAdjust: set factor to 0.00516
ElecMinimize: Iter:   9  G: -1616.101095545600856  |grad|_K:  1.272e-07  alpha:  5.887e-01  linmin: -5.281e-05  t[s]:   4253.50
	Linear fluid (dielectric constant: 78.4, screening length: 8.12261 Bohr) occupying 0.380612 of unit cell:	Completed after 6 iterations at t[s]:   4281.46
	Linear fluid (dielectric constant: 78.4, screening length: 8.12261 Bohr) occupying 0.380611 of unit cell:	Completed after 0 iterations at t[s]:   4301.61
	FillingsUpdate:  mu: -0.244750000  nElectrons: 303.598448  magneticMoment: [ Abs: 0.00057  Tot: -0.00054 ]
	SubspaceRotationAdjust: set factor to 0.00619
ElecMinimize: Iter:  10  G: -1616.101097239292812  |grad|_K:  1.035e-07  alpha:  6.176e-01  linmin: -2.709e-04  t[s]:   4334.99
	Linear fluid (dielectric constant: 78.4, screening length: 8.12261 Bohr) occupying 0.380591 of unit cell:	Completed after 6 iterations at t[s]:   4362.61
	Linear fluid (dielectric constant: 78.4, screening length: 8.12261 Bohr) occupying 0.380588 of unit cell:	Completed after 2 iterations at t[s]:   4384.08
	FillingsUpdate:  mu: -0.244750000  nElectrons: 303.598879  magneticMoment: [ Abs: 0.00057  Tot: -0.00054 ]
	SubspaceRotationAdjust: set factor to 0.00779
ElecMinimize: Iter:  11  G: -1616.101098534738867  |grad|_K:  1.013e-07  alpha:  7.124e-01  linmin: -3.045e-04  t[s]:   4419.51
	Linear fluid (dielectric constant: 78.4, screening length: 8.12261 Bohr) occupying 0.380571 of unit cell:	Completed after 11 iterations at t[s]:   4447.31
	Linear fluid (dielectric constant: 78.4, screening length: 8.12261 Bohr) occupying 0.380571 of unit cell:	Completed after 0 iterations at t[s]:   4466.88
	FillingsUpdate:  mu: -0.244750000  nElectrons: 303.599542  magneticMoment: [ Abs: 0.00057  Tot: -0.00053 ]
	SubspaceRotationAdjust: set factor to 0.00874
ElecMinimize: Iter:  12  G: -1616.101099791529577  |grad|_K:  1.243e-07  alpha:  7.214e-01  linmin:  5.427e-05  t[s]:   4501.52
	Linear fluid (dielectric constant: 78.4, screening length: 8.12261 Bohr) occupying 0.380554 of unit cell:	Completed after 13 iterations at t[s]:   4529.82
	Linear fluid (dielectric constant: 78.4, screening length: 8.12261 Bohr) occupying 0.380559 of unit cell:	Completed after 9 iterations at t[s]:   4552.18
	FillingsUpdate:  mu: -0.244750000  nElectrons: 303.598502  magneticMoment: [ Abs: 0.00056  Tot: -0.00053 ]
	SubspaceRotationAdjust: set factor to 0.00794
ElecMinimize: Iter:  13  G: -1616.101101155762990  |grad|_K:  1.669e-07  alpha:  5.200e-01  linmin:  1.152e-04  t[s]:   4588.13
	Linear fluid (dielectric constant: 78.4, screening length: 8.12261 Bohr) occupying 0.380550 of unit cell:	Completed after 12 iterations at t[s]:   4614.56
	Linear fluid (dielectric constant: 78.4, screening length: 8.12261 Bohr) occupying 0.380550 of unit cell:	Completed after 7 iterations at t[s]:   4635.66
	FillingsUpdate:  mu: -0.244750000  nElectrons: 303.599107  magneticMoment: [ Abs: 0.00056  Tot: -0.00053 ]
	SubspaceRotationAdjust: set factor to 0.00692
ElecMinimize: Iter:  14  G: -1616.101103392204323  |grad|_K:  1.702e-07  alpha:  4.751e-01  linmin:  7.252e-05  t[s]:   4670.97
	Linear fluid (dielectric constant: 78.4, screening length: 8.12261 Bohr) occupying 0.380553 of unit cell:	Completed after 11 iterations at t[s]:   4699.27
	Linear fluid (dielectric constant: 78.4, screening length: 8.12261 Bohr) occupying 0.380555 of unit cell:	Completed after 10 iterations at t[s]:   4722.00
	FillingsUpdate:  mu: -0.244750000  nElectrons: 303.597438  magneticMoment: [ Abs: 0.00055  Tot: -0.00052 ]
	SubspaceRotationAdjust: set factor to 0.00664
ElecMinimize: Iter:  15  G: -1616.101107351226574  |grad|_K:  2.042e-07  alpha:  8.076e-01  linmin: -2.278e-05  t[s]:   4756.60
	Linear fluid (dielectric constant: 78.4, screening length: 8.12261 Bohr) occupying 0.380588 of unit cell:	Completed after 13 iterations at t[s]:   4783.08
	Linear fluid (dielectric constant: 78.4, screening length: 8.12261 Bohr) occupying 0.380585 of unit cell:	Completed after 10 iterations at t[s]:   4805.74
	FillingsUpdate:  mu: -0.244750000  nElectrons: 303.597196  magneticMoment: [ Abs: 0.00054  Tot: -0.00051 ]
	SubspaceRotationAdjust: set factor to 0.0061
ElecMinimize: Iter:  16  G: -1616.101112474852016  |grad|_K:  2.475e-07  alpha:  7.252e-01  linmin: -6.812e-05  t[s]:   4841.00
	Linear fluid (dielectric constant: 78.4, screening length: 8.12261 Bohr) occupying 0.380644 of unit cell:	Completed after 15 iterations at t[s]:   4869.76
	Linear fluid (dielectric constant: 78.4, screening length: 8.12261 Bohr) occupying 0.380623 of unit cell:	Completed after 13 iterations at t[s]:   4892.88
	FillingsUpdate:  mu: -0.244750000  nElectrons: 303.594399  magneticMoment: [ Abs: 0.00053  Tot: -0.00050 ]
	SubspaceRotationAdjust: set factor to 0.00509
ElecMinimize: Iter:  17  G: -1616.101117313294253  |grad|_K:  2.420e-07  alpha:  4.630e-01  linmin: -1.376e-05  t[s]:   4925.75
	Linear fluid (dielectric constant: 78.4, screening length: 8.12261 Bohr) occupying 0.380669 of unit cell:	Completed after 13 iterations at t[s]:   4953.04
	Linear fluid (dielectric constant: 78.4, screening length: 8.12261 Bohr) occupying 0.380676 of unit cell:	Completed after 9 iterations at t[s]:   4975.13
	FillingsUpdate:  mu: -0.244750000  nElectrons: 303.593977  magneticMoment: [ Abs: 0.00052  Tot: -0.00049 ]
	SubspaceRotationAdjust: set factor to 0.00495
ElecMinimize: Iter:  18  G: -1616.101122596517598  |grad|_K:  2.066e-07  alpha:  5.318e-01  linmin: -1.127e-04  t[s]:   5010.76
	Linear fluid (dielectric constant: 78.4, screening length: 8.12261 Bohr) occupying 0.380716 of unit cell:	Completed after 10 iterations at t[s]:   5037.90
	Linear fluid (dielectric constant: 78.4, screening length: 8.12261 Bohr) occupying 0.380722 of unit cell:	Completed after 2 iterations at t[s]:   5058.08
	FillingsUpdate:  mu: -0.244750000  nElectrons: 303.592717  magneticMoment: [ Abs: 0.00051  Tot: -0.00049 ]
	SubspaceRotationAdjust: set factor to 0.00591
ElecMinimize: Iter:  19  G: -1616.101127075329032  |grad|_K:  1.777e-07  alpha:  6.169e-01  linmin: -1.358e-05  t[s]:   5092.04
	Linear fluid (dielectric constant: 78.4, screening length: 8.12261 Bohr) occupying 0.380750 of unit cell:	Completed after 12 iterations at t[s]:   5119.32
	Linear fluid (dielectric constant: 78.4, screening length: 8.12261 Bohr) occupying 0.380750 of unit cell:	Completed after 0 iterations at t[s]:   5140.17
	FillingsUpdate:  mu: -0.244750000  nElectrons: 303.591775  magneticMoment: [ Abs: 0.00051  Tot: -0.00048 ]
	SubspaceRotationAdjust: set factor to 0.00683
ElecMinimize: Iter:  20  G: -1616.101130321700111  |grad|_K:  1.702e-07  alpha:  6.067e-01  linmin: -9.655e-06  t[s]:   5174.83
	Linear fluid (dielectric constant: 78.4, screening length: 8.12261 Bohr) occupying 0.380766 of unit cell:	Completed after 13 iterations at t[s]:   5203.40
	Linear fluid (dielectric constant: 78.4, screening length: 8.12261 Bohr) occupying 0.380762 of unit cell:	Completed after 10 iterations at t[s]:   5226.31
	FillingsUpdate:  mu: -0.244750000  nElectrons: 303.592671  magneticMoment: [ Abs: 0.00050  Tot: -0.00047 ]
	SubspaceRotationAdjust: set factor to 0.00682
ElecMinimize: Iter:  21  G: -1616.101132594500541  |grad|_K:  1.775e-07  alpha:  4.639e-01  linmin: -3.906e-05  t[s]:   5260.39
	Linear fluid (dielectric constant: 78.4, screening length: 8.12261 Bohr) occupying 0.380765 of unit cell:	Completed after 13 iterations at t[s]:   5287.46
	Linear fluid (dielectric constant: 78.4, screening length: 8.12261 Bohr) occupying 0.380765 of unit cell:	Completed after 2 iterations at t[s]:   5308.27
	FillingsUpdate:  mu: -0.244750000  nElectrons: 303.591946  magneticMoment: [ Abs: 0.00049  Tot: -0.00047 ]
	SubspaceRotationAdjust: set factor to 0.00676
ElecMinimize: Iter:  22  G: -1616.101134992808284  |grad|_K:  1.621e-07  alpha:  4.488e-01  linmin:  1.675e-04  t[s]:   5342.99
	Linear fluid (dielectric constant: 78.4, screening length: 8.12261 Bohr) occupying 0.380761 of unit cell:	Completed after 10 iterations at t[s]:   5370.61
	Linear fluid (dielectric constant: 78.4, screening length: 8.12261 Bohr) occupying 0.380759 of unit cell:	Completed after 9 iterations at t[s]:   5393.16
	FillingsUpdate:  mu: -0.244750000  nElectrons: 303.593029  magneticMoment: [ Abs: 0.00049  Tot: -0.00046 ]
	SubspaceRotationAdjust: set factor to 0.00749
ElecMinimize: Iter:  23  G: -1616.101137812232082  |grad|_K:  1.490e-07  alpha:  6.358e-01  linmin: -1.455e-04  t[s]:   5428.91
	Linear fluid (dielectric constant: 78.4, screening length: 8.12261 Bohr) occupying 0.380744 of unit cell:	Completed after 9 iterations at t[s]:   5455.77
	Linear fluid (dielectric constant: 78.4, screening length: 8.12261 Bohr) occupying 0.380742 of unit cell:	Completed after 2 iterations at t[s]:   5475.83
	FillingsUpdate:  mu: -0.244750000  nElectrons: 303.593694  magneticMoment: [ Abs: 0.00048  Tot: -0.00045 ]
	SubspaceRotationAdjust: set factor to 0.00813
ElecMinimize: Iter:  24  G: -1616.101140526706558  |grad|_K:  1.420e-07  alpha:  7.184e-01  linmin: -1.853e-05  t[s]:   5510.38
	Linear fluid (dielectric constant: 78.4, screening length: 8.12261 Bohr) occupying 0.380720 of unit cell:	Completed after 11 iterations at t[s]:   5538.67
	Linear fluid (dielectric constant: 78.4, screening length: 8.12261 Bohr) occupying 0.380723 of unit cell:	Completed after 2 iterations at t[s]:   5560.47
	FillingsUpdate:  mu: -0.244750000  nElectrons: 303.594464  magneticMoment: [ Abs: 0.00047  Tot: -0.00044 ]
	SubspaceRotationAdjust: set factor to 0.00884
ElecMinimize: Iter:  25  G: -1616.101142638310193  |grad|_K:  1.211e-07  alpha:  6.181e-01  linmin:  3.710e-05  t[s]:   5594.24
	Linear fluid (dielectric constant: 78.4, screening length: 8.12261 Bohr) occupying 0.380707 of unit cell:	Completed after 12 iterations at t[s]:   5621.46
	Linear fluid (dielectric constant: 78.4, screening length: 8.12261 Bohr) occupying 0.380707 of unit cell:	Completed after 0 iterations at t[s]:   5641.84
	FillingsUpdate:  mu: -0.244750000  nElectrons: 303.594707  magneticMoment: [ Abs: 0.00046  Tot: -0.00044 ]
	SubspaceRotationAdjust: set factor to 0.0096
ElecMinimize: Iter:  26  G: -1616.101144106973834  |grad|_K:  1.019e-07  alpha:  5.910e-01  linmin:  2.134e-04  t[s]:   5676.68
	Linear fluid (dielectric constant: 78.4, screening length: 8.12261 Bohr) occupying 0.380698 of unit cell:	Completed after 12 iterations at t[s]:   5704.35
	Linear fluid (dielectric constant: 78.4, screening length: 8.12261 Bohr) occupying 0.380700 of unit cell:	Completed after 10 iterations at t[s]:   5727.04
	FillingsUpdate:  mu: -0.244750000  nElectrons: 303.595422  magneticMoment: [ Abs: 0.00046  Tot: -0.00044 ]
	SubspaceRotationAdjust: set factor to 0.00877
ElecMinimize: Iter:  27  G: -1616.101144866651794  |grad|_K:  1.066e-07  alpha:  4.351e-01  linmin: -3.798e-05  t[s]:   5761.81
	Linear fluid (dielectric constant: 78.4, screening length: 8.12261 Bohr) occupying 0.380693 of unit cell:	Completed after 12 iterations at t[s]:   5790.27
	Linear fluid (dielectric constant: 78.4, screening length: 8.12261 Bohr) occupying 0.380696 of unit cell:	Completed after 10 iterations at t[s]:   5813.11
	FillingsUpdate:  mu: -0.244750000  nElectrons: 303.594855  magneticMoment: [ Abs: 0.00046  Tot: -0.00043 ]
	SubspaceRotationAdjust: set factor to 0.00699
ElecMinimize: Iter:  28  G: -1616.101145338221613  |grad|_K:  7.912e-08  alpha:  2.441e-01  linmin:  4.087e-05  t[s]:   5846.51
	Linear fluid (dielectric constant: 78.4, screening length: 8.12261 Bohr) occupying 0.380696 of unit cell:	Completed after 6 iterations at t[s]:   5872.89
	Linear fluid (dielectric constant: 78.4, screening length: 8.12261 Bohr) occupying 0.380696 of unit cell:	Completed after 7 iterations at t[s]:   5894.22
	FillingsUpdate:  mu: -0.244750000  nElectrons: 303.594979  magneticMoment: [ Abs: 0.00046  Tot: -0.00043 ]
	SubspaceRotationAdjust: set factor to 0.0088
ElecMinimize: Iter:  29  G: -1616.101145875891234  |grad|_K:  6.129e-08  alpha:  5.099e-01  linmin:  3.542e-04  t[s]:   5929.17
	Linear fluid (dielectric constant: 78.4, screening length: 8.12261 Bohr) occupying 0.380699 of unit cell:	Completed after 7 iterations at t[s]:   5956.14
	Linear fluid (dielectric constant: 78.4, screening length: 8.12261 Bohr) occupying 0.380699 of unit cell:	Completed after 2 iterations at t[s]:   5977.71
	FillingsUpdate:  mu: -0.244750000  nElectrons: 303.594941  magneticMoment: [ Abs: 0.00045  Tot: -0.00043 ]
	SubspaceRotationAdjust: set factor to 0.0106
ElecMinimize: Iter:  30  G: -1616.101146271121479  |grad|_K:  5.791e-08  alpha:  6.249e-01  linmin: -8.845e-05  t[s]:   6012.30
	Linear fluid (dielectric constant: 78.4, screening length: 8.12261 Bohr) occupying 0.380706 of unit cell:	Completed after 11 iterations at t[s]:   6040.33
	Linear fluid (dielectric constant: 78.4, screening length: 8.12261 Bohr) occupying 0.380705 of unit cell:	Completed after 5 iterations at t[s]:   6061.69
	FillingsUpdate:  mu: -0.244750000  nElectrons: 303.594352  magneticMoment: [ Abs: 0.00045  Tot: -0.00043 ]
	SubspaceRotationAdjust: set factor to 0.00913
ElecMinimize: Iter:  31  G: -1616.101146574759696  |grad|_K:  7.305e-08  alpha:  5.303e-01  linmin:  4.115e-04  t[s]:   6097.34
	Linear fluid (dielectric constant: 78.4, screening length: 8.12261 Bohr) occupying 0.380716 of unit cell:	Completed after 11 iterations at t[s]:   6125.17
	Linear fluid (dielectric constant: 78.4, screening length: 8.12261 Bohr) occupying 0.380710 of unit cell:	Completed after 10 iterations at t[s]:   6146.08
	FillingsUpdate:  mu: -0.244750000  nElectrons: 303.594565  magneticMoment: [ Abs: 0.00045  Tot: -0.00043 ]
	SubspaceRotationAdjust: set factor to 0.00738
ElecMinimize: Iter:  32  G: -1616.101146795314207  |grad|_K:  6.121e-08  alpha:  2.495e-01  linmin:  2.308e-05  t[s]:   6181.07
	Linear fluid (dielectric constant: 78.4, screening length: 8.12261 Bohr) occupying 0.380714 of unit cell:	Completed after 7 iterations at t[s]:   6208.90
	Linear fluid (dielectric constant: 78.4, screening length: 8.12261 Bohr) occupying 0.380719 of unit cell:	Completed after 9 iterations at t[s]:   6231.07
	FillingsUpdate:  mu: -0.244750000  nElectrons: 303.594045  magneticMoment: [ Abs: 0.00045  Tot: -0.00042 ]
	SubspaceRotationAdjust: set factor to 0.00868
ElecMinimize: Iter:  33  G: -1616.101147142402851  |grad|_K:  5.342e-08  alpha:  5.488e-01  linmin:  1.216e-04  t[s]:   6263.80
	Linear fluid (dielectric constant: 78.4, screening length: 8.12261 Bohr) occupying 0.380725 of unit cell:	Completed after 9 iterations at t[s]:   6290.72
	Linear fluid (dielectric constant: 78.4, screening length: 8.12261 Bohr) occupying 0.380726 of unit cell:	Completed after 0 iterations at t[s]:   6311.30
	FillingsUpdate:  mu: -0.244750000  nElectrons: 303.593522  magneticMoment: [ Abs: 0.00044  Tot: -0.00042 ]
	SubspaceRotationAdjust: set factor to 0.00924
ElecMinimize: Iter:  34  G: -1616.101147443414220  |grad|_K:  5.424e-08  alpha:  6.237e-01  linmin: -6.223e-04  t[s]:   6346.92
	Linear fluid (dielectric constant: 78.4, screening length: 8.12261 Bohr) occupying 0.380733 of unit cell:	Completed after 9 iterations at t[s]:   6374.12
	Linear fluid (dielectric constant: 78.4, screening length: 8.12261 Bohr) occupying 0.380730 of unit cell:	Completed after 10 iterations at t[s]:   6396.69
	FillingsUpdate:  mu: -0.244750000  nElectrons: 303.593691  magneticMoment: [ Abs: 0.00044  Tot: -0.00042 ]
	SubspaceRotationAdjust: set factor to 0.008
ElecMinimize: Iter:  35  G: -1616.101147640700447  |grad|_K:  5.934e-08  alpha:  3.852e-01  linmin:  1.392e-04  t[s]:   6432.42
	Linear fluid (dielectric constant: 78.4, screening length: 8.12261 Bohr) occupying 0.380734 of unit cell:	Completed after 11 iterations at t[s]:   6458.53
	Linear fluid (dielectric constant: 78.4, screening length: 8.12261 Bohr) occupying 0.380733 of unit cell:	Completed after 3 iterations at t[s]:   6479.30
	FillingsUpdate:  mu: -0.244750000  nElectrons: 303.593280  magneticMoment: [ Abs: 0.00044  Tot: -0.00042 ]
	SubspaceRotationAdjust: set factor to 0.00692
ElecMinimize: Iter:  36  G: -1616.101147836864357  |grad|_K:  4.561e-08  alpha:  3.294e-01  linmin:  7.110e-04  t[s]:   6513.31
	Linear fluid (dielectric constant: 78.4, screening length: 8.12261 Bohr) occupying 0.380734 of unit cell:	Completed after 7 iterations at t[s]:   6541.14
	Linear fluid (dielectric constant: 78.4, screening length: 8.12261 Bohr) occupying 0.380735 of unit cell:	Completed after 2 iterations at t[s]:   6561.97
	FillingsUpdate:  mu: -0.244750000  nElectrons: 303.593435  magneticMoment: [ Abs: 0.00044  Tot: -0.00041 ]
	SubspaceRotationAdjust: set factor to 0.00799
ElecMinimize: Iter:  37  G: -1616.101148022288953  |grad|_K:  3.604e-08  alpha:  5.239e-01  linmin: -2.510e-03  t[s]:   6597.68
	Linear fluid (dielectric constant: 78.4, screening length: 8.12261 Bohr) occupying 0.380734 of unit cell:	Completed after 2 iterations at t[s]:   6624.09
	Linear fluid (dielectric constant: 78.4, screening length: 8.12261 Bohr) occupying 0.380734 of unit cell:	Completed after 2 iterations at t[s]:   6645.53
	FillingsUpdate:  mu: -0.244750000  nElectrons: 303.593522  magneticMoment: [ Abs: 0.00044  Tot: -0.00041 ]
	SubspaceRotationAdjust: set factor to 0.00965
ElecMinimize: Iter:  38  G: -1616.101148168885175  |grad|_K:  3.412e-08  alpha:  6.399e-01  linmin: -6.743e-05  t[s]:   6681.31
	Linear fluid (dielectric constant: 78.4, screening length: 8.12261 Bohr) occupying 0.380730 of unit cell:	Completed after 7 iterations at t[s]:   6707.01
	Linear fluid (dielectric constant: 78.4, screening length: 8.12261 Bohr) occupying 0.380731 of unit cell:	Completed after 0 iterations at t[s]:   6727.28
	FillingsUpdate:  mu: -0.244750000  nElectrons: 303.593592  magneticMoment: [ Abs: 0.00043  Tot: -0.00041 ]
	SubspaceRotationAdjust: set factor to 0.0104
ElecMinimize: Iter:  39  G: -1616.101148281583619  |grad|_K:  3.507e-08  alpha:  5.710e-01  linmin:  2.563e-04  t[s]:   6761.70
	Linear fluid (dielectric constant: 78.4, screening length: 8.12261 Bohr) occupying 0.380725 of unit cell:	Completed after 11 iterations at t[s]:   6790.08
	Linear fluid (dielectric constant: 78.4, screening length: 8.12261 Bohr) occupying 0.380728 of unit cell:	Completed after 9 iterations at t[s]:   6811.91
	FillingsUpdate:  mu: -0.244750000  nElectrons: 303.593955  magneticMoment: [ Abs: 0.00043  Tot: -0.00041 ]
	SubspaceRotationAdjust: set factor to 0.00863
ElecMinimize: Iter:  40  G: -1616.101148342630268  |grad|_K:  3.498e-08  alpha:  2.939e-01  linmin:  8.820e-05  t[s]:   6847.66
	Linear fluid (dielectric constant: 78.4, screening length: 8.12261 Bohr) occupying 0.380723 of unit cell:	Completed after 8 iterations at t[s]:   6875.92
	Linear fluid (dielectric constant: 78.4, screening length: 8.12261 Bohr) occupying 0.380722 of unit cell:	Completed after 2 iterations at t[s]:   6896.27
	FillingsUpdate:  mu: -0.244750000  nElectrons: 303.594021  magneticMoment: [ Abs: 0.00043  Tot: -0.00041 ]
	SubspaceRotationAdjust: set factor to 0.00894
ElecMinimize: Iter:  41  G: -1616.101148418985986  |grad|_K:  2.586e-08  alpha:  3.723e-01  linmin: -2.733e-04  t[s]:   6930.16
ElecMinimize: Converged (|Delta G|<1.000000e-07 for 2 iters).
Setting wave functions to eigenvectors of Hamiltonian
Converging empty states (this may take a while): |deigs|: 1.350e-07

Computing DFT-D3 correction:
# coordination-number Pt 5.979 7.141 8.587 5.977 9.241 9.411 9.493 9.510 9.542 9.538 9.556 9.541 9.548 9.516 9.499 9.415 9.241 8.586 7.139
# diagonal-C6 Pt 336.87 336.87 336.87 336.87 336.87 336.87 336.87 336.87 336.87 336.87 336.87 336.87 336.87 336.87 336.87 336.87 336.87 336.87 336.87
EvdW_6 =   -0.179047
[...]
	FillingsUpdate:  mu: -0.244750000  nElectrons: 303.592329  magneticMoment: [ Abs: 0.00022  Tot: -0.00020 ]
	SubspaceRotationAdjust: set factor to 0.00535
ElecMinimize: Iter:  12  G: -1616.101175705739934  |grad|_K:  3.381e-08  alpha:  5.264e-01  linmin:  2.128e-03  t[s]:  11547.66
	Linear fluid (dielectric constant: 78.4, screening length: 8.12261 Bohr) occupying 0.380990 of unit cell:	Completed after 3 iterations at t[s]:  11574.72
	Linear fluid (dielectric constant: 78.4, screening length: 8.12261 Bohr) occupying 0.380991 of unit cell:	Completed after 3 iterations at t[s]:  11595.92
	FillingsUpdate:  mu: -0.244750000  nElectrons: 303.592350  magneticMoment: [ Abs: 0.00021  Tot: -0.00020 ]
	SubspaceRotationAdjust: set factor to 0.00642
ElecMinimize: Iter:  13  G: -1616.101175828834130  |grad|_K:  3.221e-08  alpha:  6.507e-01  linmin:  2.485e-04  t[s]:  11631.45
	Linear fluid (dielectric constant: 78.4, screening length: 8.12261 Bohr) occupying 0.380992 of unit cell:	Completed after 10 iterations at t[s]:  11659.51
	Linear fluid (dielectric constant: 78.4, screening length: 8.12261 Bohr) occupying 0.380992 of unit cell:	Completed after 0 iterations at t[s]:  11679.06
	FillingsUpdate:  mu: -0.244750000  nElectrons: 303.592146  magneticMoment: [ Abs: 0.00025  Tot: -0.00019 ]
	SubspaceRotationAdjust: set factor to 0.0071
ElecMinimize: Iter:  14  G: -1616.101175944089618  |grad|_K:  3.740e-08  alpha:  6.574e-01  linmin: -5.719e-04  t[s]:  11712.88
	Linear fluid (dielectric constant: 78.4, screening length: 8.12261 Bohr) occupying 0.380994 of unit cell:	Completed after 10 iterations at t[s]:  11739.88
	Linear fluid (dielectric constant: 78.4, screening length: 8.12261 Bohr) occupying 0.380994 of unit cell:	Completed after 0 iterations at t[s]:  11761.10
	FillingsUpdate:  mu: -0.244750000  nElectrons: 303.592188  magneticMoment: [ Abs: 0.00026  Tot: -0.00018 ]
	SubspaceRotationAdjust: set factor to 0.00729
ElecMinimize: Iter:  15  G: -1616.101176102878526  |grad|_K:  4.485e-08  alpha:  6.631e-01  linmin: -4.284e-04  t[s]:  11795.65
	Linear fluid (dielectric constant: 78.4, screening length: 8.12261 Bohr) occupying 0.380997 of unit cell:	Completed after 10 iterations at t[s]:  11823.73
	Linear fluid (dielectric constant: 78.4, screening length: 8.12261 Bohr) occupying 0.380997 of unit cell:	Completed after 0 iterations at t[s]:  11845.13
	FillingsUpdate:  mu: -0.244750000  nElectrons: 303.591691  magneticMoment: [ Abs: 0.00026  Tot: -0.00016 ]
	SubspaceRotationAdjust: set factor to 0.0071
ElecMinimize: Iter:  16  G: -1616.101176355100733  |grad|_K:  5.617e-08  alpha:  7.315e-01  linmin: -5.011e-04  t[s]:  11879.21
	Linear fluid (dielectric constant: 78.4, screening length: 8.12261 Bohr) occupying 0.381002 of unit cell:	Completed after 11 iterations at t[s]:  11906.01
	Linear fluid (dielectric constant: 78.4, screening length: 8.12261 Bohr) occupying 0.381002 of unit cell:	Completed after 2 iterations at t[s]:  11926.63
	FillingsUpdate:  mu: -0.244750000  nElectrons: 303.591693  magneticMoment: [ Abs: 0.00020  Tot: -0.00014 ]
	SubspaceRotationAdjust: set factor to 0.00661
ElecMinimize: Iter:  17  G: -1616.101176716225837  |grad|_K:  6.745e-08  alpha:  6.646e-01  linmin:  2.748e-04  t[s]:  11961.36
	Linear fluid (dielectric constant: 78.4, screening length: 8.12261 Bohr) occupying 0.381008 of unit cell:	Completed after 12 iterations at t[s]:  11988.92
	Linear fluid (dielectric constant: 78.4, screening length: 8.12261 Bohr) occupying 0.381007 of unit cell:	Completed after 2 iterations at t[s]:  12010.40
	FillingsUpdate:  mu: -0.244750000  nElectrons: 303.591022  magneticMoment: [ Abs: 0.00017  Tot: -0.00011 ]
	SubspaceRotationAdjust: set factor to 0.00587
ElecMinimize: Iter:  18  G: -1616.101177159606323  |grad|_K:  7.799e-08  alpha:  5.822e-01  linmin:  1.627e-04  t[s]:  12046.20
	Linear fluid (dielectric constant: 78.4, screening length: 8.12261 Bohr) occupying 0.381014 of unit cell:	Completed after 11 iterations at t[s]:  12073.14
	Linear fluid (dielectric constant: 78.4, screening length: 8.12261 Bohr) occupying 0.381013 of unit cell:	Completed after 7 iterations at t[s]:  12093.88
	FillingsUpdate:  mu: -0.244750000  nElectrons: 303.591188  magneticMoment: [ Abs: 0.00022  Tot: -0.00007 ]
	SubspaceRotationAdjust: set factor to 0.00509
ElecMinimize: Iter:  19  G: -1616.101177634284113  |grad|_K:  7.718e-08  alpha:  4.680e-01  linmin: -1.845e-04  t[s]:  12128.28
	Linear fluid (dielectric constant: 78.4, screening length: 8.12261 Bohr) occupying 0.381016 of unit cell:	Completed after 10 iterations at t[s]:  12155.65
	Linear fluid (dielectric constant: 78.4, screening length: 8.12261 Bohr) occupying 0.381017 of unit cell:	Completed after 2 iterations at t[s]:  12176.99
	FillingsUpdate:  mu: -0.244750000  nElectrons: 303.590719  magneticMoment: [ Abs: 0.00017  Tot: -0.00003 ]
	SubspaceRotationAdjust: set factor to 0.00535
ElecMinimize: Iter:  20  G: -1616.101178205651422  |grad|_K:  6.997e-08  alpha:  5.600e-01  linmin: -3.730e-04  t[s]:  12211.75
	Linear fluid (dielectric constant: 78.4, screening length: 8.12261 Bohr) occupying 0.381019 of unit cell:	Completed after 2 iterations at t[s]:  12238.96
	Linear fluid (dielectric constant: 78.4, screening length: 8.12261 Bohr) occupying 0.381020 of unit cell:	Completed after 2 iterations at t[s]:  12260.26
	FillingsUpdate:  mu: -0.244750000  nElectrons: 303.590591  magneticMoment: [ Abs: 0.00027  Tot: +0.00000 ]
	SubspaceRotationAdjust: set factor to 0.00606
ElecMinimize: Iter:  21  G: -1616.101178746929918  |grad|_K:  6.764e-08  alpha:  6.445e-01  linmin:  5.497e-05  t[s]:  12293.28
	Linear fluid (dielectric constant: 78.4, screening length: 8.12261 Bohr) occupying 0.381020 of unit cell:	Completed after 10 iterations at t[s]:  12320.30
	Linear fluid (dielectric constant: 78.4, screening length: 8.12261 Bohr) occupying 0.381020 of unit cell:	Completed after 2 iterations at t[s]:  12341.01
	FillingsUpdate:  mu: -0.244750000  nElectrons: 303.590848  magneticMoment: [ Abs: 0.00017  Tot: +0.00003 ]
	SubspaceRotationAdjust: set factor to 0.00652
ElecMinimize: Iter:  22  G: -1616.101179168407953  |grad|_K:  6.665e-08  alpha:  5.423e-01  linmin:  3.903e-04  t[s]:  12376.57
	Linear fluid (dielectric constant: 78.4, screening length: 8.12261 Bohr) occupying 0.381017 of unit cell:	Completed after 11 iterations at t[s]:  12404.12
	Linear fluid (dielectric constant: 78.4, screening length: 8.12261 Bohr) occupying 0.381017 of unit cell:	Completed after 2 iterations at t[s]:  12425.59
	FillingsUpdate:  mu: -0.244750000  nElectrons: 303.590644  magneticMoment: [ Abs: 0.00021  Tot: +0.00005 ]
	SubspaceRotationAdjust: set factor to 0.00615
ElecMinimize: Iter:  23  G: -1616.101179497858084  |grad|_K:  6.654e-08  alpha:  4.468e-01  linmin:  2.135e-05  t[s]:  12461.28
	Linear fluid (dielectric constant: 78.4, screening length: 8.12261 Bohr) occupying 0.381015 of unit cell:	Completed after 11 iterations at t[s]:  12487.41
	Linear fluid (dielectric constant: 78.4, screening length: 8.12261 Bohr) occupying 0.381015 of unit cell:	Completed after 0 iterations at t[s]:  12508.02
	FillingsUpdate:  mu: -0.244750000  nElectrons: 303.591171  magneticMoment: [ Abs: 0.00018  Tot: +0.00007 ]
	SubspaceRotationAdjust: set factor to 0.00579
ElecMinimize: Iter:  24  G: -1616.101179807129711  |grad|_K:  5.715e-08  alpha:  4.136e-01  linmin: -4.337e-05  t[s]:  12542.27
	Linear fluid (dielectric constant: 78.4, screening length: 8.12261 Bohr) occupying 0.381012 of unit cell:	Completed after 6 iterations at t[s]:  12569.73
	Linear fluid (dielectric constant: 78.4, screening length: 8.12261 Bohr) occupying 0.381010 of unit cell:	Completed after 6 iterations at t[s]:  12591.44
	FillingsUpdate:  mu: -0.244750000  nElectrons: 303.591293  magneticMoment: [ Abs: 0.00024  Tot: +0.00010 ]
	SubspaceRotationAdjust: set factor to 0.00612
ElecMinimize: Iter:  25  G: -1616.101180117044350  |grad|_K:  4.955e-08  alpha:  5.586e-01  linmin: -4.852e-04  t[s]:  12627.05
	Linear fluid (dielectric constant: 78.4, screening length: 8.12261 Bohr) occupying 0.381006 of unit cell:	Completed after 7 iterations at t[s]:  12654.77
	Linear fluid (dielectric constant: 78.4, screening length: 8.12261 Bohr) occupying 0.381006 of unit cell:	Completed after 0 iterations at t[s]:  12674.31
	FillingsUpdate:  mu: -0.244750000  nElectrons: 303.591595  magneticMoment: [ Abs: 0.00022  Tot: +0.00011 ]
	SubspaceRotationAdjust: set factor to 0.00672
ElecMinimize: Iter:  26  G: -1616.101180349478682  |grad|_K:  4.365e-08  alpha:  5.505e-01  linmin: -3.741e-05  t[s]:  12708.05
	Linear fluid (dielectric constant: 78.4, screening length: 8.12261 Bohr) occupying 0.381002 of unit cell:	Completed after 2 iterations at t[s]:  12734.15
	Linear fluid (dielectric constant: 78.4, screening length: 8.12261 Bohr) occupying 0.381002 of unit cell:	Completed after 0 iterations at t[s]:  12755.68
	FillingsUpdate:  mu: -0.244750000  nElectrons: 303.591811  magneticMoment: [ Abs: 0.00021  Tot: +0.00012 ]
	SubspaceRotationAdjust: set factor to 0.00752
ElecMinimize: Iter:  27  G: -1616.101180524585516  |grad|_K:  3.681e-08  alpha:  5.427e-01  linmin: -1.841e-04  t[s]:  12790.30
	Linear fluid (dielectric constant: 78.4, screening length: 8.12261 Bohr) occupying 0.381000 of unit cell:	Completed after 5 iterations at t[s]:  12817.81
	Linear fluid (dielectric constant: 78.4, screening length: 8.12261 Bohr) occupying 0.381000 of unit cell:	Completed after 0 iterations at t[s]:  12839.18
	FillingsUpdate:  mu: -0.244750000  nElectrons: 303.591903  magneticMoment: [ Abs: 0.00023  Tot: +0.00013 ]
	SubspaceRotationAdjust: set factor to 0.00862
ElecMinimize: Iter:  28  G: -1616.101180645204295  |grad|_K:  3.132e-08  alpha:  5.221e-01  linmin: -3.746e-04  t[s]:  12873.04
	Linear fluid (dielectric constant: 78.4, screening length: 8.12261 Bohr) occupying 0.380998 of unit cell:	Completed after 7 iterations at t[s]:  12899.21
	Linear fluid (dielectric constant: 78.4, screening length: 8.12261 Bohr) occupying 0.380998 of unit cell:	Completed after 0 iterations at t[s]:  12919.45
	FillingsUpdate:  mu: -0.244750000  nElectrons: 303.592028  magneticMoment: [ Abs: 0.00022  Tot: +0.00014 ]
	SubspaceRotationAdjust: set factor to 0.00994
ElecMinimize: Iter:  29  G: -1616.101180737328377  |grad|_K:  2.970e-08  alpha:  5.497e-01  linmin: -1.905e-04  t[s]:  12954.21
	Linear fluid (dielectric constant: 78.4, screening length: 8.12261 Bohr) occupying 0.380997 of unit cell:	Completed after 9 iterations at t[s]:  12981.74
	Linear fluid (dielectric constant: 78.4, screening length: 8.12261 Bohr) occupying 0.380997 of unit cell:	Completed after 0 iterations at t[s]:  13002.65
	FillingsUpdate:  mu: -0.244750000  nElectrons: 303.591890  magneticMoment: [ Abs: 0.00023  Tot: +0.00015 ]
	SubspaceRotationAdjust: set factor to 0.00978
ElecMinimize: Iter:  30  G: -1616.101180810142978  |grad|_K:  3.457e-08  alpha:  4.832e-01  linmin:  8.905e-04  t[s]:  13038.36
ElecMinimize: Converged (|Delta G|<1.000000e-07 for 2 iters).
Setting wave functions to eigenvectors of Hamiltonian
Converging empty states (this may take a while): |deigs|: 1.950e-07

Computing DFT-D3 correction:
# coordination-number Pt 5.974 7.172 8.600 5.972 9.267 9.425 9.505 9.515 9.538 9.529 9.551 9.532 9.542 9.521 9.512 9.432 9.270 8.602 7.175
# diagonal-C6 Pt 336.87 336.87 336.87 336.87 336.87 336.87 336.87 336.87 336.87 336.87 336.87 336.87 336.87 336.87 336.87 336.87 336.87 336.87 336.87
EvdW_6 =   -0.179116
EvdW_8 =   -0.282418

# Ionic positions in cartesian coordinates:
ion Pt  -0.004802784950939   7.019183290379547  63.409170345158188 1
ion Pt   2.610233300125859   2.910235214163973  62.089606990560128 1
ion Pt   2.610877590358292  10.317121925436995  60.486293049797041 1
ion Pt   0.005104980988316   0.181951833740464  33.348792100771298 1
ion Pt  -0.007091868401796   6.064790255383063  58.477144590846841 1
ion Pt   2.607080066003385   1.786003029205326  56.910729829860138 1
ion Pt   2.604565946336527   9.063704654372009  55.154555939807608 1
ion Pt  -0.010036616506446   4.832535253152671  53.507944040656575 1
ion Pt   2.609006006827916   0.621191216096656  51.782129517974717 1
ion Pt   2.613104326970483   7.792464194074156  50.053711533001533 1
ion Pt  -0.000216364890342   3.601266820494963  48.377104258234667 1
ion Pt   0.002971646760196  10.812384932782091  46.699912812010460 1
ion Pt   2.622782539284002   6.581471769462254  44.972379790410443 1
ion Pt   0.009980120875384   2.369246579287330  43.246636827493987 1
ion Pt   0.011482499414065   9.541446100111086  41.601713425516287 1
ion Pt   2.624726516820771   5.415241429596530  39.846383450969014 1
ion Pt   0.007414451821540   1.137301956172442  38.281319838558069 1
ion Pt   0.004987163341898   8.286199628095696  36.272238902146398 1
ion Pt   2.621815478820870   4.292075917992749  34.669590756226498 1

# Forces in Cartesian coordinates:
force Pt  -0.000022171996932  -0.000029439367613   0.000240272484898 1
force Pt  -0.000019461990521   0.000066633135241   0.000180868583718 1
force Pt  -0.000018811790858  -0.000465373804446   0.000196374921925 1
force Pt   0.000020060038769   0.000015641300912  -0.000380750588074 1
force Pt  -0.000019709498726  -0.000054241962549  -0.000197770173226 1
force Pt  -0.000016336206744   0.000050644397627  -0.000043635689484 1
force Pt  -0.000006041055674   0.000014446944355  -0.000091506238440 1
force Pt  -0.000003552295366   0.000004157863101  -0.000304170083545 1
force Pt  -0.000014878592873  -0.000128358607551  -0.000048283114893 1
force Pt  -0.000021776315306   0.000182884869558   0.000061519859428 1
force Pt  -0.000000471114802  -0.000045550141732  -0.000063965732127 1
force Pt   0.000020485151999  -0.000062233903151   0.000061612201162 1
force Pt   0.000017015272619   0.000018098661401   0.000133897183724 1
force Pt   0.000006616896023   0.000083320201957   0.000661595137610 1
force Pt   0.000008563599700  -0.000154360967634   0.000131014803626 1
force Pt   0.000015265357548   0.000070578051264   0.000125365296948 1
force Pt   0.000019788313452  -0.000061809712042  -0.000130105303147 1
force Pt   0.000017599787606   0.000729033413679  -0.000380205673514 1
force Pt   0.000018850447096  -0.000304193177787  -0.000509128317881 1

# Energy components:
   A_diel =        0.1576291365214073
   Eewald =    11615.7838538752839668
       EH =    13205.8341013983554149
     Eloc =   -26805.4285100977067486
      Enl =      -20.0468573397927372
     EvdW =       -0.4615336688445631
      Exc =     -540.5382059034050144
 Exc_core =      311.4362472721106769
       KE =      542.8293488290187270
  MuShift =        0.0319874596083676
-------------------------------------
     Etot =    -1690.4019390388484680
       TS =        0.0033568598473888
-------------------------------------
        F =    -1690.4052958986958402
      muN =      -74.3041150885529049
-------------------------------------
        G =    -1616.1011808101429779


Dumping 'jdft.fillings' ... done
Dumping 'jdft.wfns' ... done
Dumping 'jdft.fluidState' ... done
Dumping 'jdft.ionpos' ... done
Dumping 'jdft.lattice' ... done
Dumping 'jdft.eigenvals' ... done
Dumping 'jdft.eigStats' ... 
	eMin: -2.195000 at state 2 ( [ +0.000000 +0.400000 +0.000000 ] spin 1 )
	HOMO: -0.244829 at state 21 ( [ +0.363636 -0.400000 +0.000000 ] spin 1 )
	mu  : -0.244750
	LUMO: -0.244843 at state 2 ( [ +0.000000 +0.400000 +0.000000 ] spin 1 )
	eMax: +0.094120 at state 20 ( [ +0.363636 +0.400000 +0.000000 ] spin 1 )
	HOMO-LUMO gap: -0.000014
	Optical gap  : +0.000405 at state 2 ( [ +0.000000 +0.400000 +0.000000 ] spin 1 )
Dumping 'jdft.Ecomponents' ... done
IonicMinimize: Iter:   4  G: -1616.101180810142978  |grad|_K:  2.002e-04  alpha:  1.000e+00  linmin:  5.508e-02  t[s]:  13134.83
IonicMinimize: Converged (|Delta G|<1.000000e-04 for 2 iters).

#--- Lowdin population analysis ---
# oxidation-state Pt +0.191 +0.081 -0.023 +0.196 +0.018 +0.010 +0.013 +0.007 +0.005 +0.004 -0.000 +0.006 +0.007 +0.007 +0.009 +0.005 +0.014 -0.022 +0.085
# magnetic-moments Pt -0.000 -0.000 +0.000 -0.000 +0.000 +0.000 +0.000 +0.000 +0.000 +0.000 +0.000 +0.000 +0.000 +0.000 +0.000 +0.000 -0.000 -0.000 -0.000


Dumping 'jdft.n_up' ... done
Dumping 'jdft.n_dn' ... done
Dumping 'jdft.tau_up' ... done
Dumping 'jdft.tau_dn' ... done
Dumping 'jdft.eigenvals' ... done
Dumping 'jdft.eigStats' ... 
	eMin: -2.195000 at state 2 ( [ +0.000000 +0.400000 +0.000000 ] spin 1 )
	HOMO: -0.244829 at state 21 ( [ +0.363636 -0.400000 +0.000000 ] spin 1 )
	mu  : -0.244750
	LUMO: -0.244843 at state 2 ( [ +0.000000 +0.400000 +0.000000 ] spin 1 )
	eMax: +0.094120 at state 20 ( [ +0.363636 +0.400000 +0.000000 ] spin 1 )
	HOMO-LUMO gap: -0.000014
	Optical gap  : +0.000405 at state 2 ( [ +0.000000 +0.400000 +0.000000 ] spin 1 )
Dumping 'jdft.kPts' ... done
Dumping 'jdft.kMap' ... done
Dumping 'jdft.dosUp' ... done.
Dumping 'jdft.dosDn' ... done.
End date and time: Fri Sep  9 11:32:31 2022  (Duration: 0-3:39:49.27)
Done!

PROFILER:             augmentDensityGrid     4.227665 +/-     0.102088 s,  302 calls,   1276.754901 s total
PROFILER:         augmentDensityGridGrad     0.248546 +/-     0.059437 s,  156 calls,     38.773242 s total
PROFILER:        augmentDensitySpherical     0.002179 +/-     0.000133 s,  604 calls,      1.316182 s total
PROFILER:    augmentDensitySphericalGrad     0.002416 +/-     0.000322 s,  335 calls,      0.809228 s total
PROFILER:                 augmentOverlap     1.384706 +/-     0.080248 s, 1238 calls,   1714.266177 s total
PROFILER:                     diagouterI     3.960268 +/-     0.161601 s,  610 calls,   2415.763723 s total
PROFILER:              EdensityAndVscloc     2.431982 +/-     0.751644 s,  302 calls,    734.458572 s total
PROFILER:                     EnlAndGrad     0.007570 +/-     0.000628 s,  637 calls,      4.821814 s total
PROFILER:            ExCorrCommunication     0.021184 +/-     0.102573 s, 1869 calls,     39.593076 s total
PROFILER:               ExCorrFunctional     0.004782 +/-     0.000638 s,  318 calls,      1.520668 s total
PROFILER:                    ExCorrTotal     0.177867 +/-     0.231072 s,  318 calls,     56.561733 s total
PROFILER:                   Idag_DiagV_I     7.718032 +/-     0.677600 s,  325 calls,   2508.360370 s total
PROFILER:                    initWeights     2.092744 +/-     0.000000 s,    1 calls,      2.092744 s total
PROFILER:                    inv(matrix)     0.004309 +/-     0.000474 s,  598 calls,      2.576754 s total
PROFILER:            matrix::diagonalize     0.013192 +/-     0.006183 s,  927 calls,     12.229304 s total
PROFILER:                    matrix::set     0.000008 +/-     0.000011 s, 18596 calls,      0.142194 s total
PROFILER:            orthoMatrix(matrix)     0.002192 +/-     0.001193 s,  613 calls,      1.343504 s total
PROFILER:     RadialFunctionR::transform     0.053953 +/-     0.380651 s,   55 calls,      2.967408 s total
PROFILER:                    reduceKmesh     0.000952 +/-     0.000000 s,    1 calls,      0.000952 s total
PROFILER:   VanDerWaalsD3::energyAndGrad     0.013393 +/-     0.000901 s,   11 calls,      0.147318 s total
PROFILER:               WavefunctionDrag    13.543344 +/-     2.501481 s,    5 calls,     67.716722 s total
PROFILER:                            Y*M     0.417096 +/-     0.142470 s, 4030 calls,   1680.895142 s total
PROFILER:                          Y1^Y2     0.461399 +/-     0.143895 s, 2556 calls,   1179.335568 s total

MEMUSAGE:                   ColumnBundle     0.487638 GB
MEMUSAGE:        complexScalarFieldTilde     0.009270 GB
MEMUSAGE:                    IndexArrays     0.013718 GB
MEMUSAGE:                         matrix     0.025940 GB
MEMUSAGE:                           misc     0.009328 GB
MEMUSAGE:                    ScalarField     0.067205 GB
MEMUSAGE:               ScalarFieldTilde     0.049026 GB
MEMUSAGE:                          Total     0.563891 GB
