
*************** JDFTx 1.7.0 (git hash 5f12716a) ***************

Start date and time: Fri Sep  9 08:26:23 2022
Executable /home/nisi6161/jdftx_alpine/build/jdftx with command-line: -i in
Running on hosts (process indices):  c3cpu-a2-u9-2.rc.int.colorado.edu (0-23)
Divided in process groups (process indices):  0 (0)  1 (1)  2 (2)  3 (3)  4 (4)  5 (5)  6 (6)  7 (7)  8 (8)  9 (9)  10 (10)  11 (11)  12 (12)  13 (13)  14 (14)  15 (15)  16 (16)  17 (17)  18 (18)  19 (19)  20 (20)  21 (21)  22 (22)  23 (23)
Resource initialization completed at t[s]:      0.00
Run totals: 24 processes, 64 threads, 0 GPUs


Input parsed successfully to the following command list (including defaults):

basis kpoint-dependent
converge-empty-states yes
coords-type Cartesian
core-overlap-check none
coulomb-interaction Periodic
davidson-band-ratio 1.1
density-of-states Etol 1.000000e-06 Esigma 1.000000e-03 \
		Complete \
	Total \
	OrthoOrbital Ag 1   s \
	OrthoOrbital Ag 1   p \
	OrthoOrbital Ag 1   px \
	OrthoOrbital Ag 1   py \
	OrthoOrbital Ag 1   pz \
	OrthoOrbital Ag 1   d \
	OrthoOrbital Ag 1   dxy \
	OrthoOrbital Ag 1   dyz \
	OrthoOrbital Ag 1   dz2 \
	OrthoOrbital Ag 1   dxz \
	OrthoOrbital Ag 1   dx2-y2 \
	OrthoOrbital Ag 2   s \
	OrthoOrbital Ag 2   p \
	OrthoOrbital Ag 2   px \
	OrthoOrbital Ag 2   py \
	OrthoOrbital Ag 2   pz \
	OrthoOrbital Ag 2   d \
	OrthoOrbital Ag 2   dxy \
	OrthoOrbital Ag 2   dyz \
	OrthoOrbital Ag 2   dz2 \
	OrthoOrbital Ag 2   dxz \
	OrthoOrbital Ag 2   dx2-y2 \
	OrthoOrbital Ag 3   s \
	OrthoOrbital Ag 3   p \
	OrthoOrbital Ag 3   px \
	OrthoOrbital Ag 3   py \
	OrthoOrbital Ag 3   pz \
	OrthoOrbital Ag 3   d \
	OrthoOrbital Ag 3   dxy \
	OrthoOrbital Ag 3   dyz \
	OrthoOrbital Ag 3   dz2 \
	OrthoOrbital Ag 3   dxz \
	OrthoOrbital Ag 3   dx2-y2 \
	OrthoOrbital Ag 4   s \
	OrthoOrbital Ag 4   p \
	OrthoOrbital Ag 4   px \
	OrthoOrbital Ag 4   py \
	OrthoOrbital Ag 4   pz \
	OrthoOrbital Ag 4   d \
	OrthoOrbital Ag 4   dxy \
	OrthoOrbital Ag 4   dyz \
	OrthoOrbital Ag 4   dz2 \
	OrthoOrbital Ag 4   dxz \
	OrthoOrbital Ag 4   dx2-y2 \
	OrthoOrbital Ag 5   s \
	OrthoOrbital Ag 5   p \
	OrthoOrbital Ag 5   px \
	OrthoOrbital Ag 5   py \
	OrthoOrbital Ag 5   pz \
	OrthoOrbital Ag 5   d \
	OrthoOrbital Ag 5   dxy \
	OrthoOrbital Ag 5   dyz \
	OrthoOrbital Ag 5   dz2 \
	OrthoOrbital Ag 5   dxz \
	OrthoOrbital Ag 5   dx2-y2 \
	OrthoOrbital Ag 6   s \
	OrthoOrbital Ag 6   p \
	OrthoOrbital Ag 6   px \
	OrthoOrbital Ag 6   py \
	OrthoOrbital Ag 6   pz \
	OrthoOrbital Ag 6   d \
	OrthoOrbital Ag 6   dxy \
	OrthoOrbital Ag 6   dyz \
	OrthoOrbital Ag 6   dz2 \
	OrthoOrbital Ag 6   dxz \
	OrthoOrbital Ag 6   dx2-y2 \
	OrthoOrbital Ag 7   s \
	OrthoOrbital Ag 7   p \
	OrthoOrbital Ag 7   px \
	OrthoOrbital Ag 7   py \
	OrthoOrbital Ag 7   pz \
	OrthoOrbital Ag 7   d \
	OrthoOrbital Ag 7   dxy \
	OrthoOrbital Ag 7   dyz \
	OrthoOrbital Ag 7   dz2 \
	OrthoOrbital Ag 7   dxz \
	OrthoOrbital Ag 7   dx2-y2 \
	OrthoOrbital Ag 8   s \
	OrthoOrbital Ag 8   p \
	OrthoOrbital Ag 8   px \
	OrthoOrbital Ag 8   py \
	OrthoOrbital Ag 8   pz \
	OrthoOrbital Ag 8   d \
	OrthoOrbital Ag 8   dxy \
	OrthoOrbital Ag 8   dyz \
	OrthoOrbital Ag 8   dz2 \
	OrthoOrbital Ag 8   dxz \
	OrthoOrbital Ag 8   dx2-y2 \
	OrthoOrbital Ag 9   s \
	OrthoOrbital Ag 9   p \
	OrthoOrbital Ag 9   px \
	OrthoOrbital Ag 9   py \
	OrthoOrbital Ag 9   pz \
	OrthoOrbital Ag 9   d \
	OrthoOrbital Ag 9   dxy \
	OrthoOrbital Ag 9   dyz \
	OrthoOrbital Ag 9   dz2 \
	OrthoOrbital Ag 9   dxz \
	OrthoOrbital Ag 9   dx2-y2 \
	OrthoOrbital Ag 10   s \
	OrthoOrbital Ag 10   p \
	OrthoOrbital Ag 10   px \
	OrthoOrbital Ag 10   py \
	OrthoOrbital Ag 10   pz \
	OrthoOrbital Ag 10   d \
	OrthoOrbital Ag 10   dxy \
	OrthoOrbital Ag 10   dyz \
	OrthoOrbital Ag 10   dz2 \
	OrthoOrbital Ag 10   dxz \
	OrthoOrbital Ag 10   dx2-y2 \
	OrthoOrbital Ag 11   s \
	OrthoOrbital Ag 11   p \
	OrthoOrbital Ag 11   px \
	OrthoOrbital Ag 11   py \
	OrthoOrbital Ag 11   pz \
	OrthoOrbital Ag 11   d \
	OrthoOrbital Ag 11   dxy \
	OrthoOrbital Ag 11   dyz \
	OrthoOrbital Ag 11   dz2 \
	OrthoOrbital Ag 11   dxz \
	OrthoOrbital Ag 11   dx2-y2 \
	OrthoOrbital Ag 12   s \
	OrthoOrbital Ag 12   p \
	OrthoOrbital Ag 12   px \
	OrthoOrbital Ag 12   py \
	OrthoOrbital Ag 12   pz \
	OrthoOrbital Ag 12   d \
	OrthoOrbital Ag 12   dxy \
	OrthoOrbital Ag 12   dyz \
	OrthoOrbital Ag 12   dz2 \
	OrthoOrbital Ag 12   dxz \
	OrthoOrbital Ag 12   dx2-y2 \
	OrthoOrbital Ag 13   s \
	OrthoOrbital Ag 13   p \
	OrthoOrbital Ag 13   px \
	OrthoOrbital Ag 13   py \
	OrthoOrbital Ag 13   pz \
	OrthoOrbital Ag 13   d \
	OrthoOrbital Ag 13   dxy \
	OrthoOrbital Ag 13   dyz \
	OrthoOrbital Ag 13   dz2 \
	OrthoOrbital Ag 13   dxz \
	OrthoOrbital Ag 13   dx2-y2 \
	OrthoOrbital Ag 14   s \
	OrthoOrbital Ag 14   p \
	OrthoOrbital Ag 14   px \
	OrthoOrbital Ag 14   py \
	OrthoOrbital Ag 14   pz \
	OrthoOrbital Ag 14   d \
	OrthoOrbital Ag 14   dxy \
	OrthoOrbital Ag 14   dyz \
	OrthoOrbital Ag 14   dz2 \
	OrthoOrbital Ag 14   dxz \
	OrthoOrbital Ag 14   dx2-y2 \
	OrthoOrbital Ag 15   s \
	OrthoOrbital Ag 15   p \
	OrthoOrbital Ag 15   px \
	OrthoOrbital Ag 15   py \
	OrthoOrbital Ag 15   pz \
	OrthoOrbital Ag 15   d \
	OrthoOrbital Ag 15   dxy \
	OrthoOrbital Ag 15   dyz \
	OrthoOrbital Ag 15   dz2 \
	OrthoOrbital Ag 15   dxz \
	OrthoOrbital Ag 15   dx2-y2 \
	OrthoOrbital Ag 16   s \
	OrthoOrbital Ag 16   p \
	OrthoOrbital Ag 16   px \
	OrthoOrbital Ag 16   py \
	OrthoOrbital Ag 16   pz \
	OrthoOrbital Ag 16   d \
	OrthoOrbital Ag 16   dxy \
	OrthoOrbital Ag 16   dyz \
	OrthoOrbital Ag 16   dz2 \
	OrthoOrbital Ag 16   dxz \
	OrthoOrbital Ag 16   dx2-y2 \
	OrthoOrbital Ag 17   s \
	OrthoOrbital Ag 17   p \
	OrthoOrbital Ag 17   px \
	OrthoOrbital Ag 17   py \
	OrthoOrbital Ag 17   pz \
	OrthoOrbital Ag 17   d \
	OrthoOrbital Ag 17   dxy \
	OrthoOrbital Ag 17   dyz \
	OrthoOrbital Ag 17   dz2 \
	OrthoOrbital Ag 17   dxz \
	OrthoOrbital Ag 17   dx2-y2 \
	OrthoOrbital Ag 18   s \
	OrthoOrbital Ag 18   p \
	OrthoOrbital Ag 18   px \
	OrthoOrbital Ag 18   py \
	OrthoOrbital Ag 18   pz \
	OrthoOrbital Ag 18   d \
	OrthoOrbital Ag 18   dxy \
	OrthoOrbital Ag 18   dyz \
	OrthoOrbital Ag 18   dz2 \
	OrthoOrbital Ag 18   dxz \
	OrthoOrbital Ag 18   dx2-y2 \
	OrthoOrbital Ag 19   s \
	OrthoOrbital Ag 19   p \
	OrthoOrbital Ag 19   px \
	OrthoOrbital Ag 19   py \
	OrthoOrbital Ag 19   pz \
	OrthoOrbital Ag 19   d \
	OrthoOrbital Ag 19   dxy \
	OrthoOrbital Ag 19   dyz \
	OrthoOrbital Ag 19   dz2 \
	OrthoOrbital Ag 19   dxz \
	OrthoOrbital Ag 19   dx2-y2
dump End ElecDensity KEdensity BandEigs EigStats RhoAtom DOS Kpoints
dump Ionic State IonicPositions Lattice EigStats Ecomponents
dump 
dump 
dump 
dump 
dump 
dump 
dump 
dump 
dump-name jdft.$VAR
elec-cutoff 20
elec-eigen-algo Davidson
elec-ex-corr gga-PBE
elec-initial-magnetization 0.000000 no
elec-n-bands 217
elec-smearing Fermi 0.001
electronic-minimize  \
	dirUpdateScheme      FletcherReeves \
	linminMethod         DirUpdateRecommended \
	nIterations          100 \
	history              15 \
	knormThreshold       0 \
	energyDiffThreshold  1e-07 \
	nEnergyDiff          2 \
	alphaTstart          1 \
	alphaTmin            1e-10 \
	updateTestStepSize   yes \
	alphaTreduceFactor   0.1 \
	alphaTincreaseFactor 3 \
	nAlphaAdjustMax      3 \
	wolfeEnergy          0.0001 \
	wolfeGradient        0.9 \
	fdTest               no
exchange-regularization WignerSeitzTruncated
fluid LinearPCM 298.000000 1.013250
fluid-anion F- 0.5 MeanFieldLJ \
	epsBulk 1 \
	pMol 0 \
	epsInf 1 \
	Pvap 0 \
	sigmaBulk 0 \
	Rvdw 2.24877 \
	Res 0 \
	tauNuc 343133
fluid-cation Na+ 0.5 MeanFieldLJ \
	epsBulk 1 \
	pMol 0 \
	epsInf 1 \
	Pvap 0 \
	sigmaBulk 0 \
	Rvdw 2.19208 \
	Res 0 \
	tauNuc 343133
fluid-ex-corr lda-TF lda-PZ
fluid-gummel-loop 10 1.000000e-05
fluid-minimize  \
	dirUpdateScheme      PolakRibiere \
	linminMethod         DirUpdateRecommended \
	nIterations          400 \
	history              15 \
	knormThreshold       1e-11 \
	energyDiffThreshold  0 \
	nEnergyDiff          2 \
	alphaTstart          1 \
	alphaTmin            1e-10 \
	updateTestStepSize   yes \
	alphaTreduceFactor   0.1 \
	alphaTincreaseFactor 3 \
	nAlphaAdjustMax      6 \
	wolfeEnergy          0.0001 \
	wolfeGradient        0.9 \
	fdTest               no
fluid-solvent H2O 55.338 ScalarEOS \
	epsBulk 78.4 \
	pMol 0.92466 \
	epsInf 1.77 \
	Pvap 1.06736e-10 \
	sigmaBulk 4.62e-05 \
	Rvdw 2.61727 \
	Res 1.42 \
	tauNuc 343133 \
	poleEl 15 7 1
forces-output-coords Positions
initial-state jdft.$VAR
ion Ag   0.004169088608456   7.513979840975280  65.967474868653895 1
ion Ag   2.713519482672154   3.071229486441860  64.408022768226019 1
ion Ag   2.714718089917329  10.642755923303767  62.565095500183851 1
ion Ag   2.708871166656018  11.761266911061858  34.275868182728537 1
ion Ag   0.001630240010746   6.209684720392040  60.769640281323916 1
ion Ag   2.710016234724312   1.853225654182328  58.974715211063156 1
ion Ag   2.710877297385987   9.305199257184901  57.212125720353242 1
ion Ag   0.000511237472061   4.961231024903516  55.445623010339595 1
ion Ag   2.713052030061000   0.607014706932617  53.660669321215181 1
ion Ag   2.711418471358933   8.073384019427754  51.890254078766510 1
ion Ag   0.001191884990287   3.729757454749080  50.119504187614176 1
ion Ag  -0.003257882423954  11.200277273963504  48.348871187388731 1
ion Ag   2.708230959275951   6.853430750685848  46.578966322712638 1
ion Ag  -0.001106918400435   2.500263269991237  44.794368445144869 1
ion Ag  -0.002456191159776   9.969942681549250  43.028983746949244 1
ion Ag   2.711828424860575   5.609165123326306  41.266581549078658 1
ion Ag  -0.004479410643551   1.251573946160654  39.473333153259290 1
ion Ag  -0.001882277258458   8.633107885944439  37.677698323768062 1
ion Ag   2.705398071892361   4.389376068823778  35.837807141230343 1
ion-species /projects/musgravc/apps/jdftx-1.6.0/build/pseudopotentials/GBRV_v1.5/$ID_pbe_v1.uspp
ion-species /projects/musgravc/apps/jdftx-1.6.0/build/pseudopotentials/GBRV_v1.5/$ID_pbe_v1.2.uspp
ion-species /projects/musgravc/apps/jdftx-1.6.0/build/pseudopotentials/GBRV_v1.5/$ID_pbe_v1.4.uspp
ion-species /projects/musgravc/apps/jdftx-1.6.0/build/pseudopotentials/GBRV_v1.5/$ID_pbe_v1.5.uspp
ion-width Ecut
ionic-minimize  \
	dirUpdateScheme      L-BFGS \
	linminMethod         DirUpdateRecommended \
	nIterations          100 \
	history              15 \
	knormThreshold       0.0001 \
	energyDiffThreshold  0.0001 \
	nEnergyDiff          2 \
	alphaTstart          1 \
	alphaTmin            1e-10 \
	updateTestStepSize   yes \
	alphaTreduceFactor   0.1 \
	alphaTincreaseFactor 3 \
	nAlphaAdjustMax      3 \
	wolfeEnergy          0.0001 \
	wolfeGradient        0.9 \
	fdTest               no
kpoint   0.000000000000   0.000000000000   0.000000000000  1.00000000000000
kpoint-folding 11 5 1 
latt-move-scale 0 0 0
latt-scale 1 1 1 
lattice  \
	   5.420447000000000   -2.710223000000000    0.000000000000000  \
	   0.000000000000000   11.813589000000000    0.000000000000000  \
	   0.000000000000000   -0.000000000000000   66.827747000000002 
lattice-minimize  \
	dirUpdateScheme      L-BFGS \
	linminMethod         DirUpdateRecommended \
	nIterations          0 \
	history              15 \
	knormThreshold       0 \
	energyDiffThreshold  1e-06 \
	nEnergyDiff          2 \
	alphaTstart          1 \
	alphaTmin            1e-10 \
	updateTestStepSize   yes \
	alphaTreduceFactor   0.1 \
	alphaTincreaseFactor 3 \
	nAlphaAdjustMax      3 \
	wolfeEnergy          0.0001 \
	wolfeGradient        0.9 \
	fdTest               no
lcao-params 30 1e-06 0.001
pcm-variant CANDLE
spintype z-spin
subspace-rotation-factor 1 yes
symmetries automatic
symmetry-threshold 0.0001
target-mu -0.24475 no

van-der-waals D3



---------- Setting up symmetries ----------

Found 8 point-group symmetries of the bravais lattice
Found 1 space-group symmetries with basis
Applied RMS atom displacement 0 bohrs to make symmetries exact.

---------- Initializing the Grid ----------
R = 
[      5.42045     -2.71022            0  ]
[            0      11.8136            0  ]
[            0            0      66.8277  ]
unit cell volume = 4279.31
G =
[    1.15916    0.26593         -0  ]
[          0   0.531861          0  ]
[         -0          0  0.0940206  ]
Minimum fftbox size, Smin = [  24  52  272  ]
Chosen fftbox size, S = [  24  54  280  ]

---------- Exchange Correlation functional ----------
Initalized PBE GGA exchange.
Initalized PBE GGA correlation.

---------- Setting up pseudopotentials ----------
Width of ionic core gaussian charges (only for fluid interactions / plotting) set to 0.397384

Reading pseudopotential file '/projects/musgravc/apps/jdftx-1.6.0/build/pseudopotentials/GBRV_v1.5/ag_pbe_v1.4.uspp':
  Title: Ag.  Created by USPP 7.3.6 on 1-4-15
  Reference state energy: -147.606242.  19 valence electrons in orbitals:
    |400>  occupation: 2  eigenvalue: -3.637437
    |410>  occupation: 6  eigenvalue: -2.297267
    |420>  occupation: 10  eigenvalue: -0.417763
    |500>  occupation: 0.5  eigenvalue: -0.283525
    |510>  occupation: 0  eigenvalue: -0.122889
  lMax: 2  lLocal: 0  QijEcut: 5.5
  6 projectors sampled on a log grid with 717 points:
    l: 0  eig: -0.283528  rCut: 1.5
    l: 0  eig: -3.637440  rCut: 1.5
    l: 1  eig: -0.122892  rCut: 1.5
    l: 1  eig: -2.297267  rCut: 1.5
    l: 2  eig: -0.417762  rCut: 1.7
    l: 2  eig: -1.000000  rCut: 1.7
  Partial core density with radius 1.2
  Transforming core density to a uniform radial grid of dG=0.02 with 1304 points.
  Transforming local potential to a uniform radial grid of dG=0.02 with 1304 points.
  Transforming nonlocal projectors to a uniform radial grid of dG=0.02 with 432 points.
  Transforming density augmentations to a uniform radial grid of dG=0.02 with 1304 points.
  Transforming atomic orbitals to a uniform radial grid of dG=0.02 with 432 points.
  Core radius for overlap checks: 1.70 bohrs.

Initialized 1 species with 19 total atoms.

Folded 1 k-points by 11x5x1 to 55 k-points.

---------- Setting up k-points, bands, fillings ----------
Adding inversion symmetry to k-mesh for non-inversion-symmetric unit cell.
Reduced to 28 k-points under symmetry. 
Computing the number of bands and number of electrons
Reading initial fillings from file jdft.fillings.
nElectrons: 360.154586   nBands: 217   nStates: 56

----- Setting up reduced wavefunction bases (one per k-point) -----
average nbasis = 18279.473 , ideal nbasis = 18281.540

----- Initializing Supercell corresponding to k-point mesh -----
Lattice vector linear combinations in supercell:
[  11   0   0  ]
[   0   5   0  ]
[   0   0   1  ]
Supercell lattice vectors:
[  59.6249  -13.5511  0  ]
[  0  59.0679  0  ]
[  0  0  66.8277  ]

Initializing DFT-D3 calculator:
	Parameters set for gga-PBE functional
	s6:  1.000  s_r6:  1.217
	s8:  0.722  s_r8:  1.000
	Per-atom parameters loaded for:
	Ag:  sqrtQ[a0]:  5.443  Rcov[a0]:  2.173  CN: [ 0.00 0.97 ]

Initializing DFT-D2 calculator for fluid / solvation:
	Ag:  C6:  427.91 Eh-a0^6  R0: 3.097 a0

---------- Setting up ewald sum ----------
Optimum gaussian width for ewald sums = 3.964993 bohr.
Real space sum over 1045 unit cells with max indices [  9  5  2  ]
Reciprocal space sum over 6435 terms with max indices [  4  6  27  ]

Computing DFT-D3 correction:
# coordination-number Ag 5.460 6.726 8.381 5.461 8.949 9.043 9.058 9.100 9.095 9.105 9.103 9.107 9.099 9.105 9.064 9.049 8.956 8.385 6.731
# diagonal-C6 Ag 268.61 268.61 268.61 268.61 268.61 268.61 268.61 268.61 268.61 268.61 268.61 268.61 268.61 268.61 268.61 268.61 268.61 268.61 268.61
EvdW_6 =   -0.129451
EvdW_8 =   -0.171177

---------- Allocating electronic variables ----------
Initializing wave functions:  reading from 'jdft.wfns'
----- createFluidSolver() ----- (Fluid-side solver setup)
   Initializing fluid molecule 'H2O'
     Initializing site 'O'
       Electron density: proportional to exp(-r/0.36935)*erfc((r-0.51523)/0.36823) with norm 6.826
       Charge density: gaussian nuclear width 0.478731 with net site charge 0.826
       Polarizability: cuspless exponential with width 0.32 and norm 3.73
       Hard sphere radius: 2.57003 bohrs
       Positions in reference frame:
         [ +0.000000 +0.000000 +0.000000 ]
     Initializing site 'H'
       Electron density: proportional to exp(-r/0.34641)*erfc((r-0)/0.390882) with norm 0.587
       Charge density: gaussian nuclear width 0.377945 with net site charge -0.413
       Polarizability: cuspless exponential with width 0.39 and norm 3.3
       Positions in reference frame:
         [ +0.000000 -1.441945 +1.122523 ]
         [ +0.000000 +1.441945 +1.122523 ]
     Net charge: 0   dipole magnitude: 0.927204
     Initializing spherical shell mfKernel with radius 2.61727 Bohr
     deltaS corrections:
       site 'O': -7.54299
       site 'H': -6.83917
   Initializing fluid molecule 'Na+'
     Initializing site 'Na'
       Electron density: proportional to exp(-r/0.19682)*erfc((r-0.71491)/0.41314) with norm 8.1383
       Charge density: gaussian nuclear width 0.365347 with net site charge -1
       Hard sphere radius: 1.86327 bohrs
       Positions in reference frame:
         [ +0.000000 +0.000000 +0.000000 ]
     Net charge: -1   dipole magnitude: 0
     Initializing gaussian mfKernel with width: 1.55004 Bohr
     deltaS corrections:
       site 'Na': -22.3555
   Initializing fluid molecule 'F-'
     Initializing site 'F'
       Electron density: proportional to exp(-r/0.38886)*erfc((r-0)/0.438782) with norm 8
       Charge density: gaussian nuclear width 0.374796 with net site charge 1
       Hard sphere radius: 2.39995 bohrs
       Positions in reference frame:
         [ +0.000000 +0.000000 +0.000000 ]
     Net charge: 1   dipole magnitude: 0
     Initializing gaussian mfKernel with width: 1.59012 Bohr
     deltaS corrections:
       site 'F': -9.04335

Correction to mu due to finite nuclear width = -0.0837015
   Cavity determined by nc: 0.00142 and sigma: 0.707107
   Nonlocal vdW cavity from gaussian model electron density with norm = 8 and sigma = 0.993594 bohr
   Charge asymmetry in cavity with sensitivity pCavity = 36.5 e-bohr/Eh
   Electrostatic cavity expanded by eta = 1.46 bohrs
   Weighted density cavitation model constrained by Nbulk: 0.0049383 bohr^-3, Pvap: 3.14029 kPa, Rvdw: 2.61727 bohr and sigmaBulk: 4.62e-05 Eh/bohr^2 at T: 298 K.
   Weighted density dispersion model using vdW pair potentials with single solvent site with sqrtC6eff: 0.77 SI.
Reading fluid state from 'jdft.fluidState'


---- Citations for features of the code used in this run ----

   Software package:
      R. Sundararaman, K. Letchworth-Weaver, K.A. Schwarz, D. Gunceler, Y. Ozhabes and T.A. Arias, 'JDFTx: software for joint density-functional theory', SoftwareX 6, 278 (2017)

   gga-PBE exchange-correlation functional:
      J.P. Perdew, K. Burke and M. Ernzerhof, Phys. Rev. Lett. 77, 3865 (1996)

   Pseudopotentials:
      KF Garrity, JW Bennett, KM Rabe and D Vanderbilt, Comput. Mater. Sci. 81, 446 (2014)

   DFT-D3 dispersion correction:
      S. Grimme, J. Antony, S. Ehrlich and H. Krieg, J. Chem. Phys. 132, 154104 (2010)

   DFT-D2 dispersion correction:
      S. Grimme, J. Comput. Chem. 27, 1787 (2006)

   Charge-asymmetric nonlocally-determined local-electric (CANDLE) solvation model:
      R. Sundararaman and W.A. Goddard III, J. Chem. Phys. 142, 064107 (2015)

   Total energy minimization with Auxiliary Hamiltonian:
      C. Freysoldt, S. Boeck, and J. Neugebauer, Phys. Rev. B 79, 241103(R) (2009)

   Grand-canonical (fixed-potential) DFT:
      R. Sundararaman, W. A. Goddard III and T. A. Arias, J. Chem. Phys. 146, 114104 (2017)

   Linear-tetrahedron sampling for density of states:
      G. Lehmann and M. Taut, Phys. status solidi (b) 54, 469 (1972)

This list may not be complete. Please suggest additional citations or
report any other bugs at https://github.com/shankar1729/jdftx/issues

Initialization completed successfully at t[s]:     16.03


Computing DFT-D3 correction:
# coordination-number Ag 5.460 6.726 8.381 5.461 8.949 9.043 9.058 9.100 9.095 9.105 9.103 9.107 9.099 9.105 9.064 9.049 8.956 8.385 6.731
# diagonal-C6 Ag 268.61 268.61 268.61 268.61 268.61 268.61 268.61 268.61 268.61 268.61 268.61 268.61 268.61 268.61 268.61 268.61 268.61 268.61 268.61
EvdW_6 =   -0.129451
EvdW_8 =   -0.171177
Shifting auxilliary hamiltonian by -0.000074 to set nElectrons=360.154586

-------- Electronic minimization -----------
	Linear fluid (dielectric constant: 78.4, screening length: 8.12261 Bohr) occupying 0.394175 of unit cell:	Completed after 9 iterations at t[s]:     34.29
	FillingsUpdate:  mu: -0.244750000  nElectrons: 360.154586  magneticMoment: [ Abs: 0.00000  Tot: +0.00000 ]
ElecMinimize: Iter:   0  G: -2716.354802359232508  |grad|_K:  1.989e-07  alpha:  1.000e+00
	Linear fluid (dielectric constant: 78.4, screening length: 8.12261 Bohr) occupying 0.394187 of unit cell:	Completed after 20 iterations at t[s]:    122.47
	Linear fluid (dielectric constant: 78.4, screening length: 8.12261 Bohr) occupying 0.394175 of unit cell:	Completed after 21 iterations at t[s]:    153.51
	FillingsUpdate:  mu: -0.244750000  nElectrons: 360.154238  magneticMoment: [ Abs: 0.00000  Tot: +0.00000 ]
	SubspaceRotationAdjust: set factor to 0.592
ElecMinimize: Iter:   1  G: -2716.354802430079417  |grad|_K:  5.617e-08  alpha:  6.956e-03  linmin: -8.103e-03  t[s]:    200.08
	Linear fluid (dielectric constant: 78.4, screening length: 8.12261 Bohr) occupying 0.394175 of unit cell:	Completed after 2 iterations at t[s]:    236.56
ElecMinimize: 	Predicted alpha/alphaT>3.000000, increasing alphaT to 2.086763e-02.
	Linear fluid (dielectric constant: 78.4, screening length: 8.12261 Bohr) occupying 0.394175 of unit cell:	Completed after 5 iterations at t[s]:    266.12
	Linear fluid (dielectric constant: 78.4, screening length: 8.12261 Bohr) occupying 0.394175 of unit cell:	Completed after 2 iterations at t[s]:    295.54
	FillingsUpdate:  mu: -0.244750000  nElectrons: 360.154159  magneticMoment: [ Abs: 0.00000  Tot: +0.00000 ]
	SubspaceRotationAdjust: set factor to 0.331
ElecMinimize: Iter:   2  G: -2716.354802453309276  |grad|_K:  5.404e-08  alpha:  2.818e-02  linmin: -3.518e-03  t[s]:    341.43
ElecMinimize: Converged (|Delta G|<1.000000e-07 for 2 iters).
Setting wave functions to eigenvectors of Hamiltonian
Converging empty states (this may take a while): |deigs|: 8.562e-09

Computing DFT-D3 correction:
# coordination-number Ag 5.460 6.726 8.381 5.461 8.949 9.043 9.058 9.100 9.095 9.105 9.103 9.107 9.099 9.105 9.064 9.049 8.956 8.385 6.731
# diagonal-C6 Ag 268.61 268.61 268.61 268.61 268.61 268.61 268.61 268.61 268.61 268.61 268.61 268.61 268.61 268.61 268.61 268.61 268.61 268.61 268.61
EvdW_6 =   -0.129451
EvdW_8 =   -0.171177

# Ionic positions in cartesian coordinates:
ion Ag   0.004169088608456   7.513979840975280  65.967474868653895 1
ion Ag   2.713519482672154   3.071229486441860  64.408022768226019 1
ion Ag   2.714718089917329  10.642755923303767  62.565095500183851 1
ion Ag   2.708871166656018  11.761266911061858  34.275868182728537 1
ion Ag   0.001630240010746   6.209684720392040  60.769640281323916 1
ion Ag   2.710016234724312   1.853225654182328  58.974715211063156 1
ion Ag   2.710877297385987   9.305199257184901  57.212125720353242 1
ion Ag   0.000511237472061   4.961231024903516  55.445623010339595 1
ion Ag   2.713052030061000   0.607014706932617  53.660669321215181 1
ion Ag   2.711418471358933   8.073384019427754  51.890254078766510 1
ion Ag   0.001191884990287   3.729757454749080  50.119504187614176 1
ion Ag  -0.003257882423954  11.200277273963504  48.348871187388731 1
ion Ag   2.708230959275951   6.853430750685848  46.578966322712638 1
ion Ag  -0.001106918400435   2.500263269991237  44.794368445144869 1
ion Ag  -0.002456191159776   9.969942681549250  43.028983746949244 1
ion Ag   2.711828424860575   5.609165123326306  41.266581549078658 1
ion Ag  -0.004479410643551   1.251573946160654  39.473333153259290 1
ion Ag  -0.001882277258458   8.633107885944439  37.677698323768062 1
ion Ag   2.705398071892361   4.389376068823778  35.837807141230343 1

# Forces in Cartesian coordinates:
force Ag  -0.000011632025604   0.000510578975002   0.001807425889197 1
force Ag  -0.000013310724659   0.000392323202912  -0.001043455995376 1
force Ag   0.000007392631528  -0.000915592718686  -0.001073715818708 1
force Ag   0.000012358184418  -0.000477757279631  -0.001833667258404 1
force Ag   0.000020328684530   0.000243387258954   0.001763552571705 1
force Ag   0.000017351359626   0.000110535991587   0.000403908612246 1
force Ag  -0.000003244318182  -0.000192262137715  -0.000435793362762 1
force Ag   0.000095980877228   0.000093636131498   0.000781842577383 1
force Ag  -0.000016186107062   0.000130776910259   0.000453134090872 1
force Ag  -0.000025078875474  -0.000091374397149  -0.000307223217156 1
force Ag   0.000004245822182   0.000006795371383   0.000049526594499 1
force Ag   0.000027538410345   0.000087593367299   0.000384661859883 1
force Ag   0.000022737086124  -0.000123495254580  -0.000398912783949 1
force Ag  -0.000097044901809  -0.000091953192498  -0.000768253312620 1
force Ag   0.000012364536937   0.000192914982478   0.000432754042704 1
force Ag  -0.000015412326145  -0.000105800117752  -0.000424018746385 1
force Ag  -0.000005442886152  -0.000241889498944  -0.001799755492694 1
force Ag  -0.000007479212088   0.000938867835833   0.001032562002758 1
force Ag   0.000027621198085  -0.000374416039011   0.001001181243826 1

# Energy components:
   A_diel =        0.2078537501942965
   Eewald =    15539.7214575103262177
       EH =    18130.3560446385454270
     Eloc =   -36915.5241487047314877
      Enl =       75.0375496385638883
     EvdW =       -0.3006281503897576
      Exc =     -275.2198553122601652
 Exc_core =        3.9552380150622191
       KE =      637.1937809543711637
  MuShift =        0.0707980951229474
-------------------------------------
     Etot =    -2804.5019095651932730
       TS =        0.0006233884742732
-------------------------------------
        F =    -2804.5025329536674690
      muN =      -88.1477305003581790
-------------------------------------
        G =    -2716.3548024533092757


Dumping 'jdft.fillings' ... done
Dumping 'jdft.wfns' ... done
Dumping 'jdft.fluidState' ... done
Dumping 'jdft.ionpos' ... done
Dumping 'jdft.lattice' ... done
Dumping 'jdft.eigenvals' ... done
Dumping 'jdft.eigStats' ... 
	eMin: -3.626556 at state 28 ( [ +0.000000 +0.000000 +0.000000 ] spin -1 )
	HOMO: -0.245348 at state 42 ( [ +0.272727 +0.200000 +0.000000 ] spin -1 )
	mu  : -0.244750
	LUMO: -0.244130 at state 8 ( [ +0.181818 +0.000000 +0.000000 ] spin 1 )
	eMax: +0.179344 at state 28 ( [ +0.000000 +0.000000 +0.000000 ] spin -1 )
	HOMO-LUMO gap: +0.001218
	Optical gap  : +0.001377 at state 36 ( [ +0.181818 +0.000000 +0.000000 ] spin -1 )
Dumping 'jdft.Ecomponents' ... done
IonicMinimize: Iter:   0  G: -2716.354802453309276  |grad|_K:  6.300e-04  t[s]:    453.65

#--- Lowdin population analysis ---
# oxidation-state Ag +0.335 +0.163 -0.033 +0.335 -0.002 +0.002 +0.003 +0.002 +0.003 +0.003 +0.003 +0.003 +0.002 +0.002 +0.003 +0.002 -0.002 -0.033 +0.163
# magnetic-moments Ag +0.000 +0.000 +0.000 +0.000 +0.000 +0.000 +0.000 +0.000 +0.000 +0.000 +0.000 +0.000 +0.000 +0.000 +0.000 +0.000 +0.000 +0.000 +0.000


Computing DFT-D3 correction:
# coordination-number Ag 5.458 6.727 8.382 5.459 8.951 9.043 9.058 9.099 9.095 9.104 9.102 9.106 9.099 9.104 9.064 9.050 8.958 8.386 6.733
# diagonal-C6 Ag 268.61 268.61 268.61 268.61 268.61 268.61 268.61 268.61 268.61 268.61 268.61 268.61 268.61 268.61 268.61 268.61 268.61 268.61 268.61
EvdW_6 =   -0.129447
EvdW_8 =   -0.171172
Shifting auxilliary hamiltonian by 0.000093 to set nElectrons=360.154159

-------- Electronic minimization -----------
	Linear fluid (dielectric constant: 78.4, screening length: 8.12261 Bohr) occupying 0.394166 of unit cell:	Completed after 15 iterations at t[s]:    495.86
	FillingsUpdate:  mu: -0.244750000  nElectrons: 360.154159  magneticMoment: [ Abs: 0.00000  Tot: +0.00000 ]
ElecMinimize: Iter:   0  G: -2716.354823578950345  |grad|_K:  1.748e-07  alpha:  1.000e+00
	Linear fluid (dielectric constant: 78.4, screening length: 8.12261 Bohr) occupying 0.394168 of unit cell:	Completed after 21 iterations at t[s]:    588.72
	Linear fluid (dielectric constant: 78.4, screening length: 8.12261 Bohr) occupying 0.394166 of unit cell:	Completed after 21 iterations at t[s]:    618.38
	FillingsUpdate:  mu: -0.244750000  nElectrons: 360.153515  magneticMoment: [ Abs: 0.00000  Tot: +0.00000 ]
	SubspaceRotationAdjust: set factor to 0.226
ElecMinimize: Iter:   1  G: -2716.354823764282628  |grad|_K:  9.518e-08  alpha:  2.638e-02  linmin: -1.181e-03  t[s]:    665.83
	Linear fluid (dielectric constant: 78.4, screening length: 8.12261 Bohr) occupying 0.394166 of unit cell:	Completed after 2 iterations at t[s]:    702.82
ElecMinimize: 	Predicted alpha/alphaT>3.000000, increasing alphaT to 7.914249e-02.
	Linear fluid (dielectric constant: 78.4, screening length: 8.12261 Bohr) occupying 0.394166 of unit cell:	Completed after 6 iterations at t[s]:    732.52
	Linear fluid (dielectric constant: 78.4, screening length: 8.12261 Bohr) occupying 0.394166 of unit cell:	Completed after 9 iterations at t[s]:    761.66
	FillingsUpdate:  mu: -0.244750000  nElectrons: 360.153400  magneticMoment: [ Abs: 0.00000  Tot: +0.00000 ]
	SubspaceRotationAdjust: set factor to 0.19
ElecMinimize: Iter:   2  G: -2716.354824165769060  |grad|_K:  5.681e-08  alpha:  1.876e-01  linmin: -1.683e-03  t[s]:    809.25
	Linear fluid (dielectric constant: 78.4, screening length: 8.12261 Bohr) occupying 0.394166 of unit cell:	Completed after 11 iterations at t[s]:    847.27
	Linear fluid (dielectric constant: 78.4, screening length: 8.12261 Bohr) occupying 0.394166 of unit cell:	Completed after 7 iterations at t[s]:    877.42
	FillingsUpdate:  mu: -0.244750000  nElectrons: 360.153754  magneticMoment: [ Abs: 0.00000  Tot: +0.00000 ]
	SubspaceRotationAdjust: set factor to 0.111
ElecMinimize: Iter:   3  G: -2716.354824262578859  |grad|_K:  7.830e-08  alpha:  1.277e-01  linmin:  7.408e-04  t[s]:    923.89
	Linear fluid (dielectric constant: 78.4, screening length: 8.12261 Bohr) occupying 0.394167 of unit cell:	Completed after 12 iterations at t[s]:    961.69
	Linear fluid (dielectric constant: 78.4, screening length: 8.12261 Bohr) occupying 0.394167 of unit cell:	Completed after 7 iterations at t[s]:    991.49
	FillingsUpdate:  mu: -0.244750000  nElectrons: 360.153496  magneticMoment: [ Abs: 0.00000  Tot: +0.00000 ]
	SubspaceRotationAdjust: set factor to 0.165
ElecMinimize: Iter:   4  G: -2716.354824373592237  |grad|_K:  2.736e-08  alpha:  8.405e-02  linmin:  2.347e-04  t[s]:   1039.31
	Linear fluid (dielectric constant: 78.4, screening length: 8.12261 Bohr) occupying 0.394167 of unit cell:	Completed after 2 iterations at t[s]:   1075.35
ElecMinimize: 	Predicted alpha/alphaT>3.000000, increasing alphaT to 2.521351e-01.
	Linear fluid (dielectric constant: 78.4, screening length: 8.12261 Bohr) occupying 0.394167 of unit cell:	Completed after 6 iterations at t[s]:   1104.39
	Linear fluid (dielectric constant: 78.4, screening length: 8.12261 Bohr) occupying 0.394167 of unit cell:	Completed after 0 iterations at t[s]:   1132.93
	FillingsUpdate:  mu: -0.244750000  nElectrons: 360.153343  magneticMoment: [ Abs: 0.00000  Tot: +0.00000 ]
	SubspaceRotationAdjust: set factor to 0.105
ElecMinimize: Iter:   5  G: -2716.354824424235176  |grad|_K:  3.460e-08  alpha:  2.969e-01  linmin: -4.054e-03  t[s]:   1180.77
	Linear fluid (dielectric constant: 78.4, screening length: 8.12261 Bohr) occupying 0.394168 of unit cell:	Completed after 12 iterations at t[s]:   1218.53
	Linear fluid (dielectric constant: 78.4, screening length: 8.12261 Bohr) occupying 0.394167 of unit cell:	Completed after 11 iterations at t[s]:   1248.22
	FillingsUpdate:  mu: -0.244750000  nElectrons: 360.153588  magneticMoment: [ Abs: 0.00000  Tot: +0.00000 ]
	SubspaceRotationAdjust: set factor to 0.0761
ElecMinimize: Iter:   6  G: -2716.354824457258019  |grad|_K:  1.935e-08  alpha:  1.005e-01  linmin: -1.569e-03  t[s]:   1295.91
ElecMinimize: Converged (|Delta G|<1.000000e-07 for 2 iters).
Setting wave functions to eigenvectors of Hamiltonian
Converging empty states (this may take a while): |deigs|: 5.563e-09

Computing DFT-D3 correction:
# coordination-number Ag 5.458 6.727 8.382 5.459 8.951 9.043 9.058 9.099 9.095 9.104 9.102 9.106 9.099 9.104 9.064 9.050 8.958 8.386 6.733
# diagonal-C6 Ag 268.61 268.61 268.61 268.61 268.61 268.61 268.61 268.61 268.61 268.61 268.61 268.61 268.61 268.61 268.61 268.61 268.61 268.61 268.61
EvdW_6 =   -0.129447
EvdW_8 =   -0.171172
IonicMinimize: 	Wolfe criterion not satisfied: alpha: 1  (E-E0)/|gdotd0|: -0.97251  gdotd/gdotd0: 0.925986 (taking cubic step)

Computing DFT-D3 correction:
# coordination-number Ag 5.453 6.729 8.384 5.454 8.955 9.044 9.057 9.097 9.094 9.103 9.099 9.105 9.098 9.101 9.063 9.050 8.962 8.388 6.735
# diagonal-C6 Ag 268.61 268.61 268.61 268.61 268.61 268.61 268.61 268.61 268.61 268.61 268.61 268.61 268.61 268.61 268.61 268.61 268.61 268.61 268.61
EvdW_6 =   -0.129439
EvdW_8 =   -0.171162
Shifting auxilliary hamiltonian by -0.000030 to set nElectrons=360.153588

-------- Electronic minimization -----------
	Linear fluid (dielectric constant: 78.4, screening length: 8.12261 Bohr) occupying 0.394111 of unit cell:	Completed after 16 iterations at t[s]:   1449.63
	FillingsUpdate:  mu: -0.244750000  nElectrons: 360.153588  magneticMoment: [ Abs: 0.00000  Tot: +0.00000 ]
ElecMinimize: Iter:   0  G: -2716.354862766110273  |grad|_K:  1.748e-07  alpha:  1.000e+00
	Linear fluid (dielectric constant: 78.4, screening length: 8.12261 Bohr) occupying 0.394110 of unit cell:	Completed after 21 iterations at t[s]:   1539.33
	Linear fluid (dielectric constant: 78.4, screening length: 8.12261 Bohr) occupying 0.394111 of unit cell:	Completed after 21 iterations at t[s]:   1571.41
	FillingsUpdate:  mu: -0.244750000  nElectrons: 360.154771  magneticMoment: [ Abs: 0.00000  Tot: +0.00000 ]
	SubspaceRotationAdjust: set factor to 0.053
ElecMinimize: Iter:   1  G: -2716.354864153710423  |grad|_K:  1.436e-07  alpha:  2.019e-01  linmin: -1.015e-04  t[s]:   1619.09
	Linear fluid (dielectric constant: 78.4, screening length: 8.12261 Bohr) occupying 0.394110 of unit cell:	Completed after 14 iterations at t[s]:   1657.11
	Linear fluid (dielectric constant: 78.4, screening length: 8.12261 Bohr) occupying 0.394110 of unit cell:	Completed after 7 iterations at t[s]:   1687.06
	FillingsUpdate:  mu: -0.244750000  nElectrons: 360.153843  magneticMoment: [ Abs: 0.00000  Tot: +0.00000 ]
	SubspaceRotationAdjust: set factor to 0.0347
ElecMinimize: Iter:   2  G: -2716.354864983686639  |grad|_K:  6.057e-08  alpha:  1.801e-01  linmin:  1.032e-04  t[s]:   1734.76
	Linear fluid (dielectric constant: 78.4, screening length: 8.12261 Bohr) occupying 0.394110 of unit cell:	Completed after 2 iterations at t[s]:   1770.86
	Linear fluid (dielectric constant: 78.4, screening length: 8.12261 Bohr) occupying 0.394109 of unit cell:	Completed after 2 iterations at t[s]:   1799.21
	FillingsUpdate:  mu: -0.244750000  nElectrons: 360.153799  magneticMoment: [ Abs: 0.00000  Tot: +0.00000 ]
	SubspaceRotationAdjust: set factor to 0.0421
ElecMinimize: Iter:   3  G: -2716.354865316148789  |grad|_K:  4.302e-08  alpha:  4.083e-01  linmin:  7.016e-04  t[s]:   1846.93
	Linear fluid (dielectric constant: 78.4, screening length: 8.12261 Bohr) occupying 0.394109 of unit cell:	Completed after 9 iterations at t[s]:   1884.90
	Linear fluid (dielectric constant: 78.4, screening length: 8.12261 Bohr) occupying 0.394109 of unit cell:	Completed after 2 iterations at t[s]:   1914.00
	FillingsUpdate:  mu: -0.244750000  nElectrons: 360.153899  magneticMoment: [ Abs: 0.00000  Tot: +0.00000 ]
	SubspaceRotationAdjust: set factor to 0.0422
ElecMinimize: Iter:   4  G: -2716.354865450605303  |grad|_K:  3.183e-08  alpha:  3.308e-01  linmin: -9.193e-04  t[s]:   1960.80
	Linear fluid (dielectric constant: 78.4, screening length: 8.12261 Bohr) occupying 0.394108 of unit cell:	Completed after 9 iterations at t[s]:   1998.49
	Linear fluid (dielectric constant: 78.4, screening length: 8.12261 Bohr) occupying 0.394108 of unit cell:	Completed after 0 iterations at t[s]:   2027.41
	FillingsUpdate:  mu: -0.244750000  nElectrons: 360.153635  magneticMoment: [ Abs: 0.00000  Tot: +0.00000 ]
	SubspaceRotationAdjust: set factor to 0.0358
ElecMinimize: Iter:   5  G: -2716.354865520906969  |grad|_K:  2.911e-08  alpha:  3.103e-01  linmin: -5.274e-04  t[s]:   2075.19
	Linear fluid (dielectric constant: 78.4, screening length: 8.12261 Bohr) occupying 0.394108 of unit cell:	Completed after 6 iterations at t[s]:   2111.90
	Linear fluid (dielectric constant: 78.4, screening length: 8.12261 Bohr) occupying 0.394108 of unit cell:	Completed after 2 iterations at t[s]:   2140.89
	FillingsUpdate:  mu: -0.244750000  nElectrons: 360.153714  magneticMoment: [ Abs: 0.00000  Tot: +0.00000 ]
	SubspaceRotationAdjust: set factor to 0.0507
ElecMinimize: Iter:   6  G: -2716.354865591112230  |grad|_K:  2.228e-08  alpha:  3.655e-01  linmin: -1.609e-03  t[s]:   2188.99
ElecMinimize: Converged (|Delta G|<1.000000e-07 for 2 iters).
Setting wave functions to eigenvectors of Hamiltonian
Converging empty states (this may take a while): |deigs|: 1.578e-08

Computing DFT-D3 correction:
# coordination-number Ag 5.453 6.729 8.384 5.454 8.955 9.044 9.057 9.097 9.094 9.103 9.099 9.105 9.098 9.101 9.063 9.050 8.962 8.388 6.735
# diagonal-C6 Ag 268.61 268.61 268.61 268.61 268.61 268.61 268.61 268.61 268.61 268.61 268.61 268.61 268.61 268.61 268.61 268.61 268.61 268.61 268.61
EvdW_6 =   -0.129439
EvdW_8 =   -0.171162

# Ionic positions in cartesian coordinates:
ion Ag   0.004125810308408   7.515496914312195  65.972893079979841 1
ion Ag   2.713471168274941   3.072391792462506  64.404888333898242 1
ion Ag   2.714731885588678  10.639994481559620  62.561870286386089 1
ion Ag   2.708899858986037  11.759818975634875  34.270363114611690 1
ion Ag   0.001682843841100   6.210400218580812  60.774926872697399 1
ion Ag   2.710059906579953   1.853542598569000  58.975922870558250 1
ion Ag   2.710859182208206   9.304607807183665  57.210814273923319 1
ion Ag   0.000790797880508   4.961497269709921  55.447964471730103 1
ion Ag   2.712995089516577   0.607392374075304  53.662024657146162 1
ion Ag   2.711334852509275   8.073095232648217  51.889328342773403 1
ion Ag   0.001196240233598   3.729763177275140  50.119648701056043 1
ion Ag  -0.003183649416155  11.200525390477312  48.350021106626748 1
ion Ag   2.708290788311087   6.853045601334018  46.577765518019156 1
ion Ag  -0.001406435329099   2.499972746825651  44.792059618865373 1
ion Ag  -0.002427479772201   9.970506762908594  43.030277942735715 1
ion Ag   2.711773805658906   5.608833059384960  41.265305426497868 1
ion Ag  -0.004504121525243   1.250833614075731  39.467929820439572 1
ion Ag  -0.001913097117960   8.635909825863846  37.680791943434699 1
ion Ag   2.705472553263380   4.388238157118654  35.840806618620185 1

# Forces in Cartesian coordinates:
force Ag  -0.000011481849513   0.000479084023236   0.001329865837960 1
force Ag  -0.000011793978180   0.000312432043771  -0.000998923563623 1
force Ag   0.000006909662302  -0.000778683324719  -0.000596046677407 1
force Ag   0.000012860518793  -0.000432664125775  -0.001243922895333 1
force Ag   0.000018871647423   0.000212751183828   0.001622262451231 1
force Ag   0.000019378518076   0.000143075286199   0.000517711764859 1
force Ag   0.000000659152026  -0.000204285060097  -0.000247590498120 1
force Ag   0.000084122798924   0.000081703433389   0.000552234887065 1
force Ag  -0.000012963948210   0.000125947940075   0.000127128773374 1
force Ag  -0.000019734977728  -0.000079367147178  -0.000447500900218 1
force Ag   0.000003667541990   0.000004962547704  -0.000081936453932 1
force Ag   0.000021754649788   0.000080372206339   0.000292278609903 1
force Ag   0.000019675465777  -0.000116745542793  -0.000243611831314 1
force Ag  -0.000085289483143  -0.000080909366563  -0.000626193390254 1
force Ag   0.000007958277567   0.000205120162103   0.000235903385014 1
force Ag  -0.000017018153880  -0.000134044682859  -0.000476039449010 1
force Ag  -0.000004466464556  -0.000213031813930  -0.001544353653050 1
force Ag  -0.000006004831821   0.000812744305484   0.000732301478658 1
force Ag   0.000025954853840  -0.000331844477543   0.001128608285965 1

# Energy components:
   A_diel =        0.2078747170114252
   Eewald =    15536.8692546564034274
       EH =    18127.5658653888312983
     Eloc =   -36909.8821014783316059
      Enl =       75.0384008248861676
     EvdW =       -0.3006003256923716
      Exc =     -275.2196166351491797
 Exc_core =        3.9552379594865918
       KE =      637.1929863585883140
  MuShift =        0.0708353930236555
-------------------------------------
     Etot =    -2804.5018631409429872
       TS =        0.0006238883734281
-------------------------------------
        F =    -2804.5024870293163985
      muN =      -88.1476214382043395
-------------------------------------
        G =    -2716.3548655911122296


Dumping 'jdft.fillings' ... done
Dumping 'jdft.wfns' ... done
Dumping 'jdft.fluidState' ... done
Dumping 'jdft.ionpos' ... done
Dumping 'jdft.lattice' ... done
Dumping 'jdft.eigenvals' ... done
Dumping 'jdft.eigStats' ... 
	eMin: -3.626462 at state 0 ( [ +0.000000 +0.000000 +0.000000 ] spin 1 )
	HOMO: -0.245248 at state 42 ( [ +0.272727 +0.200000 +0.000000 ] spin -1 )
	mu  : -0.244750
	LUMO: -0.244076 at state 8 ( [ +0.181818 +0.000000 +0.000000 ] spin 1 )
	eMax: +0.179445 at state 0 ( [ +0.000000 +0.000000 +0.000000 ] spin 1 )
	HOMO-LUMO gap: +0.001173
	Optical gap  : +0.001356 at state 36 ( [ +0.181818 +0.000000 +0.000000 ] spin -1 )
Dumping 'jdft.Ecomponents' ... done
IonicMinimize: Iter:   1  G: -2716.354865591112230  |grad|_K:  5.189e-04  alpha:  3.000e+00  linmin: -9.816e-01  t[s]:   2299.88

#--- Lowdin population analysis ---
# oxidation-state Ag +0.336 +0.163 -0.033 +0.336 -0.002 +0.001 +0.003 +0.002 +0.002 +0.003 +0.003 +0.003 +0.002 +0.002 +0.003 +0.001 -0.002 -0.033 +0.163
# magnetic-moments Ag +0.000 +0.000 +0.000 +0.000 +0.000 +0.000 +0.000 +0.000 +0.000 +0.000 +0.000 +0.000 +0.000 +0.000 +0.000 +0.000 +0.000 +0.000 +0.000


Computing DFT-D3 correction:
# coordination-number Ag 5.431 6.779 8.418 5.432 9.004 9.031 9.013 9.052 9.067 9.095 9.098 9.106 9.087 9.077 9.043 9.056 9.028 8.428 6.790
# diagonal-C6 Ag 268.61 268.61 268.61 268.61 268.61 268.61 268.61 268.61 268.61 268.61 268.61 268.61 268.61 268.61 268.61 268.61 268.61 268.61 268.61
EvdW_6 =   -0.129360
EvdW_8 =   -0.171083
Shifting auxilliary hamiltonian by 0.000017 to set nElectrons=360.153714

-------- Electronic minimization -----------
	Linear fluid (dielectric constant: 78.4, screening length: 8.12261 Bohr) occupying 0.394094 of unit cell:	Completed after 28 iterations at t[s]:   2341.56
	FillingsUpdate:  mu: -0.244750000  nElectrons: 360.153714  magneticMoment: [ Abs: 0.00000  Tot: +0.00000 ]
ElecMinimize: Iter:   0  G: -2716.008060846659191  |grad|_K:  7.118e-05  alpha:  1.000e+00
	Linear fluid (dielectric constant: 78.4, screening length: 8.12261 Bohr) occupying 0.393979 of unit cell:	Completed after 30 iterations at t[s]:   2433.64
	Linear fluid (dielectric constant: 78.4, screening length: 8.12261 Bohr) occupying 0.394087 of unit cell:	Completed after 30 iterations at t[s]:   2467.14
	FillingsUpdate:  mu: -0.244750000  nElectrons: 359.986324  magneticMoment: [ Abs: 0.00000  Tot: +0.00000 ]
	SubspaceRotationAdjust: set factor to 0.0398
ElecMinimize: Iter:   1  G: -2716.303945796013068  |grad|_K:  2.790e-05  alpha:  2.608e-01  linmin:  7.432e-04  t[s]:   2514.87
	Linear fluid (dielectric constant: 78.4, screening length: 8.12261 Bohr) occupying 0.394218 of unit cell:	Completed after 26 iterations at t[s]:   2554.65
	Linear fluid (dielectric constant: 78.4, screening length: 8.12261 Bohr) occupying 0.394171 of unit cell:	Completed after 21 iterations at t[s]:   2586.49
	FillingsUpdate:  mu: -0.244750000  nElectrons: 360.185234  magneticMoment: [ Abs: 0.00000  Tot: +0.00000 ]
	SubspaceRotationAdjust: set factor to 0.0209
ElecMinimize: Iter:   2  G: -2716.333854641623020  |grad|_K:  1.175e-05  alpha:  1.808e-01  linmin: -7.035e-04  t[s]:   2634.61
	Linear fluid (dielectric constant: 78.4, screening length: 8.12261 Bohr) occupying 0.394128 of unit cell:	Completed after 20 iterations at t[s]:   2672.53
	Linear fluid (dielectric constant: 78.4, screening length: 8.12261 Bohr) occupying 0.394115 of unit cell:	Completed after 18 iterations at t[s]:   2704.07
	FillingsUpdate:  mu: -0.244750000  nElectrons: 360.145570  magneticMoment: [ Abs: 0.00000  Tot: +0.00000 ]
	SubspaceRotationAdjust: set factor to 0.0257
ElecMinimize: Iter:   3  G: -2716.341074293616657  |grad|_K:  4.665e-06  alpha:  2.332e-01  linmin:  8.056e-04  t[s]:   2752.15
	Linear fluid (dielectric constant: 78.4, screening length: 8.12261 Bohr) occupying 0.394071 of unit cell:	Completed after 19 iterations at t[s]:   2791.42
	Linear fluid (dielectric constant: 78.4, screening length: 8.12261 Bohr) occupying 0.394051 of unit cell:	Completed after 16 iterations at t[s]:   2821.72
	FillingsUpdate:  mu: -0.244750000  nElectrons: 360.132550  magneticMoment: [ Abs: 0.00000  Tot: +0.00000 ]
	SubspaceRotationAdjust: set factor to 0.0285
ElecMinimize: Iter:   4  G: -2716.342718232244351  |grad|_K:  2.851e-06  alpha:  3.401e-01  linmin:  7.032e-05  t[s]:   2869.28
	Linear fluid (dielectric constant: 78.4, screening length: 8.12261 Bohr) occupying 0.394006 of unit cell:	Completed after 18 iterations at t[s]:   2908.58
	Linear fluid (dielectric constant: 78.4, screening length: 8.12261 Bohr) occupying 0.393992 of unit cell:	Completed after 15 iterations at t[s]:   2939.59
	FillingsUpdate:  mu: -0.244750000  nElectrons: 360.154520  magneticMoment: [ Abs: 0.00000  Tot: +0.00000 ]
	SubspaceRotationAdjust: set factor to 0.0302
ElecMinimize: Iter:   5  G: -2716.343537879307405  |grad|_K:  2.404e-06  alpha:  4.508e-01  linmin: -1.791e-04  t[s]:   2986.20
	Linear fluid (dielectric constant: 78.4, screening length: 8.12261 Bohr) occupying 0.393903 of unit cell:	Completed after 16 iterations at t[s]:   3025.05
	Linear fluid (dielectric constant: 78.4, screening length: 8.12261 Bohr) occupying 0.393889 of unit cell:	Completed after 12 iterations at t[s]:   3055.89
	FillingsUpdate:  mu: -0.244750000  nElectrons: 360.153041  magneticMoment: [ Abs: 0.00000  Tot: +0.00000 ]
	SubspaceRotationAdjust: set factor to 0.0402
ElecMinimize: Iter:   6  G: -2716.344213634315565  |grad|_K:  2.272e-06  alpha:  5.200e-01  linmin:  7.936e-07  t[s]:   3103.63
	Linear fluid (dielectric constant: 78.4, screening length: 8.12261 Bohr) occupying 0.393790 of unit cell:	Completed after 19 iterations at t[s]:   3142.66
	Linear fluid (dielectric constant: 78.4, screening length: 8.12261 Bohr) occupying 0.393755 of unit cell:	Completed after 14 iterations at t[s]:   3173.56
	FillingsUpdate:  mu: -0.244750000  nElectrons: 360.147032  magneticMoment: [ Abs: 0.00000  Tot: +0.00000 ]
	SubspaceRotationAdjust: set factor to 0.0453
ElecMinimize: Iter:   7  G: -2716.345020375136755  |grad|_K:  3.187e-06  alpha:  6.994e-01  linmin:  3.928e-06  t[s]:   3221.76
	Linear fluid (dielectric constant: 78.4, screening length: 8.12261 Bohr) occupying 0.393570 of unit cell:	Completed after 21 iterations at t[s]:   3260.07
	Linear fluid (dielectric constant: 78.4, screening length: 8.12261 Bohr) occupying 0.393592 of unit cell:	Completed after 15 iterations at t[s]:   3291.23
	FillingsUpdate:  mu: -0.244750000  nElectrons: 360.180813  magneticMoment: [ Abs: 0.00000  Tot: +0.00000 ]
	SubspaceRotationAdjust: set factor to 0.0421
ElecMinimize: Iter:   8  G: -2716.346420859209047  |grad|_K:  4.275e-06  alpha:  6.193e-01  linmin: -4.217e-05  t[s]:   3339.50
	Linear fluid (dielectric constant: 78.4, screening length: 8.12261 Bohr) occupying 0.393369 of unit cell:	Completed after 22 iterations at t[s]:   3379.46
	Linear fluid (dielectric constant: 78.4, screening length: 8.12261 Bohr) occupying 0.393404 of unit cell:	Completed after 15 iterations at t[s]:   3409.59
	FillingsUpdate:  mu: -0.244750000  nElectrons: 360.155262  magneticMoment: [ Abs: 0.00000  Tot: +0.00000 ]
	SubspaceRotationAdjust: set factor to 0.0393
ElecMinimize: Iter:   9  G: -2716.348607146474478  |grad|_K:  4.555e-06  alpha:  5.278e-01  linmin:  2.422e-05  t[s]:   3457.55
	Linear fluid (dielectric constant: 78.4, screening length: 8.12261 Bohr) occupying 0.393408 of unit cell:	Completed after 16 iterations at t[s]:   3496.83
	Linear fluid (dielectric constant: 78.4, screening length: 8.12261 Bohr) occupying 0.393408 of unit cell:	Completed after 11 iterations at t[s]:   3527.37
	FillingsUpdate:  mu: -0.244750000  nElectrons: 360.150047  magneticMoment: [ Abs: 0.00000  Tot: +0.00000 ]
	SubspaceRotationAdjust: set factor to 0.042
ElecMinimize: Iter:  10  G: -2716.351313481040961  |grad|_K:  4.501e-06  alpha:  5.879e-01  linmin: -4.188e-06  t[s]:   3574.43
	Linear fluid (dielectric constant: 78.4, screening length: 8.12261 Bohr) occupying 0.393662 of unit cell:	Completed after 18 iterations at t[s]:   3613.82
	Linear fluid (dielectric constant: 78.4, screening length: 8.12261 Bohr) occupying 0.393604 of unit cell:	Completed after 15 iterations at t[s]:   3645.19
	FillingsUpdate:  mu: -0.244750000  nElectrons: 360.162551  magneticMoment: [ Abs: 0.00000  Tot: +0.00000 ]
	SubspaceRotationAdjust: set factor to 0.0387
ElecMinimize: Iter:  11  G: -2716.353339774211690  |grad|_K:  3.487e-06  alpha:  4.486e-01  linmin: -9.984e-06  t[s]:   3692.72
	Linear fluid (dielectric constant: 78.4, screening length: 8.12261 Bohr) occupying 0.393817 of unit cell:	Completed after 19 iterations at t[s]:   3731.94
	Linear fluid (dielectric constant: 78.4, screening length: 8.12261 Bohr) occupying 0.393760 of unit cell:	Completed after 15 iterations at t[s]:   3763.03
	FillingsUpdate:  mu: -0.244750000  nElectrons: 360.140282  magneticMoment: [ Abs: 0.00000  Tot: +0.00000 ]
	SubspaceRotationAdjust: set factor to 0.0296
ElecMinimize: Iter:  12  G: -2716.354230319779163  |grad|_K:  2.362e-06  alpha:  3.251e-01  linmin:  9.820e-06  t[s]:   3811.17
	Linear fluid (dielectric constant: 78.4, screening length: 8.12261 Bohr) occupying 0.393888 of unit cell:	Completed after 17 iterations at t[s]:   3849.08
	Linear fluid (dielectric constant: 78.4, screening length: 8.12261 Bohr) occupying 0.393889 of unit cell:	Completed after 7 iterations at t[s]:   3878.65
	FillingsUpdate:  mu: -0.244750000  nElectrons: 360.149755  magneticMoment: [ Abs: 0.00000  Tot: +0.00000 ]
	SubspaceRotationAdjust: set factor to 0.0271
ElecMinimize: Iter:  13  G: -2716.354639096328356  |grad|_K:  1.509e-06  alpha:  3.284e-01  linmin: -1.695e-05  t[s]:   3926.69
	Linear fluid (dielectric constant: 78.4, screening length: 8.12261 Bohr) occupying 0.393956 of unit cell:	Completed after 15 iterations at t[s]:   3965.00
	Linear fluid (dielectric constant: 78.4, screening length: 8.12261 Bohr) occupying 0.393964 of unit cell:	Completed after 7 iterations at t[s]:   3994.28
	FillingsUpdate:  mu: -0.244750000  nElectrons: 360.150041  magneticMoment: [ Abs: 0.00000  Tot: +0.00000 ]
	SubspaceRotationAdjust: set factor to 0.031
ElecMinimize: Iter:  14  G: -2716.354825945828907  |grad|_K:  9.204e-07  alpha:  3.663e-01  linmin:  2.157e-07  t[s]:   4041.88
	Linear fluid (dielectric constant: 78.4, screening length: 8.12261 Bohr) occupying 0.393991 of unit cell:	Completed after 15 iterations at t[s]:   4080.89
	Linear fluid (dielectric constant: 78.4, screening length: 8.12261 Bohr) occupying 0.393991 of unit cell:	Completed after 7 iterations at t[s]:   4109.80
	FillingsUpdate:  mu: -0.244750000  nElectrons: 360.145252  magneticMoment: [ Abs: 0.00000  Tot: +0.00000 ]
	SubspaceRotationAdjust: set factor to 0.0301
ElecMinimize: Iter:  15  G: -2716.354892955660944  |grad|_K:  6.229e-07  alpha:  3.540e-01  linmin:  2.528e-05  t[s]:   4156.98
	Linear fluid (dielectric constant: 78.4, screening length: 8.12261 Bohr) occupying 0.394005 of unit cell:	Completed after 14 iterations at t[s]:   4195.46
	Linear fluid (dielectric constant: 78.4, screening length: 8.12261 Bohr) occupying 0.394007 of unit cell:	Completed after 11 iterations at t[s]:   4226.12
	FillingsUpdate:  mu: -0.244750000  nElectrons: 360.146526  magneticMoment: [ Abs: 0.00000  Tot: +0.00000 ]
	SubspaceRotationAdjust: set factor to 0.0356
ElecMinimize: Iter:  16  G: -2716.354927966724517  |grad|_K:  4.391e-07  alpha:  4.042e-01  linmin: -1.177e-05  t[s]:   4272.78
	Linear fluid (dielectric constant: 78.4, screening length: 8.12261 Bohr) occupying 0.394012 of unit cell:	Completed after 12 iterations at t[s]:   4310.94
	Linear fluid (dielectric constant: 78.4, screening length: 8.12261 Bohr) occupying 0.394012 of unit cell:	Completed after 2 iterations at t[s]:   4339.77
	FillingsUpdate:  mu: -0.244750000  nElectrons: 360.146284  magneticMoment: [ Abs: 0.00000  Tot: +0.00000 ]
	SubspaceRotationAdjust: set factor to 0.046
ElecMinimize: Iter:  17  G: -2716.354945836415027  |grad|_K:  3.674e-07  alpha:  4.147e-01  linmin: -9.933e-06  t[s]:   4387.70
	Linear fluid (dielectric constant: 78.4, screening length: 8.12261 Bohr) occupying 0.394014 of unit cell:	Completed after 15 iterations at t[s]:   4425.10
	Linear fluid (dielectric constant: 78.4, screening length: 8.12261 Bohr) occupying 0.394015 of unit cell:	Completed after 10 iterations at t[s]:   4455.50
	FillingsUpdate:  mu: -0.244750000  nElectrons: 360.144496  magneticMoment: [ Abs: 0.00000  Tot: +0.00000 ]
	SubspaceRotationAdjust: set factor to 0.0536
ElecMinimize: Iter:  18  G: -2716.354960639080218  |grad|_K:  3.729e-07  alpha:  4.907e-01  linmin:  1.264e-05  t[s]:   4503.39
	Linear fluid (dielectric constant: 78.4, screening length: 8.12261 Bohr) occupying 0.394018 of unit cell:	Completed after 16 iterations at t[s]:   4541.64
	Linear fluid (dielectric constant: 78.4, screening length: 8.12261 Bohr) occupying 0.394018 of unit cell:	Completed after 7 iterations at t[s]:   4571.49
	FillingsUpdate:  mu: -0.244750000  nElectrons: 360.146666  magneticMoment: [ Abs: 0.00000  Tot: +0.00000 ]
	SubspaceRotationAdjust: set factor to 0.0561
ElecMinimize: Iter:  19  G: -2716.354974980877614  |grad|_K:  4.231e-07  alpha:  4.617e-01  linmin:  3.047e-06  t[s]:   4619.37
	Linear fluid (dielectric constant: 78.4, screening length: 8.12261 Bohr) occupying 0.394019 of unit cell:	Completed after 16 iterations at t[s]:   4658.64
	Linear fluid (dielectric constant: 78.4, screening length: 8.12261 Bohr) occupying 0.394019 of unit cell:	Completed after 8 iterations at t[s]:   4687.66
	FillingsUpdate:  mu: -0.244750000  nElectrons: 360.143689  magneticMoment: [ Abs: 0.00000  Tot: +0.00000 ]
	SubspaceRotationAdjust: set factor to 0.0563
ElecMinimize: Iter:  20  G: -2716.354992282222611  |grad|_K:  4.397e-07  alpha:  4.325e-01  linmin:  8.793e-06  t[s]:   4735.60
	Linear fluid (dielectric constant: 78.4, screening length: 8.12261 Bohr) occupying 0.394022 of unit cell:	Completed after 16 iterations at t[s]:   4774.44
	Linear fluid (dielectric constant: 78.4, screening length: 8.12261 Bohr) occupying 0.394022 of unit cell:	Completed after 9 iterations at t[s]:   4805.11
	FillingsUpdate:  mu: -0.244750000  nElectrons: 360.144923  magneticMoment: [ Abs: 0.00000  Tot: +0.00000 ]
	SubspaceRotationAdjust: set factor to 0.0579
ElecMinimize: Iter:  21  G: -2716.355012623121183  |grad|_K:  4.222e-07  alpha:  4.710e-01  linmin: -1.885e-05  t[s]:   4851.95
	Linear fluid (dielectric constant: 78.4, screening length: 8.12261 Bohr) occupying 0.394024 of unit cell:	Completed after 15 iterations at t[s]:   4890.54
	Linear fluid (dielectric constant: 78.4, screening length: 8.12261 Bohr) occupying 0.394024 of unit cell:	Completed after 7 iterations at t[s]:   4920.75
	FillingsUpdate:  mu: -0.244750000  nElectrons: 360.142477  magneticMoment: [ Abs: 0.00000  Tot: -0.00000 ]
	SubspaceRotationAdjust: set factor to 0.0574
ElecMinimize: Iter:  22  G: -2716.355030362517482  |grad|_K:  4.047e-07  alpha:  4.444e-01  linmin:  1.304e-05  t[s]:   4968.79
	Linear fluid (dielectric constant: 78.4, screening length: 8.12261 Bohr) occupying 0.394026 of unit cell:	Completed after 15 iterations at t[s]:   5007.00
	Linear fluid (dielectric constant: 78.4, screening length: 8.12261 Bohr) occupying 0.394026 of unit cell:	Completed after 12 iterations at t[s]:   5037.82
	FillingsUpdate:  mu: -0.244750000  nElectrons: 360.144610  magneticMoment: [ Abs: 0.00000  Tot: -0.00000 ]
	SubspaceRotationAdjust: set factor to 0.052
ElecMinimize: Iter:  23  G: -2716.355043388620743  |grad|_K:  3.512e-07  alpha:  3.568e-01  linmin: -9.673e-06  t[s]:   5086.15
	Linear fluid (dielectric constant: 78.4, screening length: 8.12261 Bohr) occupying 0.394025 of unit cell:	Completed after 14 iterations at t[s]:   5123.57
	Linear fluid (dielectric constant: 78.4, screening length: 8.12261 Bohr) occupying 0.394025 of unit cell:	Completed after 10 iterations at t[s]:   5154.28
	FillingsUpdate:  mu: -0.244750000  nElectrons: 360.142572  magneticMoment: [ Abs: 0.00000  Tot: -0.00000 ]
	SubspaceRotationAdjust: set factor to 0.0466
ElecMinimize: Iter:  24  G: -2716.355052103738672  |grad|_K:  2.901e-07  alpha:  3.158e-01  linmin:  9.922e-06  t[s]:   5203.02
	Linear fluid (dielectric constant: 78.4, screening length: 8.12261 Bohr) occupying 0.394024 of unit cell:	Completed after 14 iterations at t[s]:   5239.56
	Linear fluid (dielectric constant: 78.4, screening length: 8.12261 Bohr) occupying 0.394024 of unit cell:	Completed after 6 iterations at t[s]:   5267.15
	FillingsUpdate:  mu: -0.244750000  nElectrons: 360.143827  magneticMoment: [ Abs: 0.00000  Tot: -0.00000 ]
	SubspaceRotationAdjust: set factor to 0.0504
ElecMinimize: Iter:  25  G: -2716.355058537492368  |grad|_K:  2.147e-07  alpha:  3.424e-01  linmin: -1.498e-05  t[s]:   5312.95
	Linear fluid (dielectric constant: 78.4, screening length: 8.12261 Bohr) occupying 0.394021 of unit cell:	Completed after 9 iterations at t[s]:   5351.02
	Linear fluid (dielectric constant: 78.4, screening length: 8.12261 Bohr) occupying 0.394020 of unit cell:	Completed after 7 iterations at t[s]:   5381.20
	FillingsUpdate:  mu: -0.244750000  nElectrons: 360.143684  magneticMoment: [ Abs: 0.00000  Tot: -0.00000 ]
	SubspaceRotationAdjust: set factor to 0.0644
ElecMinimize: Iter:  26  G: -2716.355063020176658  |grad|_K:  1.745e-07  alpha:  4.348e-01  linmin:  1.051e-05  t[s]:   5427.42
	Linear fluid (dielectric constant: 78.4, screening length: 8.12261 Bohr) occupying 0.394016 of unit cell:	Completed after 12 iterations at t[s]:   5465.47
	Linear fluid (dielectric constant: 78.4, screening length: 8.12261 Bohr) occupying 0.394016 of unit cell:	Completed after 1 iterations at t[s]:   5494.37
	FillingsUpdate:  mu: -0.244750000  nElectrons: 360.143351  magneticMoment: [ Abs: 0.00000  Tot: -0.00000 ]
	SubspaceRotationAdjust: set factor to 0.0785
ElecMinimize: Iter:  27  G: -2716.355066090774926  |grad|_K:  1.745e-07  alpha:  4.515e-01  linmin: -3.319e-05  t[s]:   5542.58
	Linear fluid (dielectric constant: 78.4, screening length: 8.12261 Bohr) occupying 0.394012 of unit cell:	Completed after 14 iterations at t[s]:   5579.70
	Linear fluid (dielectric constant: 78.4, screening length: 8.12261 Bohr) occupying 0.394013 of unit cell:	Completed after 11 iterations at t[s]:   5610.16
	FillingsUpdate:  mu: -0.244750000  nElectrons: 360.144827  magneticMoment: [ Abs: 0.00000  Tot: -0.00000 ]
	SubspaceRotationAdjust: set factor to 0.0663
ElecMinimize: Iter:  28  G: -2716.355068454267439  |grad|_K:  1.981e-07  alpha:  3.452e-01  linmin:  2.708e-05  t[s]:   5658.17
	Linear fluid (dielectric constant: 78.4, screening length: 8.12261 Bohr) occupying 0.394007 of unit cell:	Completed after 14 iterations at t[s]:   5697.21
	Linear fluid (dielectric constant: 78.4, screening length: 8.12261 Bohr) occupying 0.394008 of unit cell:	Completed after 12 iterations at t[s]:   5726.54
	FillingsUpdate:  mu: -0.244750000  nElectrons: 360.143916  magneticMoment: [ Abs: 0.00000  Tot: -0.00000 ]
	SubspaceRotationAdjust: set factor to 0.0605
ElecMinimize: Iter:  29  G: -2716.355070595145207  |grad|_K:  1.738e-07  alpha:  2.448e-01  linmin:  4.829e-06  t[s]:   5774.23
	Linear fluid (dielectric constant: 78.4, screening length: 8.12261 Bohr) occupying 0.394005 of unit cell:	Completed after 11 iterations at t[s]:   5812.34
	Linear fluid (dielectric constant: 78.4, screening length: 8.12261 Bohr) occupying 0.394003 of unit cell:	Completed after 10 iterations at t[s]:   5842.98
	FillingsUpdate:  mu: -0.244750000  nElectrons: 360.145130  magneticMoment: [ Abs: 0.00000  Tot: -0.00000 ]
	SubspaceRotationAdjust: set factor to 0.0688
ElecMinimize: Iter:  30  G: -2716.355073443664878  |grad|_K:  1.544e-07  alpha:  4.226e-01  linmin: -1.238e-06  t[s]:   5889.41
	Linear fluid (dielectric constant: 78.4, screening length: 8.12261 Bohr) occupying 0.393999 of unit cell:	Completed after 9 iterations at t[s]:   5927.24
	Linear fluid (dielectric constant: 78.4, screening length: 8.12261 Bohr) occupying 0.393998 of unit cell:	Completed after 2 iterations at t[s]:   5956.03
	FillingsUpdate:  mu: -0.244750000  nElectrons: 360.145858  magneticMoment: [ Abs: 0.00000  Tot: -0.00000 ]
	SubspaceRotationAdjust: set factor to 0.0787
ElecMinimize: Iter:  31  G: -2716.355075852231494  |grad|_K:  1.398e-07  alpha:  4.521e-01  linmin: -9.664e-06  t[s]:   6004.01
	Linear fluid (dielectric constant: 78.4, screening length: 8.12261 Bohr) occupying 0.393994 of unit cell:	Completed after 11 iterations at t[s]:   6041.10
	Linear fluid (dielectric constant: 78.4, screening length: 8.12261 Bohr) occupying 0.393995 of unit cell:	Completed after 2 iterations at t[s]:   6070.44
	FillingsUpdate:  mu: -0.244750000  nElectrons: 360.145815  magneticMoment: [ Abs: 0.00000  Tot: -0.00000 ]
	SubspaceRotationAdjust: set factor to 0.0809
ElecMinimize: Iter:  32  G: -2716.355077686965615  |grad|_K:  1.379e-07  alpha:  4.190e-01  linmin:  3.832e-05  t[s]:   6118.25
	Linear fluid (dielectric constant: 78.4, screening length: 8.12261 Bohr) occupying 0.393991 of unit cell:	Completed after 13 iterations at t[s]:   6156.13
	Linear fluid (dielectric constant: 78.4, screening length: 8.12261 Bohr) occupying 0.393993 of unit cell:	Completed after 12 iterations at t[s]:   6186.06
	FillingsUpdate:  mu: -0.244750000  nElectrons: 360.146992  magneticMoment: [ Abs: 0.00000  Tot: -0.00000 ]
	SubspaceRotationAdjust: set factor to 0.0646
ElecMinimize: Iter:  33  G: -2716.355078615830280  |grad|_K:  1.322e-07  alpha:  2.228e-01  linmin:  1.380e-07  t[s]:   6234.10
	Linear fluid (dielectric constant: 78.4, screening length: 8.12261 Bohr) occupying 0.393991 of unit cell:	Completed after 12 iterations at t[s]:   6272.64
	Linear fluid (dielectric constant: 78.4, screening length: 8.12261 Bohr) occupying 0.393991 of unit cell:	Completed after 0 iterations at t[s]:   6300.85
	FillingsUpdate:  mu: -0.244750000  nElectrons: 360.146541  magneticMoment: [ Abs: 0.00000  Tot: +0.00000 ]
	SubspaceRotationAdjust: set factor to 0.0608
ElecMinimize: Iter:  34  G: -2716.355079491205288  |grad|_K:  8.832e-08  alpha:  2.240e-01  linmin:  6.537e-07  t[s]:   6347.90
	Linear fluid (dielectric constant: 78.4, screening length: 8.12261 Bohr) occupying 0.393990 of unit cell:	Completed after 2 iterations at t[s]:   6384.46
	Linear fluid (dielectric constant: 78.4, screening length: 8.12261 Bohr) occupying 0.393990 of unit cell:	Completed after 2 iterations at t[s]:   6413.73
	FillingsUpdate:  mu: -0.244750000  nElectrons: 360.146712  magneticMoment: [ Abs: 0.00000  Tot: +0.00000 ]
	SubspaceRotationAdjust: set factor to 0.0792
ElecMinimize: Iter:  35  G: -2716.355080176868341  |grad|_K:  6.981e-08  alpha:  3.931e-01  linmin: -1.343e-05  t[s]:   6461.31
	Linear fluid (dielectric constant: 78.4, screening length: 8.12261 Bohr) occupying 0.393990 of unit cell:	Completed after 11 iterations at t[s]:   6499.25
	Linear fluid (dielectric constant: 78.4, screening length: 8.12261 Bohr) occupying 0.393990 of unit cell:	Completed after 6 iterations at t[s]:   6529.02
	FillingsUpdate:  mu: -0.244750000  nElectrons: 360.147121  magneticMoment: [ Abs: 0.00000  Tot: +0.00000 ]
	SubspaceRotationAdjust: set factor to 0.064
ElecMinimize: Iter:  36  G: -2716.355080528366670  |grad|_K:  7.765e-08  alpha:  3.245e-01  linmin: -1.066e-04  t[s]:   6577.23
	Linear fluid (dielectric constant: 78.4, screening length: 8.12261 Bohr) occupying 0.393989 of unit cell:	Completed after 12 iterations at t[s]:   6614.57
	Linear fluid (dielectric constant: 78.4, screening length: 8.12261 Bohr) occupying 0.393990 of unit cell:	Completed after 10 iterations at t[s]:   6644.64
	FillingsUpdate:  mu: -0.244750000  nElectrons: 360.146631  magneticMoment: [ Abs: 0.00000  Tot: +0.00000 ]
	SubspaceRotationAdjust: set factor to 0.058
ElecMinimize: Iter:  37  G: -2716.355080770037603  |grad|_K:  5.960e-08  alpha:  1.792e-01  linmin:  3.618e-06  t[s]:   6692.62
	Linear fluid (dielectric constant: 78.4, screening length: 8.12261 Bohr) occupying 0.393990 of unit cell:	Completed after 2 iterations at t[s]:   6729.96
	Linear fluid (dielectric constant: 78.4, screening length: 8.12261 Bohr) occupying 0.393990 of unit cell:	Completed after 2 iterations at t[s]:   6758.02
	FillingsUpdate:  mu: -0.244750000  nElectrons: 360.146610  magneticMoment: [ Abs: 0.00001  Tot: +0.00000 ]
	SubspaceRotationAdjust: set factor to 0.0842
ElecMinimize: Iter:  38  G: -2716.355081069632888  |grad|_K:  5.432e-08  alpha:  3.777e-01  linmin:  2.933e-05  t[s]:   6806.01
	Linear fluid (dielectric constant: 78.4, screening length: 8.12261 Bohr) occupying 0.393992 of unit cell:	Completed after 11 iterations at t[s]:   6844.17
	Linear fluid (dielectric constant: 78.4, screening length: 8.12261 Bohr) occupying 0.393991 of unit cell:	Completed after 9 iterations at t[s]:   6874.77
	FillingsUpdate:  mu: -0.244750000  nElectrons: 360.146917  magneticMoment: [ Abs: 0.00000  Tot: +0.00000 ]
	SubspaceRotationAdjust: set factor to 0.0685
ElecMinimize: Iter:  39  G: -2716.355081233831243  |grad|_K:  6.454e-08  alpha:  2.558e-01  linmin: -1.407e-04  t[s]:   6921.72
	Linear fluid (dielectric constant: 78.4, screening length: 8.12261 Bohr) occupying 0.393993 of unit cell:	Completed after 12 iterations at t[s]:   6960.04
	Linear fluid (dielectric constant: 78.4, screening length: 8.12261 Bohr) occupying 0.393992 of unit cell:	Completed after 2 iterations at t[s]:   6989.01
	FillingsUpdate:  mu: -0.244750000  nElectrons: 360.146452  magneticMoment: [ Abs: 0.00000  Tot: +0.00000 ]
	SubspaceRotationAdjust: set factor to 0.0621
ElecMinimize: Iter:  40  G: -2716.355081436186083  |grad|_K:  4.862e-08  alpha:  2.138e-01  linmin:  3.320e-04  t[s]:   7037.12
	Linear fluid (dielectric constant: 78.4, screening length: 8.12261 Bohr) occupying 0.393993 of unit cell:	Completed after 3 iterations at t[s]:   7072.87
	Linear fluid (dielectric constant: 78.4, screening length: 8.12261 Bohr) occupying 0.393995 of unit cell:	Completed after 4 iterations at t[s]:   7101.87
	FillingsUpdate:  mu: -0.244750000  nElectrons: 360.146318  magneticMoment: [ Abs: 0.00000  Tot: +0.00000 ]
	SubspaceRotationAdjust: set factor to 0.0748
ElecMinimize: Iter:  41  G: -2716.355081653840443  |grad|_K:  3.953e-08  alpha:  4.164e-01  linmin: -3.719e-04  t[s]:   7149.80
	Linear fluid (dielectric constant: 78.4, screening length: 8.12261 Bohr) occupying 0.393997 of unit cell:	Completed after 9 iterations at t[s]:   7187.56
	Linear fluid (dielectric constant: 78.4, screening length: 8.12261 Bohr) occupying 0.393996 of unit cell:	Completed after 0 iterations at t[s]:   7215.45
	FillingsUpdate:  mu: -0.244750000  nElectrons: 360.146321  magneticMoment: [ Abs: 0.00000  Tot: +0.00000 ]
	SubspaceRotationAdjust: set factor to 0.0757
ElecMinimize: Iter:  42  G: -2716.355081788546158  |grad|_K:  4.278e-08  alpha:  3.763e-01  linmin: -7.851e-05  t[s]:   7263.38
	Linear fluid (dielectric constant: 78.4, screening length: 8.12261 Bohr) occupying 0.393999 of unit cell:	Completed after 11 iterations at t[s]:   7301.87
	Linear fluid (dielectric constant: 78.4, screening length: 8.12261 Bohr) occupying 0.393997 of unit cell:	Completed after 10 iterations at t[s]:   7332.19
	FillingsUpdate:  mu: -0.244750000  nElectrons: 360.145950  magneticMoment: [ Abs: 0.00005  Tot: +0.00001 ]
	SubspaceRotationAdjust: set factor to 0.0592
ElecMinimize: Iter:  43  G: -2716.355081859679558  |grad|_K:  3.685e-08  alpha:  1.776e-01  linmin:  9.153e-05  t[s]:   7378.95
	Linear fluid (dielectric constant: 78.4, screening length: 8.12261 Bohr) occupying 0.393998 of unit cell:	Completed after 2 iterations at t[s]:   7415.58
	Linear fluid (dielectric constant: 78.4, screening length: 8.12261 Bohr) occupying 0.393999 of unit cell:	Completed after 2 iterations at t[s]:   7444.82
	FillingsUpdate:  mu: -0.244750000  nElectrons: 360.145903  magneticMoment: [ Abs: 0.00008  Tot: +0.00001 ]
	SubspaceRotationAdjust: set factor to 0.0854
ElecMinimize: Iter:  44  G: -2716.355081944333506  |grad|_K:  2.820e-08  alpha:  2.856e-01  linmin:  5.421e-04  t[s]:   7492.48
ElecMinimize: Converged (|Delta G|<1.000000e-07 for 2 iters).
Setting wave functions to eigenvectors of Hamiltonian
Converging empty states (this may take a while): |deigs|: 9.202e-07

Computing DFT-D3 correction:
# coordination-number Ag 5.431 6.779 8.418 5.432 9.004 9.031 9.013 9.052 9.067 9.095 9.098 9.106 9.087 9.077 9.043 9.056 9.028 8.428 6.790
# diagonal-C6 Ag 268.61 268.61 268.61 268.61 268.61 268.61 268.61 268.61 268.61 268.61 268.61 268.61 268.61 268.61 268.61 268.61 268.61 268.61 268.61
EvdW_6 =   -0.129360
EvdW_8 =   -0.171083

# Ionic positions in cartesian coordinates:
ion Ag   0.003724390409691   7.528303147990600  66.000689478596613 1
ion Ag   2.713089053468090   3.079478091844779  64.377440820856592 1
ion Ag   2.714838646201992  10.620624143786340  62.554762961395433 1
ion Ag   2.709195566320286  11.748363578778212  34.247203423893474 1
ion Ag   0.002108546592226   6.215676161057179  60.817936975139894 1
ion Ag   2.710571747661843   1.858145291089006  58.992884392112472 1
ion Ag   2.710879160115748   9.298448193958178  57.207619422198796 1
ion Ag   0.002851487101049   4.963444548325292  55.458830230491436 1
ion Ag   2.712614948264747   0.610739895181638  53.658856968448553 1
ion Ag   2.710806524653343   8.070970859693935  51.873701344044640 1
ion Ag   0.001209154426407   3.729743641612776  50.114563530167679 1
ion Ag  -0.002765370406971  11.202531997843758  48.356346379173857 1
ion Ag   2.708706217666406   6.849753605308011  46.574005653650204 1
ion Ag  -0.003660529776703   2.497784820478281  44.777184472132440 1
ion Ag  -0.002371819589133   9.976448956307523  43.032853519974253 1
ion Ag   2.711179311421170   5.604329926686667  41.250687701257611 1
ion Ag  -0.004689702072108   1.245268242699744  39.429368438914288 1
ion Ag  -0.002132017832702   8.656222810256015  37.695305436922247 1
ion Ag   2.706094685374614   4.379588087102086  35.875361850629375 1

# Forces in Cartesian coordinates:
force Ag  -0.000005526895291   0.000207640691297   0.001187172886449 1
force Ag  -0.000001548932032  -0.000172633153043   0.000059110229171 1
force Ag  -0.000002107540839   0.000147342380269  -0.000173179683162 1
force Ag   0.000009866807377  -0.000250819672037  -0.001178789801880 1
force Ag   0.000016638491659   0.000235521289815  -0.000585315794901 1
force Ag   0.000023121893553  -0.000082431512916  -0.000464155994714 1
force Ag   0.000013552862712   0.000086981808116   0.000048997351108 1
force Ag   0.000030173465770  -0.000063473102198   0.000547416646021 1
force Ag   0.000004968884880   0.000001072554718   0.000870193971572 1
force Ag   0.000000834076882  -0.000125579678185   0.000693708825958 1
force Ag   0.000003482758814  -0.000011306287243   0.000206957996823 1
force Ag   0.000000953114054   0.000114886288318  -0.000330450450073 1
force Ag   0.000001129737077  -0.000018213870356  -0.000655418098024 1
force Ag  -0.000030449399294   0.000063982295884  -0.000515068000551 1
force Ag  -0.000011559593115  -0.000070583643439  -0.000121344467484 1
force Ag  -0.000021171138491   0.000072835263419   0.000287422646862 1
force Ag  -0.000011902457297  -0.000210846318467   0.000418732011162 1
force Ag   0.000006253522252  -0.000164579031270  -0.000165948158048 1
force Ag   0.000010628926276   0.000343387581484  -0.000186914439415 1

# Energy components:
   A_diel =        0.2090386706390723
   Eewald =    15520.7840032889835129
       EH =    18111.7341734870715300
     Eloc =   -36877.9682497978137690
      Enl =       75.0420752373819937
     EvdW =       -0.3004429341764279
      Exc =     -275.2186563643783188
 Exc_core =        3.9552377594376233
       KE =      637.1911730711059363
  MuShift =        0.0714892001305096
-------------------------------------
     Etot =    -2804.5001583816201673
       TS =        0.0006332147337809
-------------------------------------
        F =    -2804.5007915963537926
      muN =      -88.1457096520201446
-------------------------------------
        G =    -2716.3550819443335058


Dumping 'jdft.fillings' ... done
Dumping 'jdft.wfns' ... done
Dumping 'jdft.fluidState' ... done
Dumping 'jdft.ionpos' ... done
Dumping 'jdft.lattice' ... done
Dumping 'jdft.eigenvals' ... done
Dumping 'jdft.eigStats' ... 
	eMin: -3.626443 at state 28 ( [ +0.000000 +0.000000 +0.000000 ] spin -1 )
	HOMO: -0.244969 at state 42 ( [ +0.272727 +0.200000 +0.000000 ] spin -1 )
	mu  : -0.244750
	LUMO: -0.244152 at state 36 ( [ +0.181818 +0.000000 +0.000000 ] spin -1 )
	eMax: +0.179590 at state 0 ( [ +0.000000 +0.000000 +0.000000 ] spin 1 )
	HOMO-LUMO gap: +0.000817
	Optical gap  : +0.001253 at state 8 ( [ +0.181818 +0.000000 +0.000000 ] spin 1 )
Dumping 'jdft.Ecomponents' ... done
IonicMinimize: Iter:   2  G: -2716.355081944333506  |grad|_K:  3.398e-04  alpha:  1.000e+00  linmin:  2.852e-02  t[s]:   7657.34

#--- Lowdin population analysis ---
# oxidation-state Ag +0.342 +0.162 -0.033 +0.343 -0.004 +0.001 +0.003 +0.002 +0.002 +0.003 +0.003 +0.003 +0.002 +0.002 +0.003 +0.001 -0.004 -0.032 +0.163
# magnetic-moments Ag +0.000 +0.000 +0.000 +0.000 +0.000 +0.000 +0.000 +0.000 +0.000 +0.000 +0.000 +0.000 +0.000 +0.000 +0.000 +0.000 +0.000 +0.000 +0.000


Computing DFT-D3 correction:
# coordination-number Ag 5.386 6.766 8.415 5.391 9.002 9.044 9.030 9.064 9.059 9.066 9.069 9.074 9.075 9.087 9.059 9.073 9.031 8.432 6.783
# diagonal-C6 Ag 268.61 268.61 268.61 268.61 268.61 268.61 268.61 268.61 268.61 268.61 268.61 268.61 268.61 268.61 268.61 268.61 268.61 268.61 268.61
EvdW_6 =   -0.129319
EvdW_8 =   -0.171045
Shifting auxilliary hamiltonian by 0.000047 to set nElectrons=360.145903

-------- Electronic minimization -----------
	Linear fluid (dielectric constant: 78.4, screening length: 8.12261 Bohr) occupying 0.393988 of unit cell:	Completed after 26 iterations at t[s]:   7698.06
	FillingsUpdate:  mu: -0.244750000  nElectrons: 360.145903  magneticMoment: [ Abs: 0.00002  Tot: -0.00000 ]
ElecMinimize: Iter:   0  G: -2716.283879155162595  |grad|_K:  3.442e-05  alpha:  1.000e+00
	Linear fluid (dielectric constant: 78.4, screening length: 8.12261 Bohr) occupying 0.394194 of unit cell:	Completed after 30 iterations at t[s]:   7790.81
	Linear fluid (dielectric constant: 78.4, screening length: 8.12261 Bohr) occupying 0.394027 of unit cell:	Completed after 29 iterations at t[s]:   7824.17
	FillingsUpdate:  mu: -0.244750000  nElectrons: 359.956573  magneticMoment: [ Abs: 0.00002  Tot: -0.00000 ]
	SubspaceRotationAdjust: set factor to 0.053
ElecMinimize: Iter:   1  G: -2716.331446929773392  |grad|_K:  2.793e-05  alpha:  1.784e-01  linmin:  2.891e-03  t[s]:   7872.54
	Linear fluid (dielectric constant: 78.4, screening length: 8.12261 Bohr) occupying 0.394127 of unit cell:	Completed after 27 iterations at t[s]:   7912.88
	Linear fluid (dielectric constant: 78.4, screening length: 8.12261 Bohr) occupying 0.394085 of unit cell:	Completed after 23 iterations at t[s]:   7944.58
	FillingsUpdate:  mu: -0.244750000  nElectrons: 360.118230  magneticMoment: [ Abs: 0.00002  Tot: -0.00001 ]
	SubspaceRotationAdjust: set factor to 0.0486
ElecMinimize: Iter:   2  G: -2716.349662548327160  |grad|_K:  7.067e-06  alpha:  1.114e-01  linmin:  1.506e-03  t[s]:   7992.64
	Linear fluid (dielectric constant: 78.4, screening length: 8.12261 Bohr) occupying 0.394076 of unit cell:	Completed after 16 iterations at t[s]:   8031.90
	Linear fluid (dielectric constant: 78.4, screening length: 8.12261 Bohr) occupying 0.394065 of unit cell:	Completed after 18 iterations at t[s]:   8062.56
	FillingsUpdate:  mu: -0.244750000  nElectrons: 360.136131  magneticMoment: [ Abs: 0.00002  Tot: -0.00001 ]
	SubspaceRotationAdjust: set factor to 0.054
ElecMinimize: Iter:   3  G: -2716.352445141993485  |grad|_K:  2.755e-06  alpha:  2.517e-01  linmin: -1.062e-04  t[s]:   8110.29
	Linear fluid (dielectric constant: 78.4, screening length: 8.12261 Bohr) occupying 0.394018 of unit cell:	Completed after 18 iterations at t[s]:   8149.69
	Linear fluid (dielectric constant: 78.4, screening length: 8.12261 Bohr) occupying 0.394022 of unit cell:	Completed after 14 iterations at t[s]:   8181.08
	FillingsUpdate:  mu: -0.244750000  nElectrons: 360.119152  magneticMoment: [ Abs: 0.00002  Tot: -0.00001 ]
	SubspaceRotationAdjust: set factor to 0.0395
ElecMinimize: Iter:   4  G: -2716.352838243391489  |grad|_K:  2.019e-06  alpha:  2.314e-01  linmin:  1.988e-04  t[s]:   8227.98
	Linear fluid (dielectric constant: 78.4, screening length: 8.12261 Bohr) occupying 0.393976 of unit cell:	Completed after 18 iterations at t[s]:   8267.29
	Linear fluid (dielectric constant: 78.4, screening length: 8.12261 Bohr) occupying 0.393969 of unit cell:	Completed after 14 iterations at t[s]:   8298.10
	FillingsUpdate:  mu: -0.244750000  nElectrons: 360.134429  magneticMoment: [ Abs: 0.00002  Tot: -0.00001 ]
	SubspaceRotationAdjust: set factor to 0.0451
ElecMinimize: Iter:   5  G: -2716.353083877991139  |grad|_K:  1.220e-06  alpha:  2.704e-01  linmin: -1.094e-04  t[s]:   8346.19
	Linear fluid (dielectric constant: 78.4, screening length: 8.12261 Bohr) occupying 0.393917 of unit cell:	Completed after 14 iterations at t[s]:   8383.97
	Linear fluid (dielectric constant: 78.4, screening length: 8.12261 Bohr) occupying 0.393847 of unit cell:	Completed after 15 iterations at t[s]:   8415.22
	FillingsUpdate:  mu: -0.244750000  nElectrons: 360.141072  magneticMoment: [ Abs: 0.00002  Tot: -0.00001 ]
	SubspaceRotationAdjust: set factor to 0.0587
ElecMinimize: Iter:   6  G: -2716.353296443299314  |grad|_K:  1.229e-06  alpha:  6.367e-01  linmin: -1.849e-06  t[s]:   8463.03
	Linear fluid (dielectric constant: 78.4, screening length: 8.12261 Bohr) occupying 0.393689 of unit cell:	Completed after 16 iterations at t[s]:   8501.18
	Linear fluid (dielectric constant: 78.4, screening length: 8.12261 Bohr) occupying 0.393734 of unit cell:	Completed after 13 iterations at t[s]:   8531.94
	FillingsUpdate:  mu: -0.244750000  nElectrons: 360.133938  magneticMoment: [ Abs: 0.00002  Tot: -0.00001 ]
	SubspaceRotationAdjust: set factor to 0.052
ElecMinimize: Iter:   7  G: -2716.353450982757295  |grad|_K:  1.519e-06  alpha:  4.571e-01  linmin:  3.257e-06  t[s]:   8579.85
	Linear fluid (dielectric constant: 78.4, screening length: 8.12261 Bohr) occupying 0.393580 of unit cell:	Completed after 15 iterations at t[s]:   8618.86
	Linear fluid (dielectric constant: 78.4, screening length: 8.12261 Bohr) occupying 0.393603 of unit cell:	Completed after 14 iterations at t[s]:   8648.87
	FillingsUpdate:  mu: -0.244750000  nElectrons: 360.149806  magneticMoment: [ Abs: 0.00001  Tot: -0.00000 ]
	SubspaceRotationAdjust: set factor to 0.044
[...]

# Energy components:
   A_diel =        0.2092576876015949
   Eewald =    15506.0230608262627356
       EH =    18097.1666864959624945
     Eloc =   -36848.6377754295390332
      Enl =       75.0434426002131829
     EvdW =       -0.3003631623023155
      Exc =     -275.2159015992672266
 Exc_core =        3.9552377098629790
       KE =      637.1848915096528572
  MuShift =        0.0716084637605476
-------------------------------------
     Etot =    -2804.4998548977901009
       TS =        0.0006361642213402
-------------------------------------
        F =    -2804.5004910620114060
      muN =      -88.1453609152783883
-------------------------------------
        G =    -2716.3551301467332451


Dumping 'jdft.fillings' ... done
Dumping 'jdft.wfns' ... done
Dumping 'jdft.fluidState' ... done
Dumping 'jdft.ionpos' ... done
Dumping 'jdft.lattice' ... done
Dumping 'jdft.eigenvals' ... done
Dumping 'jdft.eigStats' ... 
	eMin: -3.626230 at state 28 ( [ +0.000000 +0.000000 +0.000000 ] spin -1 )
	HOMO: -0.244959 at state 42 ( [ +0.272727 +0.200000 +0.000000 ] spin -1 )
	mu  : -0.244750
	LUMO: -0.244186 at state 8 ( [ +0.181818 +0.000000 +0.000000 ] spin 1 )
	eMax: +0.179749 at state 0 ( [ +0.000000 +0.000000 +0.000000 ] spin 1 )
	HOMO-LUMO gap: +0.000773
	Optical gap  : +0.001115 at state 36 ( [ +0.181818 +0.000000 +0.000000 ] spin -1 )
Dumping 'jdft.Ecomponents' ... done
IonicMinimize: Iter:   3  G: -2716.355130146733245  |grad|_K:  1.318e-04  alpha:  1.000e+00  linmin: -3.994e-01  t[s]:  11577.71

#--- Lowdin population analysis ---
# oxidation-state Ag +0.344 +0.162 -0.033 +0.344 -0.004 +0.001 +0.003 +0.002 +0.003 +0.004 +0.004 +0.004 +0.003 +0.002 +0.003 +0.001 -0.005 -0.033 +0.162
# magnetic-moments Ag +0.000 +0.000 +0.000 +0.000 +0.000 -0.000 -0.000 -0.000 -0.000 -0.000 -0.000 -0.000 -0.000 -0.000 -0.000 -0.000 +0.000 +0.000 +0.000


Computing DFT-D3 correction:
# coordination-number Ag 5.370 6.770 8.413 5.378 9.006 9.047 9.037 9.059 9.055 9.057 9.054 9.065 9.071 9.078 9.061 9.070 9.030 8.428 6.785
# diagonal-C6 Ag 268.61 268.61 268.61 268.61 268.61 268.61 268.61 268.61 268.61 268.61 268.61 268.61 268.61 268.61 268.61 268.61 268.61 268.61 268.61
EvdW_6 =   -0.129276
EvdW_8 =   -0.170983
Shifting auxilliary hamiltonian by -0.000001 to set nElectrons=360.144478

-------- Electronic minimization -----------
	Linear fluid (dielectric constant: 78.4, screening length: 8.12261 Bohr) occupying 0.393385 of unit cell:	Completed after 19 iterations at t[s]:  11620.59
	FillingsUpdate:  mu: -0.244750000  nElectrons: 360.144478  magneticMoment: [ Abs: 0.00172  Tot: -0.00000 ]
ElecMinimize: Iter:   0  G: -2716.355119253934845  |grad|_K:  3.889e-07  alpha:  1.000e+00
	Linear fluid (dielectric constant: 78.4, screening length: 8.12261 Bohr) occupying 0.393391 of unit cell:	Completed after 21 iterations at t[s]:  11712.81
	Linear fluid (dielectric constant: 78.4, screening length: 8.12261 Bohr) occupying 0.393387 of unit cell:	Completed after 19 iterations at t[s]:  11742.79
	FillingsUpdate:  mu: -0.244750000  nElectrons: 360.143197  magneticMoment: [ Abs: 0.00092  Tot: +0.00000 ]
	SubspaceRotationAdjust: set factor to 0.0679
ElecMinimize: Iter:   1  G: -2716.355130800141069  |grad|_K:  2.452e-07  alpha:  3.423e-01  linmin:  4.686e-05  t[s]:  11790.73
	Linear fluid (dielectric constant: 78.4, screening length: 8.12261 Bohr) occupying 0.393391 of unit cell:	Completed after 14 iterations at t[s]:  11829.11
	Linear fluid (dielectric constant: 78.4, screening length: 8.12261 Bohr) occupying 0.393389 of unit cell:	Completed after 13 iterations at t[s]:  11860.03
	FillingsUpdate:  mu: -0.244750000  nElectrons: 360.144830  magneticMoment: [ Abs: 0.00058  Tot: +0.00000 ]
	SubspaceRotationAdjust: set factor to 0.042
ElecMinimize: Iter:   2  G: -2716.355133121238396  |grad|_K:  1.712e-07  alpha:  1.741e-01  linmin:  4.979e-05  t[s]:  11906.29
	Linear fluid (dielectric constant: 78.4, screening length: 8.12261 Bohr) occupying 0.393390 of unit cell:	Completed after 12 iterations at t[s]:  11944.52
	Linear fluid (dielectric constant: 78.4, screening length: 8.12261 Bohr) occupying 0.393391 of unit cell:	Completed after 9 iterations at t[s]:  11974.74
	FillingsUpdate:  mu: -0.244750000  nElectrons: 360.143845  magneticMoment: [ Abs: 0.00026  Tot: +0.00000 ]
	SubspaceRotationAdjust: set factor to 0.0398
ElecMinimize: Iter:   3  G: -2716.355134631251531  |grad|_K:  9.763e-08  alpha:  2.307e-01  linmin: -6.189e-05  t[s]:  12022.57
	Linear fluid (dielectric constant: 78.4, screening length: 8.12261 Bohr) occupying 0.393391 of unit cell:	Completed after 7 iterations at t[s]:  12059.48
	Linear fluid (dielectric constant: 78.4, screening length: 8.12261 Bohr) occupying 0.393391 of unit cell:	Completed after 2 iterations at t[s]:  12088.41
	FillingsUpdate:  mu: -0.244750000  nElectrons: 360.143555  magneticMoment: [ Abs: 0.00016  Tot: +0.00000 ]
	SubspaceRotationAdjust: set factor to 0.0502
ElecMinimize: Iter:   4  G: -2716.355135452744889  |grad|_K:  6.637e-08  alpha:  3.847e-01  linmin: -4.319e-04  t[s]:  12136.89
	Linear fluid (dielectric constant: 78.4, screening length: 8.12261 Bohr) occupying 0.393391 of unit cell:	Completed after 10 iterations at t[s]:  12173.53
	Linear fluid (dielectric constant: 78.4, screening length: 8.12261 Bohr) occupying 0.393391 of unit cell:	Completed after 6 iterations at t[s]:  12202.79
	FillingsUpdate:  mu: -0.244750000  nElectrons: 360.144031  magneticMoment: [ Abs: 0.00016  Tot: -0.00000 ]
	SubspaceRotationAdjust: set factor to 0.0489
ElecMinimize: Iter:   5  G: -2716.355135894206796  |grad|_K:  6.101e-08  alpha:  4.504e-01  linmin:  1.482e-03  t[s]:  12250.46
	Linear fluid (dielectric constant: 78.4, screening length: 8.12261 Bohr) occupying 0.393390 of unit cell:	Completed after 12 iterations at t[s]:  12289.18
	Linear fluid (dielectric constant: 78.4, screening length: 8.12261 Bohr) occupying 0.393390 of unit cell:	Completed after 6 iterations at t[s]:  12317.45
	FillingsUpdate:  mu: -0.244750000  nElectrons: 360.143571  magneticMoment: [ Abs: 0.00017  Tot: -0.00001 ]
	SubspaceRotationAdjust: set factor to 0.0455
ElecMinimize: Iter:   6  G: -2716.355136199642402  |grad|_K:  5.825e-08  alpha:  3.756e-01  linmin:  2.314e-04  t[s]:  12365.12
	Linear fluid (dielectric constant: 78.4, screening length: 8.12261 Bohr) occupying 0.393390 of unit cell:	Completed after 9 iterations at t[s]:  12402.73
	Linear fluid (dielectric constant: 78.4, screening length: 8.12261 Bohr) occupying 0.393389 of unit cell:	Completed after 7 iterations at t[s]:  12432.96
	FillingsUpdate:  mu: -0.244750000  nElectrons: 360.143934  magneticMoment: [ Abs: 0.00019  Tot: -0.00002 ]
	SubspaceRotationAdjust: set factor to 0.0468
ElecMinimize: Iter:   7  G: -2716.355136595347176  |grad|_K:  5.974e-08  alpha:  5.241e-01  linmin: -1.449e-04  t[s]:  12479.06
	Linear fluid (dielectric constant: 78.4, screening length: 8.12261 Bohr) occupying 0.393388 of unit cell:	Completed after 7 iterations at t[s]:  12516.61
	Linear fluid (dielectric constant: 78.4, screening length: 8.12261 Bohr) occupying 0.393388 of unit cell:	Completed after 2 iterations at t[s]:  12545.66
	FillingsUpdate:  mu: -0.244750000  nElectrons: 360.143695  magneticMoment: [ Abs: 0.00018  Tot: -0.00003 ]
	SubspaceRotationAdjust: set factor to 0.0505
ElecMinimize: Iter:   8  G: -2716.355137194866529  |grad|_K:  6.696e-08  alpha:  7.466e-01  linmin: -6.294e-07  t[s]:  12594.17
	Linear fluid (dielectric constant: 78.4, screening length: 8.12261 Bohr) occupying 0.393388 of unit cell:	Completed after 6 iterations at t[s]:  12630.89
	Linear fluid (dielectric constant: 78.4, screening length: 8.12261 Bohr) occupying 0.393388 of unit cell:	Completed after 0 iterations at t[s]:  12659.43
	FillingsUpdate:  mu: -0.244750000  nElectrons: 360.143576  magneticMoment: [ Abs: 0.00028  Tot: -0.00003 ]
	SubspaceRotationAdjust: set factor to 0.0532
ElecMinimize: Iter:   9  G: -2716.355137952708901  |grad|_K:  6.868e-08  alpha:  7.560e-01  linmin: -4.129e-04  t[s]:  12707.43
	Linear fluid (dielectric constant: 78.4, screening length: 8.12261 Bohr) occupying 0.393391 of unit cell:	Completed after 6 iterations at t[s]:  12743.44
	Linear fluid (dielectric constant: 78.4, screening length: 8.12261 Bohr) occupying 0.393390 of unit cell:	Completed after 2 iterations at t[s]:  12772.22
	FillingsUpdate:  mu: -0.244750000  nElectrons: 360.143492  magneticMoment: [ Abs: 0.00028  Tot: -0.00001 ]
	SubspaceRotationAdjust: set factor to 0.0553
ElecMinimize: Iter:  10  G: -2716.355138605288175  |grad|_K:  6.177e-08  alpha:  5.999e-01  linmin:  5.280e-05  t[s]:  12819.79
	Linear fluid (dielectric constant: 78.4, screening length: 8.12261 Bohr) occupying 0.393394 of unit cell:	Completed after 11 iterations at t[s]:  12858.17
	Linear fluid (dielectric constant: 78.4, screening length: 8.12261 Bohr) occupying 0.393393 of unit cell:	Completed after 5 iterations at t[s]:  12886.35
	FillingsUpdate:  mu: -0.244750000  nElectrons: 360.143225  magneticMoment: [ Abs: 0.00017  Tot: -0.00001 ]
	SubspaceRotationAdjust: set factor to 0.0526
ElecMinimize: Iter:  11  G: -2716.355138962447199  |grad|_K:  4.959e-08  alpha:  4.198e-01  linmin:  7.167e-05  t[s]:  12934.31
	Linear fluid (dielectric constant: 78.4, screening length: 8.12261 Bohr) occupying 0.393396 of unit cell:	Completed after 11 iterations at t[s]:  12972.32
	Linear fluid (dielectric constant: 78.4, screening length: 8.12261 Bohr) occupying 0.393395 of unit cell:	Completed after 9 iterations at t[s]:  13002.92
	FillingsUpdate:  mu: -0.244750000  nElectrons: 360.143574  magneticMoment: [ Abs: 0.00014  Tot: -0.00001 ]
	SubspaceRotationAdjust: set factor to 0.0365
ElecMinimize: Iter:  12  G: -2716.355139104196041  |grad|_K:  3.962e-08  alpha:  2.641e-01  linmin: -6.741e-05  t[s]:  13049.57
	Linear fluid (dielectric constant: 78.4, screening length: 8.12261 Bohr) occupying 0.393396 of unit cell:	Completed after 10 iterations at t[s]:  13088.16
	Linear fluid (dielectric constant: 78.4, screening length: 8.12261 Bohr) occupying 0.393396 of unit cell:	Completed after 0 iterations at t[s]:  13117.15
	FillingsUpdate:  mu: -0.244750000  nElectrons: 360.143344  magneticMoment: [ Abs: 0.00012  Tot: -0.00000 ]
	SubspaceRotationAdjust: set factor to 0.0325
ElecMinimize: Iter:  13  G: -2716.355139198990400  |grad|_K:  2.323e-08  alpha:  2.700e-01  linmin: -1.925e-04  t[s]:  13164.31
	Linear fluid (dielectric constant: 78.4, screening length: 8.12261 Bohr) occupying 0.393397 of unit cell:	Completed after 2 iterations at t[s]:  13198.32
	Linear fluid (dielectric constant: 78.4, screening length: 8.12261 Bohr) occupying 0.393397 of unit cell:	Completed after 0 iterations at t[s]:  13224.61
	FillingsUpdate:  mu: -0.244750000  nElectrons: 360.143307  magneticMoment: [ Abs: 0.00011  Tot: -0.00000 ]
	SubspaceRotationAdjust: set factor to 0.0383
ElecMinimize: Iter:  14  G: -2716.355139248700198  |grad|_K:  1.578e-08  alpha:  4.027e-01  linmin: -1.069e-03  t[s]:  13271.36
ElecMinimize: Converged (|Delta G|<1.000000e-07 for 2 iters).
Setting wave functions to eigenvectors of Hamiltonian
Converging empty states (this may take a while): |deigs|: 1.622e-07

Computing DFT-D3 correction:
# coordination-number Ag 5.370 6.770 8.413 5.378 9.006 9.047 9.037 9.059 9.055 9.057 9.054 9.065 9.071 9.078 9.061 9.070 9.030 8.428 6.785
# diagonal-C6 Ag 268.61 268.61 268.61 268.61 268.61 268.61 268.61 268.61 268.61 268.61 268.61 268.61 268.61 268.61 268.61 268.61 268.61 268.61 268.61
EvdW_6 =   -0.129276
EvdW_8 =   -0.170983

# Ionic positions in cartesian coordinates:
ion Ag   0.003208295178752   7.538714922035568  66.037630648763880 1
ion Ag   2.712809356998911   3.082096492802113  64.365932391345211 1
ion Ag   2.714776088802714  10.617137023858236  62.557995456949513 1
ion Ag   2.709675180933978  11.738306373805491  34.213581189706609 1
ion Ag   0.002883089288421   6.224801868586709  60.823271742055859 1
ion Ag   2.711751283540710   1.857127562519345  58.992929645869182 1
ion Ag   2.711622105287542   9.299235238211358  57.212071338929746 1
ion Ag   0.004615453463872   4.962961519707709  55.474394663410600 1
ion Ag   2.712780217906319   0.610878494090917  53.673748963110604 1
ion Ag   2.710726109319588   8.067910571755789  51.882415282806782 1
ion Ag   0.001260459322292   3.729294999200072  50.115528046115791 1
ion Ag  -0.002797312145112  11.204613501337450  48.349528867028596 1
ion Ag   2.708637586540863   6.848449660041863  46.560022187737637 1
ion Ag  -0.005680684016653   2.497568690207116  44.761137795818918 1
ion Ag  -0.003157873458951   9.975154663175662  43.027685544809884 1
ion Ag   2.709871857536172   5.605398116496248  41.248741455202300 1
ion Ag  -0.005297410911661   1.236414067074354  39.422899854927067 1
ion Ag  -0.002094079494204   8.660169831887465  37.688421712628866 1
ion Ag   2.706660275906440   4.379632403206557  35.887666212782840 1

# Forces in Cartesian coordinates:
force Ag  -0.000002366570206  -0.000090982350430   0.000047216537962 1
force Ag   0.000002753877757   0.000314492034885   0.000291964223895 1
force Ag   0.000007372716482   0.000045511451734   0.000147659837949 1
force Ag   0.000006680965524   0.000168165476808  -0.000275136287612 1
force Ag   0.000010373356333  -0.000021614533327   0.000088941930470 1
force Ag   0.000014238766875  -0.000015370032979   0.000150947299946 1
force Ag   0.000024070543171   0.000051481589089   0.000017362930781 1
force Ag   0.000001610073691   0.000045527010363  -0.000083489950287 1
force Ag   0.000019241538692   0.000024132240349  -0.000141294756358 1
force Ag   0.000013438786614   0.000097293763390  -0.000020585411845 1
force Ag   0.000002060101499  -0.000004762313744   0.000091995380113 1
force Ag  -0.000008383008190  -0.000105902609104   0.000199672814320 1
force Ag  -0.000016606552893  -0.000024573294163   0.000314424336580 1
force Ag   0.000001339026141  -0.000043757669886   0.000227114590657 1
force Ag  -0.000019517896476  -0.000051625147555   0.000052530795656 1
force Ag  -0.000011276867982   0.000039795859446  -0.000145451681755 1
force Ag  -0.000006417176375   0.000032305940466  -0.000151765417700 1
force Ag  -0.000001689901682  -0.000049642917156  -0.000278079001012 1
force Ag  -0.000000214022535  -0.000296499242947  -0.000576769429141 1

# Energy components:
   A_diel =        0.2094552640574461
   Eewald =    15493.8487312220477179
       EH =    18085.1051757318964519
     Eloc =   -36824.4013159705064027
      Enl =       75.0445591459849197
     EvdW =       -0.3002590935497936
      Exc =     -275.2142903030034518
 Exc_core =        3.9552378486660809
       KE =      637.1814227541257196
  MuShift =        0.0717064237563428
-------------------------------------
     Etot =    -2804.4995769765250770
       TS =        0.0006367443045201
-------------------------------------
        F =    -2804.5002137208293789
      muN =      -88.1450744721293233
-------------------------------------
        G =    -2716.3551392487001976


Dumping 'jdft.fillings' ... done
Dumping 'jdft.wfns' ... done
Dumping 'jdft.fluidState' ... done
Dumping 'jdft.ionpos' ... done
Dumping 'jdft.lattice' ... done
Dumping 'jdft.eigenvals' ... done
Dumping 'jdft.eigStats' ... 
	eMin: -3.626213 at state 0 ( [ +0.000000 +0.000000 +0.000000 ] spin 1 )
	HOMO: -0.244994 at state 14 ( [ +0.272727 +0.200000 +0.000000 ] spin 1 )
	mu  : -0.244750
	LUMO: -0.244287 at state 8 ( [ +0.181818 +0.000000 +0.000000 ] spin 1 )
	eMax: +0.179813 at state 28 ( [ +0.000000 +0.000000 +0.000000 ] spin -1 )
	HOMO-LUMO gap: +0.000707
	Optical gap  : +0.001041 at state 36 ( [ +0.181818 +0.000000 +0.000000 ] spin -1 )
Dumping 'jdft.Ecomponents' ... done
IonicMinimize: Iter:   4  G: -2716.355139248700198  |grad|_K:  1.428e-04  alpha:  1.000e+00  linmin: -1.105e-01  t[s]:  13403.53
IonicMinimize: Converged (|Delta G|<1.000000e-04 for 2 iters).

#--- Lowdin population analysis ---
# oxidation-state Ag +0.346 +0.161 -0.033 +0.346 -0.005 +0.001 +0.003 +0.002 +0.002 +0.004 +0.004 +0.004 +0.002 +0.002 +0.003 +0.001 -0.005 -0.033 +0.161
# magnetic-moments Ag -0.000 +0.000 +0.000 -0.000 +0.000 +0.000 -0.000 -0.000 -0.000 -0.000 -0.000 -0.000 -0.000 -0.000 -0.000 +0.000 +0.000 +0.000 +0.000


Dumping 'jdft.n_up' ... done
Dumping 'jdft.n_dn' ... done
Dumping 'jdft.tau_up' ... done
Dumping 'jdft.tau_dn' ... done
Dumping 'jdft.eigenvals' ... done
Dumping 'jdft.eigStats' ... 
	eMin: -3.626213 at state 0 ( [ +0.000000 +0.000000 +0.000000 ] spin 1 )
	HOMO: -0.244994 at state 14 ( [ +0.272727 +0.200000 +0.000000 ] spin 1 )
	mu  : -0.244750
	LUMO: -0.244287 at state 8 ( [ +0.181818 +0.000000 +0.000000 ] spin 1 )
	eMax: +0.179813 at state 28 ( [ +0.000000 +0.000000 +0.000000 ] spin -1 )
	HOMO-LUMO gap: +0.000707
	Optical gap  : +0.001041 at state 36 ( [ +0.181818 +0.000000 +0.000000 ] spin -1 )
Dumping 'jdft.kPts' ... done
Dumping 'jdft.kMap' ... done
Dumping 'jdft.dosUp' ... done.
Dumping 'jdft.dosDn' ... done.
End date and time: Fri Sep  9 12:10:59 2022  (Duration: 0-3:44:36.47)
Done!

PROFILER:             augmentDensityGrid     5.817100 +/-     0.112811 s,  217 calls,   1262.310618 s total
PROFILER:         augmentDensityGridGrad     0.298468 +/-     0.090803 s,  116 calls,     34.622328 s total
PROFILER:        augmentDensitySpherical     0.002475 +/-     0.000187 s,  434 calls,      1.074026 s total
PROFILER:    augmentDensitySphericalGrad     0.002659 +/-     0.000367 s,  261 calls,      0.694129 s total
PROFILER:                 augmentOverlap     1.784645 +/-     0.122806 s,  922 calls,   1645.442720 s total
PROFILER:                     diagouterI     5.409189 +/-     0.210168 s,  440 calls,   2380.043251 s total
PROFILER:              EdensityAndVscloc     3.140214 +/-     1.003851 s,  217 calls,    681.426411 s total
PROFILER:                     EnlAndGrad     0.009939 +/-     0.001090 s,  475 calls,      4.720913 s total
PROFILER:            ExCorrCommunication     0.032446 +/-     0.181932 s, 1370 calls,     44.451184 s total
PROFILER:               ExCorrFunctional     0.005349 +/-     0.000979 s,  236 calls,      1.262436 s total
PROFILER:                    ExCorrTotal     0.250984 +/-     0.409569 s,  236 calls,     59.232247 s total
PROFILER:                   Idag_DiagV_I    10.624474 +/-     1.241307 s,  249 calls,   2645.493911 s total
PROFILER:                    initWeights     1.821802 +/-     0.000000 s,    1 calls,      1.821802 s total
PROFILER:                    inv(matrix)     0.006935 +/-     0.000529 s,  428 calls,      2.968307 s total
PROFILER:            matrix::diagonalize     0.021209 +/-     0.012765 s,  683 calls,     14.486058 s total
PROFILER:                    matrix::set     0.000008 +/-     0.000017 s, 14144 calls,      0.108723 s total
PROFILER:            orthoMatrix(matrix)     0.003619 +/-     0.002600 s,  451 calls,      1.632281 s total
PROFILER:     RadialFunctionR::transform     0.063692 +/-     0.457787 s,   57 calls,      3.630431 s total
PROFILER:                    reduceKmesh     0.000667 +/-     0.000000 s,    1 calls,      0.000667 s total
PROFILER:   VanDerWaalsD3::energyAndGrad     0.011541 +/-     0.000452 s,   13 calls,      0.150029 s total
PROFILER:               WavefunctionDrag    17.186605 +/-     3.307267 s,    6 calls,    103.119633 s total
PROFILER:                            Y*M     0.610911 +/-     0.146880 s, 2993 calls,   1828.457795 s total
PROFILER:                          Y1^Y2     0.643674 +/-     0.159382 s, 1942 calls,   1250.015130 s total

MEMUSAGE:                   ColumnBundle     0.628580 GB
MEMUSAGE:        complexScalarFieldTilde     0.010815 GB
MEMUSAGE:                    IndexArrays     0.015255 GB
MEMUSAGE:                         matrix     0.035496 GB
MEMUSAGE:                           misc     0.010882 GB
MEMUSAGE:                    ScalarField     0.078406 GB
MEMUSAGE:               ScalarFieldTilde     0.057183 GB
MEMUSAGE:                          Total     0.719275 GB
