
*************** JDFTx 1.6.0  ***************

Start date and time: Mon Dec  6 16:52:37 2021
Executable /projects/musgravc/apps/jdftx-1.6.1/build/jdftx with command-line: -i in
Running on hosts (process indices):  shas0218.rc.int.colorado.edu (0-23)
Divided in process groups (process indices):  0 (0)  1 (1)  2 (2)  3 (3)  4 (4)  5 (5)  6 (6)  7 (7)  8 (8)  9 (9)  10 (10)  11 (11)  12 (12)  13 (13)  14 (14)  15 (15)  16 (16)  17 (17)  18 (18)  19 (19)  20 (20)  21 (21)  22 (22)  23 (23)
Resource initialization completed at t[s]:      0.00
Run totals: 24 processes, 24 threads, 0 GPUs


Input parsed successfully to the following command list (including defaults):

basis kpoint-dependent
converge-empty-states yes
coords-type Cartesian
core-overlap-check none
coulomb-interaction Periodic
davidson-band-ratio 1.1
density-of-states Etol 1.000000e-06 Esigma 1.000000e-03 \
		Complete \
	Total \
	OrthoOrbital Pt 1   s \
	OrthoOrbital Pt 1   p \
	OrthoOrbital Pt 1   px \
	OrthoOrbital Pt 1   py \
	OrthoOrbital Pt 1   pz \
	OrthoOrbital Pt 1   d \
	OrthoOrbital Pt 1   dxy \
	OrthoOrbital Pt 1   dyz \
	OrthoOrbital Pt 1   dz2 \
	OrthoOrbital Pt 1   dxz \
	OrthoOrbital Pt 1   dx2-y2 \
	OrthoOrbital Pt 2   s \
	OrthoOrbital Pt 2   p \
	OrthoOrbital Pt 2   px \
	OrthoOrbital Pt 2   py \
	OrthoOrbital Pt 2   pz \
	OrthoOrbital Pt 2   d \
	OrthoOrbital Pt 2   dxy \
	OrthoOrbital Pt 2   dyz \
	OrthoOrbital Pt 2   dz2 \
	OrthoOrbital Pt 2   dxz \
	OrthoOrbital Pt 2   dx2-y2 \
	OrthoOrbital Pt 3   s \
	OrthoOrbital Pt 3   p \
	OrthoOrbital Pt 3   px \
	OrthoOrbital Pt 3   py \
	OrthoOrbital Pt 3   pz \
	OrthoOrbital Pt 3   d \
	OrthoOrbital Pt 3   dxy \
	OrthoOrbital Pt 3   dyz \
	OrthoOrbital Pt 3   dz2 \
	OrthoOrbital Pt 3   dxz \
	OrthoOrbital Pt 3   dx2-y2 \
	OrthoOrbital Pt 4   s \
	OrthoOrbital Pt 4   p \
	OrthoOrbital Pt 4   px \
	OrthoOrbital Pt 4   py \
	OrthoOrbital Pt 4   pz \
	OrthoOrbital Pt 4   d \
	OrthoOrbital Pt 4   dxy \
	OrthoOrbital Pt 4   dyz \
	OrthoOrbital Pt 4   dz2 \
	OrthoOrbital Pt 4   dxz \
	OrthoOrbital Pt 4   dx2-y2 \
	OrthoOrbital Pt 5   s \
	OrthoOrbital Pt 5   p \
	OrthoOrbital Pt 5   px \
	OrthoOrbital Pt 5   py \
	OrthoOrbital Pt 5   pz \
	OrthoOrbital Pt 5   d \
	OrthoOrbital Pt 5   dxy \
	OrthoOrbital Pt 5   dyz \
	OrthoOrbital Pt 5   dz2 \
	OrthoOrbital Pt 5   dxz \
	OrthoOrbital Pt 5   dx2-y2 \
	OrthoOrbital Pt 6   s \
	OrthoOrbital Pt 6   p \
	OrthoOrbital Pt 6   px \
	OrthoOrbital Pt 6   py \
	OrthoOrbital Pt 6   pz \
	OrthoOrbital Pt 6   d \
	OrthoOrbital Pt 6   dxy \
	OrthoOrbital Pt 6   dyz \
	OrthoOrbital Pt 6   dz2 \
	OrthoOrbital Pt 6   dxz \
	OrthoOrbital Pt 6   dx2-y2 \
	OrthoOrbital Pt 7   s \
	OrthoOrbital Pt 7   p \
	OrthoOrbital Pt 7   px \
	OrthoOrbital Pt 7   py \
	OrthoOrbital Pt 7   pz \
	OrthoOrbital Pt 7   d \
	OrthoOrbital Pt 7   dxy \
	OrthoOrbital Pt 7   dyz \
	OrthoOrbital Pt 7   dz2 \
	OrthoOrbital Pt 7   dxz \
	OrthoOrbital Pt 7   dx2-y2 \
	OrthoOrbital Pt 8   s \
	OrthoOrbital Pt 8   p \
	OrthoOrbital Pt 8   px \
	OrthoOrbital Pt 8   py \
	OrthoOrbital Pt 8   pz \
	OrthoOrbital Pt 8   d \
	OrthoOrbital Pt 8   dxy \
	OrthoOrbital Pt 8   dyz \
	OrthoOrbital Pt 8   dz2 \
	OrthoOrbital Pt 8   dxz \
	OrthoOrbital Pt 8   dx2-y2 \
	OrthoOrbital Pt 9   s \
	OrthoOrbital Pt 9   p \
	OrthoOrbital Pt 9   px \
	OrthoOrbital Pt 9   py \
	OrthoOrbital Pt 9   pz \
	OrthoOrbital Pt 9   d \
	OrthoOrbital Pt 9   dxy \
	OrthoOrbital Pt 9   dyz \
	OrthoOrbital Pt 9   dz2 \
	OrthoOrbital Pt 9   dxz \
	OrthoOrbital Pt 9   dx2-y2 \
	OrthoOrbital Pt 10   s \
	OrthoOrbital Pt 10   p \
	OrthoOrbital Pt 10   px \
	OrthoOrbital Pt 10   py \
	OrthoOrbital Pt 10   pz \
	OrthoOrbital Pt 10   d \
	OrthoOrbital Pt 10   dxy \
	OrthoOrbital Pt 10   dyz \
	OrthoOrbital Pt 10   dz2 \
	OrthoOrbital Pt 10   dxz \
	OrthoOrbital Pt 10   dx2-y2 \
	OrthoOrbital Pt 11   s \
	OrthoOrbital Pt 11   p \
	OrthoOrbital Pt 11   px \
	OrthoOrbital Pt 11   py \
	OrthoOrbital Pt 11   pz \
	OrthoOrbital Pt 11   d \
	OrthoOrbital Pt 11   dxy \
	OrthoOrbital Pt 11   dyz \
	OrthoOrbital Pt 11   dz2 \
	OrthoOrbital Pt 11   dxz \
	OrthoOrbital Pt 11   dx2-y2
dump End ElecDensity KEdensity BandEigs EigStats RhoAtom DOS Kpoints
dump Ionic State IonicPositions Lattice EigStats Ecomponents
dump 
dump 
dump 
dump 
dump 
dump 
dump 
dump 
dump-name jdft.$VAR
elec-cutoff 20
elec-eigen-algo Davidson
elec-ex-corr gga-PBE
elec-initial-magnetization 0.000000 no
elec-n-bands 106
elec-smearing Fermi 0.001
electronic-minimize  \
	dirUpdateScheme      FletcherReeves \
	linminMethod         DirUpdateRecommended \
	nIterations          100 \
	history              15 \
	knormThreshold       0 \
	energyDiffThreshold  1e-07 \
	nEnergyDiff          2 \
	alphaTstart          1 \
	alphaTmin            1e-10 \
	updateTestStepSize   yes \
	alphaTreduceFactor   0.1 \
	alphaTincreaseFactor 3 \
	nAlphaAdjustMax      3 \
	wolfeEnergy          0.0001 \
	wolfeGradient        0.9 \
	fdTest               no
exchange-regularization WignerSeitzTruncated
fluid LinearPCM 298.000000 1.013250
fluid-anion F- 0.5 MeanFieldLJ \
	epsBulk 1 \
	pMol 0 \
	epsInf 1 \
	Pvap 0 \
	sigmaBulk 0 \
	Rvdw 2.24877 \
	Res 0 \
	tauNuc 343133
fluid-cation Na+ 0.5 MeanFieldLJ \
	epsBulk 1 \
	pMol 0 \
	epsInf 1 \
	Pvap 0 \
	sigmaBulk 0 \
	Rvdw 2.19208 \
	Res 0 \
	tauNuc 343133
fluid-ex-corr lda-TF lda-PZ
fluid-gummel-loop 10 1.000000e-05
fluid-minimize  \
	dirUpdateScheme      PolakRibiere \
	linminMethod         DirUpdateRecommended \
	nIterations          400 \
	history              15 \
	knormThreshold       1e-11 \
	energyDiffThreshold  0 \
	nEnergyDiff          2 \
	alphaTstart          1 \
	alphaTmin            1e-10 \
	updateTestStepSize   yes \
	alphaTreduceFactor   0.1 \
	alphaTincreaseFactor 3 \
	nAlphaAdjustMax      6 \
	wolfeEnergy          0.0001 \
	wolfeGradient        0.9 \
	fdTest               no
fluid-solvent H2O 55.338 ScalarEOS \
	epsBulk 78.4 \
	pMol 0.92466 \
	epsInf 1.77 \
	Pvap 1.06736e-10 \
	sigmaBulk 4.62e-05 \
	Rvdw 2.61727 \
	Res 1.42 \
	tauNuc 343133 \
	poleEl 15 7 1
forces-output-coords Positions
ion Pt   5.231996000000000   0.000000000000000  23.424781000000003 1
ion Pt  -0.000002000000000   4.732522000000001   1.115501000000000 1
ion Pt   2.616001000000000   0.788752000000000   3.346429000000000 1
ion Pt   2.615999000000000   5.521274000000000   5.577357000000001 1
ion Pt   0.000000000000000   1.577504000000000   7.808285000000001 1
ion Pt  -0.000002000000000   6.310026000000000  10.039213000000000 1
ion Pt   2.616001000000000   2.366257000000000  12.270141000000002 1
ion Pt   2.615999000000000   7.098778000000001  14.501068999999999 1
ion Pt   0.000000000000000   3.155009000000001  16.731997000000000 1
ion Pt  -0.000002000000000   7.887530000000001  18.962924999999998 1
ion Pt   2.616001000000000   3.943761000000000  21.193853000000001 1
ion-species /projects/musgravc/apps/jdftx-1.6.0/build/pseudopotentials/GBRV_v1.5/$ID_pbe_v1.uspp
ion-species /projects/musgravc/apps/jdftx-1.6.0/build/pseudopotentials/GBRV_v1.5/$ID_pbe_v1.2.uspp
ion-species /projects/musgravc/apps/jdftx-1.6.0/build/pseudopotentials/GBRV_v1.5/$ID_pbe_v1.4.uspp
ion-species /projects/musgravc/apps/jdftx-1.6.0/build/pseudopotentials/GBRV_v1.5/$ID_pbe_v1.5.uspp
ion-width Ecut
ionic-minimize  \
	dirUpdateScheme      L-BFGS \
	linminMethod         DirUpdateRecommended \
	nIterations          100 \
	history              15 \
	knormThreshold       0.0001 \
	energyDiffThreshold  1e-06 \
	nEnergyDiff          2 \
	alphaTstart          1 \
	alphaTmin            1e-10 \
	updateTestStepSize   yes \
	alphaTreduceFactor   0.1 \
	alphaTincreaseFactor 3 \
	nAlphaAdjustMax      3 \
	wolfeEnergy          0.0001 \
	wolfeGradient        0.9 \
	fdTest               no
kpoint   0.000000000000   0.000000000000   0.000000000000  1.00000000000000
kpoint-folding 13 7 1 
latt-move-scale 0 0 0
latt-scale 1 1 1 
lattice  \
	   5.231996000000000   -2.615997000000000    0.000000000000000  \
	   0.000000000000000    8.676283000000000    0.000000000000000  \
	   0.000000000000000    0.000000000000000   73.620697000000007 
lattice-minimize  \
	dirUpdateScheme      L-BFGS \
	linminMethod         DirUpdateRecommended \
	nIterations          0 \
	history              15 \
	knormThreshold       0 \
	energyDiffThreshold  1e-06 \
	nEnergyDiff          2 \
	alphaTstart          1 \
	alphaTmin            1e-10 \
	updateTestStepSize   yes \
	alphaTreduceFactor   0.1 \
	alphaTincreaseFactor 3 \
	nAlphaAdjustMax      3 \
	wolfeEnergy          0.0001 \
	wolfeGradient        0.9 \
	fdTest               no
lcao-params 30 1e-06 0.001
pcm-variant CANDLE
spintype z-spin
subspace-rotation-factor 1 yes
symmetries none
symmetry-threshold 0.0001
target-mu -0.1713 no

van-der-waals D3


Applied RMS atom displacement 0 bohrs to make symmetries exact.

---------- Initializing the Grid ----------
R = 
[        5.232       -2.616            0  ]
[            0      8.67628            0  ]
[            0            0      73.6207  ]
unit cell volume = 3341.96
G =
[    1.20092    0.36209         -0  ]
[          0   0.724179          0  ]
[          0         -0  0.0853454  ]
Minimum fftbox size, Smin = [  24  40  300  ]
Chosen fftbox size, S = [  24  40  300  ]

---------- Exchange Correlation functional ----------
Initalized PBE GGA exchange.
Initalized PBE GGA correlation.

---------- Setting up pseudopotentials ----------
Width of ionic core gaussian charges (only for fluid interactions / plotting) set to 0.397384

Reading pseudopotential file '/projects/musgravc/apps/jdftx-1.6.0/build/pseudopotentials/GBRV_v1.5/pt_pbe_v1.4.uspp':
  Title: Pt.  Created by USPP 7.3.6 on 31-3-15
  Reference state energy: -105.002503.  16 valence electrons in orbitals:
    |510>  occupation: 6  eigenvalue: -2.158104
    |520>  occupation: 9.5  eigenvalue: -0.335376
    |600>  occupation: 0  eigenvalue: -0.319640
    |610>  occupation: 0  eigenvalue: -0.122947
  lMax: 2  lLocal: 3  QijEcut: 5.5
  6 projectors sampled on a log grid with 745 points:
    l: 0  eig: -0.319640  rCut: 2.45
    l: 0  eig: 1.500000  rCut: 2.45
    l: 1  eig: -2.158104  rCut: 1.6
    l: 1  eig: -0.122947  rCut: 1.6
    l: 2  eig: -0.500000  rCut: 1.6
    l: 2  eig: -0.335375  rCut: 1.6
  Partial core density with radius 1.1
  Transforming core density to a uniform radial grid of dG=0.02 with 1353 points.
  Transforming local potential to a uniform radial grid of dG=0.02 with 1353 points.
  Transforming nonlocal projectors to a uniform radial grid of dG=0.02 with 432 points.
  Transforming density augmentations to a uniform radial grid of dG=0.02 with 1353 points.
  Transforming atomic orbitals to a uniform radial grid of dG=0.02 with 432 points.
  Core radius for overlap checks: 2.45 bohrs.

Initialized 1 species with 11 total atoms.

Folded 1 k-points by 13x7x1 to 91 k-points.

---------- Setting up k-points, bands, fillings ----------
No reducable k-points. 
Computing the number of bands and number of electrons
Calculating initial fillings.
nElectrons: 176.000000   nBands: 106   nStates: 182

----- Setting up reduced wavefunction bases (one per k-point) -----
average nbasis = 14277.418 , ideal nbasis = 14277.101

----- Initializing Supercell corresponding to k-point mesh -----
Lattice vector linear combinations in supercell:
[  13   0   0  ]
[   0   7   0  ]
[   0   0   1  ]
Supercell lattice vectors:
[  68.0159  -18.312  0  ]
[  0  60.734  0  ]
[  0  0  73.6207  ]

Initializing DFT-D3 calculator:
	Parameters set for gga-PBE functional
	s6:  1.000  s_r6:  1.217
	s8:  0.722  s_r8:  1.000
	Per-atom parameters loaded for:
	Pt:  sqrtQ[a0]:  5.888  Rcov[a0]:  2.116  CN: [ 0.00 1.92 6.67 ]

Initializing DFT-D2 calculator for fluid / solvation:
	Pt:  C6:  815.23 Eh-a0^6  R0: 3.326 a0 (WARNING: beyond Grimme's data set)

---------- Setting up ewald sum ----------
Optimum gaussian width for ewald sums = 3.999555 bohr.
Real space sum over 1235 unit cells with max indices [  9  6  2  ]
Reciprocal space sum over 4543 terms with max indices [  3  5  29  ]

Computing DFT-D3 correction:
# coordination-number Pt 5.568 5.568 7.955 9.523 9.556 9.561 9.561 9.561 9.556 9.523 7.955
# diagonal-C6 Pt 336.87 336.87 336.87 336.87 336.87 336.87 336.87 336.87 336.87 336.87 336.87
EvdW_6 =   -0.096460
EvdW_8 =   -0.156125

---------- Allocating electronic variables ----------
Initializing wave functions:  linear combination of atomic orbitals
Pt pseudo-atom occupations:   s ( 0 )  p ( 6 0 )  d ( 10 )
	FillingsUpdate:  mu: -0.171300000  nElectrons: 176.000000  magneticMoment: [ Abs: 0.00116  Tot: +0.00013 ]
LCAOMinimize: Iter:   0  G: -942.7099195327264169  |grad|_K:  1.207e-02  alpha:  1.000e+00
LCAOMinimize: 	Step increased G by 1.784795e+02, reducing alpha to 2.194106e-02.
	FillingsUpdate:  mu: -0.171300000  nElectrons: 176.000000  magneticMoment: [ Abs: 0.00094  Tot: +0.00001 ]
LCAOMinimize: Iter:   1  G: -946.3958838895318877  |grad|_K:  5.449e-03  alpha:  2.194e-02  linmin:  1.539e-01  cgtest: -9.156e-01  t[s]:    104.83
LCAOMinimize: 	Bad step direction: g.d > 0.
LCAOMinimize: 	Undoing step.
LCAOMinimize: 	Step failed: resetting search direction.
	FillingsUpdate:  mu: -0.171300000  nElectrons: 176.000000  magneticMoment: [ Abs: 0.00094  Tot: +0.00001 ]
LCAOMinimize: Iter:   2  G: -946.3958838895318877  |grad|_K:  5.449e-03  alpha:  0.000e+00
	FillingsUpdate:  mu: -0.171300000  nElectrons: 176.000000  magneticMoment: [ Abs: 0.00090  Tot: +0.00004 ]
LCAOMinimize: Iter:   3  G: -947.3210891184810407  |grad|_K:  2.059e-03  alpha:  1.841e-02  linmin:  4.182e-02  cgtest: -2.033e-01  t[s]:    161.87
LCAOMinimize: 	Predicted alpha/alphaT>3.000000, increasing alphaT to 5.523941e-02.
	FillingsUpdate:  mu: -0.171300000  nElectrons: 176.000000  magneticMoment: [ Abs: 0.00077  Tot: +0.00002 ]
LCAOMinimize: Iter:   4  G: -947.7071808327698363  |grad|_K:  2.832e-03  alpha:  6.293e-02  linmin:  5.367e-04  cgtest:  5.154e-01  t[s]:    203.48
	FillingsUpdate:  mu: -0.171300000  nElectrons: 176.000000  magneticMoment: [ Abs: 0.00071  Tot: +0.00003 ]
LCAOMinimize: Iter:   5  G: -947.9047857713134135  |grad|_K:  1.185e-03  alpha:  1.548e-02  linmin: -6.354e-03  cgtest:  6.649e-02  t[s]:    236.43
LCAOMinimize: 	Predicted alpha/alphaT>3.000000, increasing alphaT to 4.643479e-02.
	FillingsUpdate:  mu: -0.171300000  nElectrons: 176.000000  magneticMoment: [ Abs: 0.00060  Tot: +0.00001 ]
LCAOMinimize: Iter:   6  G: -948.1111558728504178  |grad|_K:  3.092e-03  alpha:  9.571e-02  linmin:  3.455e-03  cgtest: -7.975e-02  t[s]:    277.85
LCAOMinimize: 	Step increased G by 1.180288e-02, reducing alpha to 1.033156e-03.
	FillingsUpdate:  mu: -0.171300000  nElectrons: 176.000000  magneticMoment: [ Abs: 0.00060  Tot: +0.00000 ]
LCAOMinimize: Iter:   7  G: -948.1367255136170797  |grad|_K:  2.510e-03  alpha:  1.033e-03  linmin: -2.939e-02  cgtest:  9.987e-01  t[s]:    334.75
LCAOMinimize: Encountered beta<0, resetting CG.
LCAOMinimize: 	Predicted alpha/alphaT>3.000000, increasing alphaT to 3.099467e-03.
	FillingsUpdate:  mu: -0.171300000  nElectrons: 176.000000  magneticMoment: [ Abs: 0.00060  Tot: -0.00000 ]
LCAOMinimize: Iter:   8  G: -948.1769872035483786  |grad|_K:  5.402e-04  alpha:  3.975e-03  linmin:  3.684e-03  cgtest: -2.146e-02  t[s]:    376.27
LCAOMinimize: 	Predicted alpha/alphaT>3.000000, increasing alphaT to 1.192373e-02.
LCAOMinimize: 	Predicted alpha/alphaT>3.000000, increasing alphaT to 3.577118e-02.
LCAOMinimize: 	Predicted alpha/alphaT>3.000000, increasing alphaT to 1.073135e-01.
	FillingsUpdate:  mu: -0.171300000  nElectrons: 176.000000  magneticMoment: [ Abs: 0.00054  Tot: +0.00000 ]
LCAOMinimize: Iter:   9  G: -948.2340219388411242  |grad|_K:  5.286e-04  alpha:  1.171e-01  linmin: -8.626e-03  cgtest:  1.374e-01  t[s]:    426.52
	FillingsUpdate:  mu: -0.171300000  nElectrons: 176.000000  magneticMoment: [ Abs: 0.00053  Tot: +0.00001 ]
LCAOMinimize: Iter:  10  G: -948.2440565294735961  |grad|_K:  1.126e-03  alpha:  2.139e-02  linmin:  3.399e-04  cgtest: -2.813e-02  t[s]:    459.65
	FillingsUpdate:  mu: -0.171300000  nElectrons: 176.000000  magneticMoment: [ Abs: 0.00045  Tot: +0.00001 ]
LCAOMinimize: Iter:  11  G: -948.3085084982524222  |grad|_K:  9.921e-04  alpha:  3.082e-02  linmin: -3.021e-03  cgtest:  2.858e-01  t[s]:    492.68
	FillingsUpdate:  mu: -0.171300000  nElectrons: 176.000000  magneticMoment: [ Abs: 0.00044  Tot: +0.00000 ]
LCAOMinimize: Iter:  12  G: -948.3291596287314178  |grad|_K:  6.862e-04  alpha:  1.268e-02  linmin:  1.365e-03  cgtest: -7.070e-02  t[s]:    525.62
	FillingsUpdate:  mu: -0.171300000  nElectrons: 176.000000  magneticMoment: [ Abs: 0.00044  Tot: +0.00000 ]
LCAOMinimize: Iter:  13  G: -948.3324106298632614  |grad|_K:  2.258e-04  alpha:  4.366e-03  linmin: -9.721e-04  cgtest:  1.002e-01  t[s]:    558.67
LCAOMinimize: 	Predicted alpha/alphaT>3.000000, increasing alphaT to 1.309725e-02.
	FillingsUpdate:  mu: -0.171300000  nElectrons: 176.000000  magneticMoment: [ Abs: 0.00043  Tot: +0.00000 ]
LCAOMinimize: Iter:  14  G: -948.3353913691528305  |grad|_K:  3.439e-04  alpha:  3.572e-02  linmin: -1.202e-03  cgtest:  9.855e-03  t[s]:    600.30
	FillingsUpdate:  mu: -0.171300000  nElectrons: 176.000000  magneticMoment: [ Abs: 0.00043  Tot: -0.00000 ]
LCAOMinimize: Iter:  15  G: -948.3368717897490114  |grad|_K:  3.052e-04  alpha:  7.412e-03  linmin: -2.108e-03  cgtest:  6.067e-03  t[s]:    633.33
	FillingsUpdate:  mu: -0.171300000  nElectrons: 176.000000  magneticMoment: [ Abs: 0.00042  Tot: -0.00000 ]
LCAOMinimize: Iter:  16  G: -948.3398727802805297  |grad|_K:  1.627e-04  alpha:  1.978e-02  linmin:  5.341e-03  cgtest: -1.100e-01  t[s]:    666.15
	FillingsUpdate:  mu: -0.171300000  nElectrons: 176.000000  magneticMoment: [ Abs: 0.00042  Tot: -0.00000 ]
LCAOMinimize: Iter:  17  G: -948.3404615651340919  |grad|_K:  2.580e-04  alpha:  1.460e-02  linmin: -1.172e-04  cgtest:  5.217e-02  t[s]:    699.03
	FillingsUpdate:  mu: -0.171300000  nElectrons: 176.000000  magneticMoment: [ Abs: 0.00042  Tot: -0.00001 ]
LCAOMinimize: Iter:  18  G: -948.3418984926325948  |grad|_K:  1.678e-04  alpha:  1.337e-02  linmin:  1.326e-05  cgtest: -1.862e-01  t[s]:    732.13
	FillingsUpdate:  mu: -0.171300000  nElectrons: 176.000000  magneticMoment: [ Abs: 0.00041  Tot: -0.00001 ]
LCAOMinimize: Iter:  19  G: -948.3435656393630779  |grad|_K:  1.044e-04  alpha:  3.733e-02  linmin:  1.865e-03  cgtest: -7.673e-03  t[s]:    765.05
	FillingsUpdate:  mu: -0.171300000  nElectrons: 176.000000  magneticMoment: [ Abs: 0.00041  Tot: -0.00001 ]
LCAOMinimize: Iter:  20  G: -948.3439463008735402  |grad|_K:  1.795e-04  alpha:  2.214e-02  linmin:  2.011e-05  cgtest:  1.957e-02  t[s]:    798.05
	FillingsUpdate:  mu: -0.171300000  nElectrons: 176.000000  magneticMoment: [ Abs: 0.00041  Tot: -0.00001 ]
LCAOMinimize: Iter:  21  G: -948.3443537369734031  |grad|_K:  7.394e-05  alpha:  7.929e-03  linmin:  6.325e-04  cgtest: -6.926e-02  t[s]:    831.17
LCAOMinimize: 	Predicted alpha/alphaT>3.000000, increasing alphaT to 2.378716e-02.
	FillingsUpdate:  mu: -0.171300000  nElectrons: 176.000000  magneticMoment: [ Abs: 0.00041  Tot: -0.00000 ]
LCAOMinimize: Iter:  22  G: -948.3445856023383840  |grad|_K:  6.289e-05  alpha:  2.659e-02  linmin:  2.878e-04  cgtest:  1.681e-02  t[s]:    872.41
	FillingsUpdate:  mu: -0.171300000  nElectrons: 176.000000  magneticMoment: [ Abs: 0.00041  Tot: +0.00000 ]
LCAOMinimize: Iter:  23  G: -948.3447891650464499  |grad|_K:  7.944e-05  alpha:  3.189e-02  linmin: -1.623e-03  cgtest:  2.586e-02  t[s]:    905.16
	FillingsUpdate:  mu: -0.171300000  nElectrons: 176.000000  magneticMoment: [ Abs: 0.00041  Tot: +0.00000 ]
LCAOMinimize: Iter:  24  G: -948.3448366042732687  |grad|_K:  2.261e-05  alpha:  4.638e-03  linmin: -1.677e-03  cgtest: -1.319e-01  t[s]:    938.14
LCAOMinimize: 	Predicted alpha/alphaT>3.000000, increasing alphaT to 1.391509e-02.
	FillingsUpdate:  mu: -0.171300000  nElectrons: 176.000000  magneticMoment: [ Abs: 0.00041  Tot: +0.00000 ]
LCAOMinimize: Iter:  25  G: -948.3448586007773429  |grad|_K:  1.437e-05  alpha:  2.469e-02  linmin: -2.851e-02  cgtest:  2.772e-01  t[s]:    980.11
	FillingsUpdate:  mu: -0.171300000  nElectrons: 176.000000  magneticMoment: [ Abs: 0.00041  Tot: +0.00001 ]
LCAOMinimize: Iter:  26  G: -948.3448707131767605  |grad|_K:  2.558e-05  alpha:  3.176e-02  linmin: -1.438e-02  cgtest:  8.142e-02  t[s]:   1013.12
	FillingsUpdate:  mu: -0.171300000  nElectrons: 176.000000  magneticMoment: [ Abs: 0.00041  Tot: +0.00001 ]
LCAOMinimize: Iter:  27  G: -948.3448824407939810  |grad|_K:  2.545e-05  alpha:  9.915e-03  linmin: -2.871e-03  cgtest: -3.412e-01  t[s]:   1046.08
	FillingsUpdate:  mu: -0.171300000  nElectrons: 176.000000  magneticMoment: [ Abs: 0.00041  Tot: +0.00001 ]
LCAOMinimize: Iter:  28  G: -948.3449013918409491  |grad|_K:  2.064e-05  alpha:  1.529e-02  linmin: -1.292e-02  cgtest:  9.292e-01  t[s]:   1079.07
LCAOMinimize: Encountered beta<0, resetting CG.
	FillingsUpdate:  mu: -0.171300000  nElectrons: 176.000000  magneticMoment: [ Abs: 0.00041  Tot: +0.00001 ]
LCAOMinimize: Iter:  29  G: -948.3449052764251519  |grad|_K:  1.469e-05  alpha:  5.416e-03  linmin:  5.956e-03  cgtest: -3.612e-02  t[s]:   1111.93
LCAOMinimize: 	Predicted alpha/alphaT>3.000000, increasing alphaT to 1.624807e-02.
	FillingsUpdate:  mu: -0.171300000  nElectrons: 176.000000  magneticMoment: [ Abs: 0.00041  Tot: +0.00001 ]
LCAOMinimize: Iter:  30  G: -948.3449139581899772  |grad|_K:  1.743e-05  alpha:  3.045e-02  linmin:  3.006e-02  cgtest: -1.864e-01  t[s]:   1153.56
LCAOMinimize: None of the convergence criteria satisfied after 30 iterations.
----- createFluidSolver() ----- (Fluid-side solver setup)
   Initializing fluid molecule 'H2O'
     Initializing site 'O'
       Electron density: proportional to exp(-r/0.36935)*erfc((r-0.51523)/0.36823) with norm 6.826
       Charge density: gaussian nuclear width 0.478731 with net site charge 0.826
       Polarizability: cuspless exponential with width 0.32 and norm 3.73
       Hard sphere radius: 2.57003 bohrs
       Positions in reference frame:
         [ +0.000000 +0.000000 +0.000000 ]
     Initializing site 'H'
       Electron density: proportional to exp(-r/0.34641)*erfc((r-0)/0.390882) with norm 0.587
       Charge density: gaussian nuclear width 0.377945 with net site charge -0.413
       Polarizability: cuspless exponential with width 0.39 and norm 3.3
       Positions in reference frame:
         [ +0.000000 -1.441945 +1.122523 ]
         [ +0.000000 +1.441945 +1.122523 ]
     Net charge: 0   dipole magnitude: 0.927204
     Initializing spherical shell mfKernel with radius 2.61727 Bohr
     deltaS corrections:
       site 'O': -7.54299
       site 'H': -6.83917
   Initializing fluid molecule 'Na+'
     Initializing site 'Na'
       Electron density: proportional to exp(-r/0.19682)*erfc((r-0.71491)/0.41314) with norm 8.1383
       Charge density: gaussian nuclear width 0.365347 with net site charge -1
       Hard sphere radius: 1.86327 bohrs
       Positions in reference frame:
         [ +0.000000 +0.000000 +0.000000 ]
     Net charge: -1   dipole magnitude: 0
     Initializing gaussian mfKernel with width: 1.55004 Bohr
     deltaS corrections:
       site 'Na': -22.3555
   Initializing fluid molecule 'F-'
     Initializing site 'F'
       Electron density: proportional to exp(-r/0.38886)*erfc((r-0)/0.438782) with norm 8
       Charge density: gaussian nuclear width 0.374796 with net site charge 1
       Hard sphere radius: 2.39995 bohrs
       Positions in reference frame:
         [ +0.000000 +0.000000 +0.000000 ]
     Net charge: 1   dipole magnitude: 0
     Initializing gaussian mfKernel with width: 1.59012 Bohr
     deltaS corrections:
       site 'F': -9.04335

Correction to mu due to finite nuclear width = -0.052253
   Cavity determined by nc: 0.00142 and sigma: 0.707107
   Nonlocal vdW cavity from gaussian model electron density with norm = 8 and sigma = 0.993594 bohr
   Charge asymmetry in cavity with sensitivity pCavity = 36.5 e-bohr/Eh
   Electrostatic cavity expanded by eta = 1.46 bohrs
   Weighted density cavitation model constrained by Nbulk: 0.0049383 bohr^-3, Pvap: 3.14029 kPa, Rvdw: 2.61727 bohr and sigmaBulk: 4.62e-05 Eh/bohr^2 at T: 298 K.
   Weighted density dispersion model using vdW pair potentials with single solvent site with sqrtC6eff: 0.77 SI.


---- Citations for features of the code used in this run ----

   Software package:
      R. Sundararaman, K. Letchworth-Weaver, K.A. Schwarz, D. Gunceler, Y. Ozhabes and T.A. Arias, 'JDFTx: software for joint density-functional theory', SoftwareX 6, 278 (2017)

   gga-PBE exchange-correlation functional:
      J.P. Perdew, K. Burke and M. Ernzerhof, Phys. Rev. Lett. 77, 3865 (1996)

   Pseudopotentials:
      KF Garrity, JW Bennett, KM Rabe and D Vanderbilt, Comput. Mater. Sci. 81, 446 (2014)

   DFT-D3 dispersion correction:
      S. Grimme, J. Antony, S. Ehrlich and H. Krieg, J. Chem. Phys. 132, 154104 (2010)

   DFT-D2 dispersion correction:
      S. Grimme, J. Comput. Chem. 27, 1787 (2006)

   Charge-asymmetric nonlocally-determined local-electric (CANDLE) solvation model:
      R. Sundararaman and W.A. Goddard III, J. Chem. Phys. 142, 064107 (2015)

   Total energy minimization with Auxiliary Hamiltonian:
      C. Freysoldt, S. Boeck, and J. Neugebauer, Phys. Rev. B 79, 241103(R) (2009)

   Grand-canonical (fixed-potential) DFT:
      R. Sundararaman, W. A. Goddard III and T. A. Arias, J. Chem. Phys. 146, 114104 (2017)

   Linear-tetrahedron sampling for density of states:
      G. Lehmann and M. Taut, Phys. status solidi (b) 54, 469 (1972)

This list may not be complete. Please suggest additional citations or
report any other bugs at https://github.com/shankar1729/jdftx/issues

Initialization completed successfully at t[s]:   1160.32


Computing DFT-D3 correction:
# coordination-number Pt 5.568 5.568 7.955 9.523 9.556 9.561 9.561 9.561 9.556 9.523 7.955
# diagonal-C6 Pt 336.87 336.87 336.87 336.87 336.87 336.87 336.87 336.87 336.87 336.87 336.87
EvdW_6 =   -0.096460
EvdW_8 =   -0.156125
Fluid solver invoked on fresh (random / LCAO) wavefunctions
Running a vacuum solve first:

-------- Initial electronic minimization -----------
	FillingsUpdate:  mu: +0.130446375  nElectrons: 176.000000  magneticMoment: [ Abs: 0.00041  Tot: +0.00001 ]
ElecMinimize: Iter:   0  G: -948.347174879633371  |grad|_K:  3.142e-05  alpha:  1.000e+00
	FillingsUpdate:  mu: +0.140367049  nElectrons: 176.000000  magneticMoment: [ Abs: 0.00033  Tot: +0.00002 ]
	SubspaceRotationAdjust: set factor to 0.556
ElecMinimize: Iter:   1  G: -948.459222093883227  |grad|_K:  4.948e-05  alpha:  4.122e-01  linmin:  1.965e-05  t[s]:   1226.84
	FillingsUpdate:  mu: +0.180368295  nElectrons: 176.000000  magneticMoment: [ Abs: 0.00032  Tot: +0.00002 ]
	SubspaceRotationAdjust: set factor to 0.327
ElecMinimize: Iter:   2  G: -948.464505133975308  |grad|_K:  3.964e-05  alpha:  1.117e-02  linmin:  1.608e-03  t[s]:   1266.78
	FillingsUpdate:  mu: +0.182793476  nElectrons: 176.000000  magneticMoment: [ Abs: 0.00031  Tot: +0.00002 ]
	SubspaceRotationAdjust: set factor to 0.364
ElecMinimize: Iter:   3  G: -948.467253283446098  |grad|_K:  2.029e-05  alpha:  9.048e-03  linmin: -1.261e-06  t[s]:   1306.42
	FillingsUpdate:  mu: +0.191951083  nElectrons: 176.000000  magneticMoment: [ Abs: 0.00031  Tot: +0.00002 ]
	SubspaceRotationAdjust: set factor to 0.232
ElecMinimize: Iter:   4  G: -948.469867005916058  |grad|_K:  3.031e-05  alpha:  2.293e-02  linmin: -8.721e-06  t[s]:   1346.40
	FillingsUpdate:  mu: +0.177854640  nElectrons: 176.000000  magneticMoment: [ Abs: 0.00027  Tot: +0.00001 ]
	SubspaceRotationAdjust: set factor to 0.123
	SubspaceRotationAdjust: resetting CG because factor has changed by 0.122535
ElecMinimize: 	State modified externally: resetting search direction.
ElecMinimize: Iter:   5  G: -948.484633499680285  |grad|_K:  2.964e-05  alpha:  5.814e-02
	FillingsUpdate:  mu: +0.138699073  nElectrons: 176.000000  magneticMoment: [ Abs: 0.00027  Tot: +0.00001 ]
	SubspaceRotationAdjust: set factor to 0.0482
ElecMinimize: Iter:   6  G: -948.491835028774744  |grad|_K:  8.601e-06  alpha:  2.961e-02  linmin: -7.631e-05  t[s]:   1448.38
ElecMinimize: 	Predicted alpha/alphaT>3.000000, increasing alphaT to 8.882496e-02.
	FillingsUpdate:  mu: +0.168394151  nElectrons: 176.000000  magneticMoment: [ Abs: 0.00025  Tot: +0.00001 ]
	SubspaceRotationAdjust: set factor to 0.0289
ElecMinimize: Iter:   7  G: -948.495361024467684  |grad|_K:  6.419e-06  alpha:  1.725e-01  linmin:  5.581e-05  t[s]:   1498.66
	FillingsUpdate:  mu: +0.167392785  nElectrons: 176.000000  magneticMoment: [ Abs: 0.00020  Tot: +0.00001 ]
	SubspaceRotationAdjust: set factor to 0.0462
ElecMinimize: Iter:   8  G: -948.499728315097286  |grad|_K:  5.071e-06  alpha:  3.843e-01  linmin:  3.445e-05  t[s]:   1538.54
	FillingsUpdate:  mu: +0.148709541  nElectrons: 176.000000  magneticMoment: [ Abs: 0.00017  Tot: +0.00001 ]
	SubspaceRotationAdjust: set factor to 0.0416
ElecMinimize: Iter:   9  G: -948.501823639697591  |grad|_K:  3.871e-06  alpha:  2.951e-01  linmin:  6.754e-06  t[s]:   1578.47
	FillingsUpdate:  mu: +0.147354936  nElectrons: 176.000000  magneticMoment: [ Abs: 0.00016  Tot: +0.00001 ]
	SubspaceRotationAdjust: set factor to 0.0315
ElecMinimize: Iter:  10  G: -948.502658709088564  |grad|_K:  3.249e-06  alpha:  2.017e-01  linmin: -8.919e-07  t[s]:   1618.41
	FillingsUpdate:  mu: +0.150199236  nElectrons: 176.000000  magneticMoment: [ Abs: 0.00016  Tot: +0.00001 ]
	SubspaceRotationAdjust: set factor to 0.0264
ElecMinimize: Iter:  11  G: -948.503126684235781  |grad|_K:  1.697e-06  alpha:  1.604e-01  linmin: -1.911e-06  t[s]:   1658.10
	FillingsUpdate:  mu: +0.154542235  nElectrons: 176.000000  magneticMoment: [ Abs: 0.00015  Tot: +0.00001 ]
	SubspaceRotationAdjust: set factor to 0.0304
ElecMinimize: Iter:  12  G: -948.503440176816412  |grad|_K:  1.557e-06  alpha:  3.939e-01  linmin:  1.393e-06  t[s]:   1698.10
	FillingsUpdate:  mu: +0.151329518  nElectrons: 176.000000  magneticMoment: [ Abs: 0.00015  Tot: +0.00001 ]
	SubspaceRotationAdjust: set factor to 0.032
ElecMinimize: Iter:  13  G: -948.503660969945031  |grad|_K:  1.432e-06  alpha:  3.295e-01  linmin:  9.141e-07  t[s]:   1738.17
	FillingsUpdate:  mu: +0.147455754  nElectrons: 176.000000  magneticMoment: [ Abs: 0.00015  Tot: +0.00002 ]
	SubspaceRotationAdjust: set factor to 0.0275
ElecMinimize: Iter:  14  G: -948.503791841132738  |grad|_K:  1.088e-06  alpha:  2.308e-01  linmin: -1.201e-07  t[s]:   1777.94
	FillingsUpdate:  mu: +0.146569900  nElectrons: 176.000000  magneticMoment: [ Abs: 0.00014  Tot: +0.00002 ]
	SubspaceRotationAdjust: set factor to 0.0361
ElecMinimize: Iter:  15  G: -948.503911170056313  |grad|_K:  8.752e-07  alpha:  3.650e-01  linmin:  2.489e-06  t[s]:   1817.71
	FillingsUpdate:  mu: +0.148765482  nElectrons: 176.000000  magneticMoment: [ Abs: 0.00014  Tot: +0.00002 ]
	SubspaceRotationAdjust: set factor to 0.038
ElecMinimize: Iter:  16  G: -948.504002835881352  |grad|_K:  9.891e-07  alpha:  4.331e-01  linmin:  1.510e-06  t[s]:   1857.67
	FillingsUpdate:  mu: +0.148787580  nElectrons: 176.000000  magneticMoment: [ Abs: 0.00014  Tot: +0.00002 ]
	SubspaceRotationAdjust: set factor to 0.0349
ElecMinimize: Iter:  17  G: -948.504091262413226  |grad|_K:  1.197e-06  alpha:  3.271e-01  linmin: -1.678e-07  t[s]:   1897.60
	FillingsUpdate:  mu: +0.146416338  nElectrons: 176.000000  magneticMoment: [ Abs: 0.00014  Tot: +0.00002 ]
	SubspaceRotationAdjust: set factor to 0.0313
ElecMinimize: Iter:  18  G: -948.504191808436644  |grad|_K:  9.620e-07  alpha:  2.539e-01  linmin: -8.239e-07  t[s]:   1937.52
	FillingsUpdate:  mu: +0.144096444  nElectrons: 176.000000  magneticMoment: [ Abs: 0.00013  Tot: +0.00002 ]
	SubspaceRotationAdjust: set factor to 0.0355
ElecMinimize: Iter:  19  G: -948.504300957375563  |grad|_K:  9.493e-07  alpha:  4.263e-01  linmin: -2.492e-06  t[s]:   1977.46
	FillingsUpdate:  mu: +0.144989944  nElectrons: 176.000000  magneticMoment: [ Abs: 0.00013  Tot: +0.00002 ]
	SubspaceRotationAdjust: set factor to 0.0352
ElecMinimize: Iter:  20  G: -948.504422640255484  |grad|_K:  1.123e-06  alpha:  4.879e-01  linmin: -2.856e-07  t[s]:   2017.38
	FillingsUpdate:  mu: +0.145006893  nElectrons: 176.000000  magneticMoment: [ Abs: 0.00012  Tot: +0.00002 ]
	SubspaceRotationAdjust: set factor to 0.0287
ElecMinimize: Iter:  21  G: -948.504520173982428  |grad|_K:  1.138e-06  alpha:  2.799e-01  linmin:  3.665e-07  t[s]:   2057.18
	FillingsUpdate:  mu: +0.143293539  nElectrons: 176.000000  magneticMoment: [ Abs: 0.00010  Tot: +0.00002 ]
	SubspaceRotationAdjust: set factor to 0.0256
ElecMinimize: Iter:  22  G: -948.504609504903669  |grad|_K:  8.024e-07  alpha:  2.496e-01  linmin: -1.466e-06  t[s]:   2097.64
	FillingsUpdate:  mu: +0.141657809  nElectrons: 176.000000  magneticMoment: [ Abs: 0.00009  Tot: +0.00002 ]
	SubspaceRotationAdjust: set factor to 0.0276
ElecMinimize: Iter:  23  G: -948.504673678473750  |grad|_K:  6.387e-07  alpha:  3.602e-01  linmin: -1.276e-06  t[s]:   2137.24
	FillingsUpdate:  mu: +0.141992894  nElectrons: 176.000000  magneticMoment: [ Abs: 0.00008  Tot: +0.00002 ]
	SubspaceRotationAdjust: set factor to 0.0255
ElecMinimize: Iter:  24  G: -948.504712000344057  |grad|_K:  6.060e-07  alpha:  3.396e-01  linmin: -3.375e-07  t[s]:   2177.35
	FillingsUpdate:  mu: +0.142590202  nElectrons: 176.000000  magneticMoment: [ Abs: 0.00007  Tot: +0.00002 ]
	SubspaceRotationAdjust: set factor to 0.0216
ElecMinimize: Iter:  25  G: -948.504739251926139  |grad|_K:  4.428e-07  alpha:  2.684e-01  linmin: -2.906e-07  t[s]:   2217.30
	FillingsUpdate:  mu: +0.142414258  nElectrons: 176.000000  magneticMoment: [ Abs: 0.00007  Tot: +0.00002 ]
	SubspaceRotationAdjust: set factor to 0.0245
ElecMinimize: Iter:  26  G: -948.504756455209190  |grad|_K:  3.134e-07  alpha:  3.173e-01  linmin: -2.519e-07  t[s]:   2257.06
	FillingsUpdate:  mu: +0.142095693  nElectrons: 176.000000  magneticMoment: [ Abs: 0.00006  Tot: +0.00002 ]
	SubspaceRotationAdjust: set factor to 0.0243
ElecMinimize: Iter:  27  G: -948.504765852073092  |grad|_K:  2.675e-07  alpha:  3.460e-01  linmin: -3.484e-07  t[s]:   2296.98
	FillingsUpdate:  mu: +0.142072702  nElectrons: 176.000000  magneticMoment: [ Abs: 0.00006  Tot: +0.00002 ]
	SubspaceRotationAdjust: set factor to 0.0228
ElecMinimize: Iter:  28  G: -948.504771679457804  |grad|_K:  2.198e-07  alpha:  2.945e-01  linmin: -2.403e-07  t[s]:   2336.74
	FillingsUpdate:  mu: +0.142189710  nElectrons: 176.000000  magneticMoment: [ Abs: 0.00006  Tot: +0.00002 ]
	SubspaceRotationAdjust: set factor to 0.0269
ElecMinimize: Iter:  29  G: -948.504776555377930  |grad|_K:  1.746e-07  alpha:  3.652e-01  linmin: -2.514e-08  t[s]:   2377.63
	FillingsUpdate:  mu: +0.142144629  nElectrons: 176.000000  magneticMoment: [ Abs: 0.00006  Tot: +0.00002 ]
	SubspaceRotationAdjust: set factor to 0.0304
ElecMinimize: Iter:  30  G: -948.504779808018043  |grad|_K:  1.661e-07  alpha:  3.859e-01  linmin: -1.852e-07  t[s]:   2417.46
	FillingsUpdate:  mu: +0.142155098  nElectrons: 176.000000  magneticMoment: [ Abs: 0.00006  Tot: +0.00002 ]
	SubspaceRotationAdjust: set factor to 0.0299
ElecMinimize: Iter:  31  G: -948.504782425441817  |grad|_K:  1.753e-07  alpha:  3.433e-01  linmin: -9.310e-08  t[s]:   2457.18
	FillingsUpdate:  mu: +0.142350008  nElectrons: 176.000000  magneticMoment: [ Abs: 0.00006  Tot: +0.00002 ]
	SubspaceRotationAdjust: set factor to 0.0305
ElecMinimize: Iter:  32  G: -948.504785492708720  |grad|_K:  1.705e-07  alpha:  3.611e-01  linmin: -1.251e-08  t[s]:   2497.12
	FillingsUpdate:  mu: +0.142634928  nElectrons: 176.000000  magneticMoment: [ Abs: 0.00005  Tot: +0.00002 ]
	SubspaceRotationAdjust: set factor to 0.0343
ElecMinimize: Iter:  33  G: -948.504789172464712  |grad|_K:  1.693e-07  alpha:  4.580e-01  linmin: -1.487e-07  t[s]:   2537.09
	FillingsUpdate:  mu: +0.142680643  nElectrons: 176.000000  magneticMoment: [ Abs: 0.00005  Tot: +0.00002 ]
	SubspaceRotationAdjust: set factor to 0.0367
ElecMinimize: Iter:  34  G: -948.504792870486881  |grad|_K:  1.837e-07  alpha:  4.666e-01  linmin: -8.049e-08  t[s]:   2577.33
	FillingsUpdate:  mu: +0.142767387  nElectrons: 176.000000  magneticMoment: [ Abs: 0.00005  Tot: +0.00001 ]
	SubspaceRotationAdjust: set factor to 0.0339
ElecMinimize: Iter:  35  G: -948.504796379054028  |grad|_K:  2.104e-07  alpha:  3.760e-01  linmin:  3.239e-08  t[s]:   2617.04
	FillingsUpdate:  mu: +0.142941272  nElectrons: 176.000000  magneticMoment: [ Abs: 0.00004  Tot: +0.00001 ]
	SubspaceRotationAdjust: set factor to 0.0276
ElecMinimize: Iter:  36  G: -948.504799396863973  |grad|_K:  1.880e-07  alpha:  2.466e-01  linmin:  2.037e-08  t[s]:   2656.93
	FillingsUpdate:  mu: +0.143165156  nElectrons: 176.000000  magneticMoment: [ Abs: 0.00004  Tot: +0.00001 ]
	SubspaceRotationAdjust: set factor to 0.0283
ElecMinimize: Iter:  37  G: -948.504803004428823  |grad|_K:  1.621e-07  alpha:  3.693e-01  linmin:  5.493e-07  t[s]:   2697.57
	FillingsUpdate:  mu: +0.143193069  nElectrons: 176.000000  magneticMoment: [ Abs: 0.00004  Tot: +0.00001 ]
	SubspaceRotationAdjust: set factor to 0.0299
ElecMinimize: Iter:  38  G: -948.504805773448652  |grad|_K:  1.418e-07  alpha:  3.814e-01  linmin:  2.221e-07  t[s]:   2737.28
	FillingsUpdate:  mu: +0.143264923  nElectrons: 176.000000  magneticMoment: [ Abs: 0.00003  Tot: +0.00001 ]
	SubspaceRotationAdjust: set factor to 0.0279
ElecMinimize: Iter:  39  G: -948.504807675934785  |grad|_K:  1.373e-07  alpha:  3.424e-01  linmin:  7.383e-08  t[s]:   2777.07
	FillingsUpdate:  mu: +0.143401621  nElectrons: 176.000000  magneticMoment: [ Abs: 0.00003  Tot: +0.00001 ]
	SubspaceRotationAdjust: set factor to 0.0253
ElecMinimize: Iter:  40  G: -948.504809054971474  |grad|_K:  1.060e-07  alpha:  2.646e-01  linmin: -1.694e-08  t[s]:   2817.01
	FillingsUpdate:  mu: +0.143500850  nElectrons: 176.000000  magneticMoment: [ Abs: 0.00003  Tot: +0.00001 ]
	SubspaceRotationAdjust: set factor to 0.029
ElecMinimize: Iter:  41  G: -948.504810163937236  |grad|_K:  8.601e-08  alpha:  3.567e-01  linmin: -6.039e-08  t[s]:   2856.85
	FillingsUpdate:  mu: +0.143454540  nElectrons: 176.000000  magneticMoment: [ Abs: 0.00003  Tot: +0.00001 ]
	SubspaceRotationAdjust: set factor to 0.0319
ElecMinimize: Iter:  42  G: -948.504810918473368  |grad|_K:  7.632e-08  alpha:  3.689e-01  linmin: -1.118e-07  t[s]:   2896.72
	FillingsUpdate:  mu: +0.143418143  nElectrons: 176.000000  magneticMoment: [ Abs: 0.00003  Tot: +0.00001 ]
	SubspaceRotationAdjust: set factor to 0.0298
ElecMinimize: Iter:  43  G: -948.504811416066900  |grad|_K:  7.438e-08  alpha:  3.090e-01  linmin: -1.672e-08  t[s]:   2936.53
	FillingsUpdate:  mu: +0.143431040  nElectrons: 176.000000  magneticMoment: [ Abs: 0.00003  Tot: +0.00001 ]
	SubspaceRotationAdjust: set factor to 0.0288
ElecMinimize: Iter:  44  G: -948.504811853815227  |grad|_K:  5.923e-08  alpha:  2.862e-01  linmin: -6.126e-07  t[s]:   2977.75
	FillingsUpdate:  mu: +0.143449790  nElectrons: 176.000000  magneticMoment: [ Abs: 0.00002  Tot: +0.00001 ]
	SubspaceRotationAdjust: set factor to 0.0321
ElecMinimize: Iter:  45  G: -948.504812218030111  |grad|_K:  5.106e-08  alpha:  3.755e-01  linmin:  3.485e-07  t[s]:   3017.71
	FillingsUpdate:  mu: +0.143403801  nElectrons: 176.000000  magneticMoment: [ Abs: 0.00002  Tot: +0.00001 ]
	SubspaceRotationAdjust: set factor to 0.0346
ElecMinimize: Iter:  46  G: -948.504812504296410  |grad|_K:  4.667e-08  alpha:  3.973e-01  linmin: -2.239e-07  t[s]:   3057.72
	FillingsUpdate:  mu: +0.143385218  nElectrons: 176.000000  magneticMoment: [ Abs: 0.00002  Tot: +0.00001 ]
	SubspaceRotationAdjust: set factor to 0.0318
ElecMinimize: Iter:  47  G: -948.504812694733801  |grad|_K:  4.623e-08  alpha:  3.162e-01  linmin:  2.510e-07  t[s]:   3097.67
	FillingsUpdate:  mu: +0.143400128  nElectrons: 176.000000  magneticMoment: [ Abs: 0.00002  Tot: +0.00001 ]
	SubspaceRotationAdjust: set factor to 0.0272
ElecMinimize: Iter:  48  G: -948.504812840468048  |grad|_K:  3.673e-08  alpha:  2.466e-01  linmin: -1.320e-07  t[s]:   3137.48
	FillingsUpdate:  mu: +0.143414233  nElectrons: 176.000000  magneticMoment: [ Abs: 0.00002  Tot: +0.00001 ]
	SubspaceRotationAdjust: set factor to 0.0294
ElecMinimize: Iter:  49  G: -948.504812967598582  |grad|_K:  2.990e-08  alpha:  3.405e-01  linmin: -1.027e-06  t[s]:   3177.55
	FillingsUpdate:  mu: +0.143376924  nElectrons: 176.000000  magneticMoment: [ Abs: 0.00002  Tot: +0.00001 ]
	SubspaceRotationAdjust: set factor to 0.0321
ElecMinimize: Iter:  50  G: -948.504813062380094  |grad|_K:  2.542e-08  alpha:  3.826e-01  linmin: -1.369e-06  t[s]:   3217.45
	FillingsUpdate:  mu: +0.143352112  nElectrons: 176.000000  magneticMoment: [ Abs: 0.00002  Tot: +0.00001 ]
	SubspaceRotationAdjust: set factor to 0.0305
ElecMinimize: Iter:  51  G: -948.504813119400410  |grad|_K:  2.445e-08  alpha:  3.191e-01  linmin: -3.280e-06  t[s]:   3257.35
ElecMinimize: Converged (|Delta G|<1.000000e-07 for 2 iters).
Setting wave functions to eigenvectors of Hamiltonian
Converging empty states (this may take a while): |deigs|: 3.008e-03
Vacuum energy after initial minimize, F = -948.504813119400410

Shifting auxilliary hamiltonian by -0.314652 to set nElectrons=176.000000

-------- Electronic minimization -----------
	Linear fluid (dielectric constant: 78.4, screening length: 8.12261 Bohr) occupying 0.546773 of unit cell:	Completed after 26 iterations at t[s]:   3391.52
	FillingsUpdate:  mu: -0.171300000  nElectrons: 176.000000  magneticMoment: [ Abs: 0.00001  Tot: +0.00001 ]
ElecMinimize: Iter:   0  G: -948.506821127916965  |grad|_K:  4.759e-06  alpha:  1.000e+00
	Linear fluid (dielectric constant: 78.4, screening length: 8.12261 Bohr) occupying 0.583848 of unit cell:	Completed after 35 iterations at t[s]:   3426.44
	Linear fluid (dielectric constant: 78.4, screening length: 8.12261 Bohr) occupying 0.547046 of unit cell:	Completed after 25 iterations at t[s]:   3439.13
	FillingsUpdate:  mu: -0.171300000  nElectrons: 176.039647  magneticMoment: [ Abs: 0.00001  Tot: +0.00001 ]
	SubspaceRotationAdjust: set factor to 0.0176
ElecMinimize: Iter:   1  G: -948.507183446463500  |grad|_K:  3.329e-06  alpha:  8.469e-02  linmin:  7.003e-02  t[s]:   3455.93
	Linear fluid (dielectric constant: 78.4, screening length: 8.12261 Bohr) occupying 0.547089 of unit cell:	Completed after 19 iterations at t[s]:   3470.45
	Linear fluid (dielectric constant: 78.4, screening length: 8.12261 Bohr) occupying 0.547161 of unit cell:	Completed after 19 iterations at t[s]:   3482.61
	FillingsUpdate:  mu: -0.171300000  nElectrons: 176.042159  magneticMoment: [ Abs: 0.00001  Tot: +0.00001 ]
	SubspaceRotationAdjust: set factor to 0.0102
ElecMinimize: Iter:   2  G: -948.507589599086259  |grad|_K:  1.169e-06  alpha:  1.890e-01  linmin:  5.212e-04  t[s]:   3499.63
	Linear fluid (dielectric constant: 78.4, screening length: 8.12261 Bohr) occupying 0.547345 of unit cell:	Completed after 17 iterations at t[s]:   3514.04
	Linear fluid (dielectric constant: 78.4, screening length: 8.12261 Bohr) occupying 0.547781 of unit cell:	Completed after 19 iterations at t[s]:   3526.19
	FillingsUpdate:  mu: -0.171300000  nElectrons: 176.062274  magneticMoment: [ Abs: 0.00001  Tot: +0.00001 ]
	SubspaceRotationAdjust: set factor to 0.00963
ElecMinimize: Iter:   3  G: -948.507798081367355  |grad|_K:  8.371e-07  alpha:  5.465e-01  linmin: -4.235e-03  t[s]:   3543.10
	Linear fluid (dielectric constant: 78.4, screening length: 8.12261 Bohr) occupying 0.548092 of unit cell:	Completed after 17 iterations at t[s]:   3557.44
	Linear fluid (dielectric constant: 78.4, screening length: 8.12261 Bohr) occupying 0.548106 of unit cell:	Completed after 6 iterations at t[s]:   3569.48
	FillingsUpdate:  mu: -0.171300000  nElectrons: 176.069131  magneticMoment: [ Abs: 0.00001  Tot: +0.00001 ]
	SubspaceRotationAdjust: set factor to 0.0092
ElecMinimize: Iter:   4  G: -948.507910264713132  |grad|_K:  7.481e-07  alpha:  5.698e-01  linmin:  2.248e-05  t[s]:   3586.44
	Linear fluid (dielectric constant: 78.4, screening length: 8.12261 Bohr) occupying 0.548982 of unit cell:	Completed after 19 iterations at t[s]:   3600.93
	Linear fluid (dielectric constant: 78.4, screening length: 8.12261 Bohr) occupying 0.548604 of unit cell:	Completed after 13 iterations at t[s]:   3612.71
	FillingsUpdate:  mu: -0.171300000  nElectrons: 176.081633  magneticMoment: [ Abs: 0.00001  Tot: +0.00001 ]
	SubspaceRotationAdjust: set factor to 0.00654
ElecMinimize: Iter:   5  G: -948.507963530590018  |grad|_K:  5.808e-07  alpha:  3.453e-01  linmin:  1.851e-04  t[s]:   3629.82
	Linear fluid (dielectric constant: 78.4, screening length: 8.12261 Bohr) occupying 0.548618 of unit cell:	Completed after 13 iterations at t[s]:   3643.95
	Linear fluid (dielectric constant: 78.4, screening length: 8.12261 Bohr) occupying 0.548624 of unit cell:	Completed after 11 iterations at t[s]:   3655.58
	FillingsUpdate:  mu: -0.171300000  nElectrons: 176.083496  magneticMoment: [ Abs: 0.00001  Tot: +0.00001 ]
	SubspaceRotationAdjust: set factor to 0.00661
ElecMinimize: Iter:   6  G: -948.508006924985239  |grad|_K:  4.495e-07  alpha:  4.661e-01  linmin:  4.595e-05  t[s]:   3672.80
	Linear fluid (dielectric constant: 78.4, screening length: 8.12261 Bohr) occupying 0.548652 of unit cell:	Completed after 10 iterations at t[s]:   3686.69
	Linear fluid (dielectric constant: 78.4, screening length: 8.12261 Bohr) occupying 0.548661 of unit cell:	Completed after 8 iterations at t[s]:   3698.15
	FillingsUpdate:  mu: -0.171300000  nElectrons: 176.087403  magneticMoment: [ Abs: 0.00001  Tot: +0.00001 ]
	SubspaceRotationAdjust: set factor to 0.00755
ElecMinimize: Iter:   7  G: -948.508040710747878  |grad|_K:  3.828e-07  alpha:  6.050e-01  linmin: -2.096e-05  t[s]:   3715.18
	Linear fluid (dielectric constant: 78.4, screening length: 8.12261 Bohr) occupying 0.548722 of unit cell:	Completed after 13 iterations at t[s]:   3729.26
	Linear fluid (dielectric constant: 78.4, screening length: 8.12261 Bohr) occupying 0.548725 of unit cell:	Completed after 7 iterations at t[s]:   3740.67
	FillingsUpdate:  mu: -0.171300000  nElectrons: 176.092311  magneticMoment: [ Abs: 0.00001  Tot: +0.00001 ]
	SubspaceRotationAdjust: set factor to 0.00807
ElecMinimize: Iter:   8  G: -948.508066612033872  |grad|_K:  3.746e-07  alpha:  6.390e-01  linmin: -1.409e-04  t[s]:   3757.70
	Linear fluid (dielectric constant: 78.4, screening length: 8.12261 Bohr) occupying 0.548503 of unit cell:	Completed after 13 iterations at t[s]:   3771.88
	Linear fluid (dielectric constant: 78.4, screening length: 8.12261 Bohr) occupying 0.548545 of unit cell:	Completed after 10 iterations at t[s]:   3783.37
	FillingsUpdate:  mu: -0.171300000  nElectrons: 176.091773  magneticMoment: [ Abs: 0.00001  Tot: +0.00001 ]
	SubspaceRotationAdjust: set factor to 0.00687
ElecMinimize: Iter:   9  G: -948.508086786869285  |grad|_K:  3.873e-07  alpha:  5.189e-01  linmin: -9.989e-06  t[s]:   3800.45
	Linear fluid (dielectric constant: 78.4, screening length: 8.12261 Bohr) occupying 0.548682 of unit cell:	Completed after 14 iterations at t[s]:   3814.61
	Linear fluid (dielectric constant: 78.4, screening length: 8.12261 Bohr) occupying 0.548704 of unit cell:	Completed after 9 iterations at t[s]:   3826.25
	FillingsUpdate:  mu: -0.171300000  nElectrons: 176.098365  magneticMoment: [ Abs: 0.00001  Tot: +0.00001 ]
	SubspaceRotationAdjust: set factor to 0.00676
ElecMinimize: Iter:  10  G: -948.508111533141459  |grad|_K:  3.640e-07  alpha:  5.962e-01  linmin: -1.083e-04  t[s]:   3843.31
	Linear fluid (dielectric constant: 78.4, screening length: 8.12261 Bohr) occupying 0.548782 of unit cell:	Completed after 12 iterations at t[s]:   3857.39
	Linear fluid (dielectric constant: 78.4, screening length: 8.12261 Bohr) occupying 0.548804 of unit cell:	Completed after 10 iterations at t[s]:   3869.51
	FillingsUpdate:  mu: -0.171300000  nElectrons: 176.103159  magneticMoment: [ Abs: 0.00001  Tot: +0.00001 ]
	SubspaceRotationAdjust: set factor to 0.00765
ElecMinimize: Iter:  11  G: -948.508139180672401  |grad|_K:  3.707e-07  alpha:  7.529e-01  linmin: -3.417e-05  t[s]:   3886.65
	Linear fluid (dielectric constant: 78.4, screening length: 8.12261 Bohr) occupying 0.548840 of unit cell:	Completed after 13 iterations at t[s]:   3900.79
	Linear fluid (dielectric constant: 78.4, screening length: 8.12261 Bohr) occupying 0.548841 of unit cell:	Completed after 0 iterations at t[s]:   3911.63
	FillingsUpdate:  mu: -0.171300000  nElectrons: 176.106079  magneticMoment: [ Abs: 0.00001  Tot: +0.00001 ]
	SubspaceRotationAdjust: set factor to 0.00778
ElecMinimize: Iter:  12  G: -948.508167814061494  |grad|_K:  4.051e-07  alpha:  7.533e-01  linmin:  3.230e-05  t[s]:   3928.69
	Linear fluid (dielectric constant: 78.4, screening length: 8.12261 Bohr) occupying 0.549377 of unit cell:	Completed after 14 iterations at t[s]:   3942.85
	Linear fluid (dielectric constant: 78.4, screening length: 8.12261 Bohr) occupying 0.549247 of unit cell:	Completed after 12 iterations at t[s]:   3954.73
	FillingsUpdate:  mu: -0.171300000  nElectrons: 176.114325  magneticMoment: [ Abs: 0.00001  Tot: +0.00001 ]
	SubspaceRotationAdjust: set factor to 0.00663
ElecMinimize: Iter:  13  G: -948.508194010458624  |grad|_K:  4.367e-07  alpha:  5.791e-01  linmin: -2.160e-05  t[s]:   3971.67
	Linear fluid (dielectric constant: 78.4, screening length: 8.12261 Bohr) occupying 0.549286 of unit cell:	Completed after 14 iterations at t[s]:   3985.80
	Linear fluid (dielectric constant: 78.4, screening length: 8.12261 Bohr) occupying 0.549287 of unit cell:	Completed after 0 iterations at t[s]:   3996.85
	FillingsUpdate:  mu: -0.171300000  nElectrons: 176.116634  magneticMoment: [ Abs: 0.00001  Tot: +0.00001 ]
	SubspaceRotationAdjust: set factor to 0.00618
ElecMinimize: Iter:  14  G: -948.508224648473060  |grad|_K:  4.092e-07  alpha:  5.807e-01  linmin:  1.040e-07  t[s]:   4013.79
	Linear fluid (dielectric constant: 78.4, screening length: 8.12261 Bohr) occupying 0.549495 of unit cell:	Completed after 12 iterations at t[s]:   4027.83
	Linear fluid (dielectric constant: 78.4, screening length: 8.12261 Bohr) occupying 0.549561 of unit cell:	Completed after 10 iterations at t[s]:   4039.40
	FillingsUpdate:  mu: -0.171300000  nElectrons: 176.122602  magneticMoment: [ Abs: 0.00001  Tot: +0.00001 ]
	SubspaceRotationAdjust: set factor to 0.00704
ElecMinimize: Iter:  15  G: -948.508259862910222  |grad|_K:  4.137e-07  alpha:  7.605e-01  linmin: -2.239e-05  t[s]:   4056.42
	Linear fluid (dielectric constant: 78.4, screening length: 8.12261 Bohr) occupying 0.549994 of unit cell:	Completed after 14 iterations at t[s]:   4070.64
	Linear fluid (dielectric constant: 78.4, screening length: 8.12261 Bohr) occupying 0.549963 of unit cell:	Completed after 9 iterations at t[s]:   4082.07
	FillingsUpdate:  mu: -0.171300000  nElectrons: 176.130048  magneticMoment: [ Abs: 0.00001  Tot: +0.00001 ]
	SubspaceRotationAdjust: set factor to 0.00704
ElecMinimize: Iter:  16  G: -948.508293363470898  |grad|_K:  4.203e-07  alpha:  7.078e-01  linmin: -3.786e-05  t[s]:   4099.08
	Linear fluid (dielectric constant: 78.4, screening length: 8.12261 Bohr) occupying 0.549901 of unit cell:	Completed after 13 iterations at t[s]:   4113.15
	Linear fluid (dielectric constant: 78.4, screening length: 8.12261 Bohr) occupying 0.549913 of unit cell:	Completed after 10 iterations at t[s]:   4124.69
	FillingsUpdate:  mu: -0.171300000  nElectrons: 176.130977  magneticMoment: [ Abs: 0.00001  Tot: +0.00001 ]
	SubspaceRotationAdjust: set factor to 0.00613
ElecMinimize: Iter:  17  G: -948.508321616908120  |grad|_K:  4.157e-07  alpha:  5.773e-01  linmin:  1.755e-05  t[s]:   4141.54
	Linear fluid (dielectric constant: 78.4, screening length: 8.12261 Bohr) occupying 0.550268 of unit cell:	Completed after 14 iterations at t[s]:   4155.69
	Linear fluid (dielectric constant: 78.4, screening length: 8.12261 Bohr) occupying 0.550268 of unit cell:	Completed after 0 iterations at t[s]:   4166.58
	FillingsUpdate:  mu: -0.171300000  nElectrons: 176.137370  magneticMoment: [ Abs: 0.00001  Tot: +0.00001 ]
	SubspaceRotationAdjust: set factor to 0.00585
ElecMinimize: Iter:  18  G: -948.508349169416078  |grad|_K:  3.728e-07  alpha:  5.771e-01  linmin: -2.791e-05  t[s]:   4183.36
	Linear fluid (dielectric constant: 78.4, screening length: 8.12261 Bohr) occupying 0.550356 of unit cell:	Completed after 6 iterations at t[s]:   4197.08
	Linear fluid (dielectric constant: 78.4, screening length: 8.12261 Bohr) occupying 0.550366 of unit cell:	Completed after 2 iterations at t[s]:   4208.13
	FillingsUpdate:  mu: -0.171300000  nElectrons: 176.140303  magneticMoment: [ Abs: 0.00001  Tot: +0.00001 ]
	SubspaceRotationAdjust: set factor to 0.00653
ElecMinimize: Iter:  19  G: -948.508373861446216  |grad|_K:  3.343e-07  alpha:  6.420e-01  linmin: -1.337e-05  t[s]:   4225.15
	Linear fluid (dielectric constant: 78.4, screening length: 8.12261 Bohr) occupying 0.550332 of unit cell:	Completed after 13 iterations at t[s]:   4239.31
	Linear fluid (dielectric constant: 78.4, screening length: 8.12261 Bohr) occupying 0.550333 of unit cell:	Completed after 2 iterations at t[s]:   4250.34
	FillingsUpdate:  mu: -0.171300000  nElectrons: 176.141371  magneticMoment: [ Abs: 0.00001  Tot: +0.00001 ]
	SubspaceRotationAdjust: set factor to 0.00686
ElecMinimize: Iter:  20  G: -948.508393350517622  |grad|_K:  3.061e-07  alpha:  6.307e-01  linmin:  8.482e-06  t[s]:   4267.20
	Linear fluid (dielectric constant: 78.4, screening length: 8.12261 Bohr) occupying 0.550554 of unit cell:	Completed after 13 iterations at t[s]:   4281.44
	Linear fluid (dielectric constant: 78.4, screening length: 8.12261 Bohr) occupying 0.550537 of unit cell:	Completed after 9 iterations at t[s]:   4293.04
	FillingsUpdate:  mu: -0.171300000  nElectrons: 176.145165  magneticMoment: [ Abs: 0.00001  Tot: +0.00001 ]
	SubspaceRotationAdjust: set factor to 0.00635
ElecMinimize: Iter:  21  G: -948.508408456949724  |grad|_K:  2.931e-07  alpha:  5.836e-01  linmin: -4.553e-05  t[s]:   4310.24
	Linear fluid (dielectric constant: 78.4, screening length: 8.12261 Bohr) occupying 0.550406 of unit cell:	Completed after 13 iterations at t[s]:   4324.50
	Linear fluid (dielectric constant: 78.4, screening length: 8.12261 Bohr) occupying 0.550406 of unit cell:	Completed after 0 iterations at t[s]:   4335.34
	FillingsUpdate:  mu: -0.171300000  nElectrons: 176.144807  magneticMoment: [ Abs: 0.00001  Tot: +0.00001 ]
	SubspaceRotationAdjust: set factor to 0.00635
ElecMinimize: Iter:  22  G: -948.508422349176044  |grad|_K:  2.761e-07  alpha:  5.841e-01  linmin: -1.004e-05  t[s]:   4352.45
	Linear fluid (dielectric constant: 78.4, screening length: 8.12261 Bohr) occupying 0.550433 of unit cell:	Completed after 10 iterations at t[s]:   4366.39
	Linear fluid (dielectric constant: 78.4, screening length: 8.12261 Bohr) occupying 0.550439 of unit cell:	Completed after 7 iterations at t[s]:   4377.76
	FillingsUpdate:  mu: -0.171300000  nElectrons: 176.146557  magneticMoment: [ Abs: 0.00001  Tot: +0.00001 ]
	SubspaceRotationAdjust: set factor to 0.00711
ElecMinimize: Iter:  23  G: -948.508437196225373  |grad|_K:  2.839e-07  alpha:  7.045e-01  linmin: -4.304e-06  t[s]:   4394.58
	Linear fluid (dielectric constant: 78.4, screening length: 8.12261 Bohr) occupying 0.550517 of unit cell:	Completed after 11 iterations at t[s]:   4408.61
	Linear fluid (dielectric constant: 78.4, screening length: 8.12261 Bohr) occupying 0.550524 of unit cell:	Completed after 6 iterations at t[s]:   4419.88
	FillingsUpdate:  mu: -0.171300000  nElectrons: 176.149036  magneticMoment: [ Abs: 0.00001  Tot: +0.00001 ]
	SubspaceRotationAdjust: set factor to 0.00768
ElecMinimize: Iter:  24  G: -948.508454184916786  |grad|_K:  3.132e-07  alpha:  7.623e-01  linmin: -1.642e-05  t[s]:   4437.02
	Linear fluid (dielectric constant: 78.4, screening length: 8.12261 Bohr) occupying 0.550339 of unit cell:	Completed after 13 iterations at t[s]:   4451.22
	Linear fluid (dielectric constant: 78.4, screening length: 8.12261 Bohr) occupying 0.550356 of unit cell:	Completed after 9 iterations at t[s]:   4463.10
	FillingsUpdate:  mu: -0.171300000  nElectrons: 176.148565  magneticMoment: [ Abs: 0.00001  Tot: +0.00001 ]
	SubspaceRotationAdjust: set factor to 0.00721
ElecMinimize: Iter:  25  G: -948.508472912583557  |grad|_K:  3.587e-07  alpha:  6.900e-01  linmin:  1.625e-05  t[s]:   4480.97
	Linear fluid (dielectric constant: 78.4, screening length: 8.12261 Bohr) occupying 0.550678 of unit cell:	Completed after 14 iterations at t[s]:   4495.21
	Linear fluid (dielectric constant: 78.4, screening length: 8.12261 Bohr) occupying 0.550632 of unit cell:	Completed after 11 iterations at t[s]:   4506.95
	FillingsUpdate:  mu: -0.171300000  nElectrons: 176.153353  magneticMoment: [ Abs: 0.00001  Tot: +0.00001 ]
	SubspaceRotationAdjust: set factor to 0.0065
ElecMinimize: Iter:  26  G: -948.508493984587062  |grad|_K:  3.601e-07  alpha:  5.931e-01  linmin: -4.818e-06  t[s]:   4523.91
	Linear fluid (dielectric constant: 78.4, screening length: 8.12261 Bohr) occupying 0.550643 of unit cell:	Completed after 11 iterations at t[s]:   4537.89
	Linear fluid (dielectric constant: 78.4, screening length: 8.12261 Bohr) occupying 0.550644 of unit cell:	Completed after 6 iterations at t[s]:   4549.15
	FillingsUpdate:  mu: -0.171300000  nElectrons: 176.155159  magneticMoment: [ Abs: 0.00001  Tot: +0.00001 ]
	SubspaceRotationAdjust: set factor to 0.00683
ElecMinimize: Iter:  27  G: -948.508518266723513  |grad|_K:  3.449e-07  alpha:  6.773e-01  linmin:  1.672e-05  t[s]:   4566.08
	Linear fluid (dielectric constant: 78.4, screening length: 8.12261 Bohr) occupying 0.550739 of unit cell:	Completed after 11 iterations at t[s]:   4580.07
	Linear fluid (dielectric constant: 78.4, screening length: 8.12261 Bohr) occupying 0.550733 of unit cell:	Completed after 2 iterations at t[s]:   4591.02
	FillingsUpdate:  mu: -0.171300000  nElectrons: 176.157514  magneticMoment: [ Abs: 0.00001  Tot: +0.00001 ]
	SubspaceRotationAdjust: set factor to 0.00729
ElecMinimize: Iter:  28  G: -948.508539040413325  |grad|_K:  3.130e-07  alpha:  6.321e-01  linmin:  1.465e-05  t[s]:   4608.10
	Linear fluid (dielectric constant: 78.4, screening length: 8.12261 Bohr) occupying 0.551070 of unit cell:	Completed after 13 iterations at t[s]:   4622.27
	Linear fluid (dielectric constant: 78.4, screening length: 8.12261 Bohr) occupying 0.551025 of unit cell:	Completed after 10 iterations at t[s]:   4633.92
	FillingsUpdate:  mu: -0.171300000  nElectrons: 176.161697  magneticMoment: [ Abs: 0.00001  Tot: +0.00001 ]
	SubspaceRotationAdjust: set factor to 0.00688
ElecMinimize: Iter:  29  G: -948.508553879088481  |grad|_K:  2.735e-07  alpha:  5.485e-01  linmin: -3.181e-05  t[s]:   4650.90
	Linear fluid (dielectric constant: 78.4, screening length: 8.12261 Bohr) occupying 0.551001 of unit cell:	Completed after 11 iterations at t[s]:   4664.90
	Linear fluid (dielectric constant: 78.4, screening length: 8.12261 Bohr) occupying 0.551004 of unit cell:	Completed after 9 iterations at t[s]:   4676.38
	FillingsUpdate:  mu: -0.171300000  nElectrons: 176.162134  magneticMoment: [ Abs: 0.00001  Tot: +0.00001 ]
	SubspaceRotationAdjust: set factor to 0.00606
ElecMinimize: Iter:  30  G: -948.508564031860033  |grad|_K:  2.228e-07  alpha:  4.904e-01  linmin:  3.840e-05  t[s]:   4693.46
	Linear fluid (dielectric constant: 78.4, screening length: 8.12261 Bohr) occupying 0.551201 of unit cell:	Completed after 12 iterations at t[s]:   4707.51
	Linear fluid (dielectric constant: 78.4, screening length: 8.12261 Bohr) occupying 0.551218 of unit cell:	Completed after 6 iterations at t[s]:   4718.81
	FillingsUpdate:  mu: -0.171300000  nElectrons: 176.164990  magneticMoment: [ Abs: 0.00001  Tot: +0.00001 ]
	SubspaceRotationAdjust: set factor to 0.00644
ElecMinimize: Iter:  31  G: -948.508571350436114  |grad|_K:  1.764e-07  alpha:  5.340e-01  linmin: -7.425e-05  t[s]:   4735.87
	Linear fluid (dielectric constant: 78.4, screening length: 8.12261 Bohr) occupying 0.551351 of unit cell:	Completed after 10 iterations at t[s]:   4749.85
	Linear fluid (dielectric constant: 78.4, screening length: 8.12261 Bohr) occupying 0.551357 of unit cell:	Completed after 0 iterations at t[s]:   4761.04
	FillingsUpdate:  mu: -0.171300000  nElectrons: 176.166875  magneticMoment: [ Abs: 0.00001  Tot: +0.00001 ]
	SubspaceRotationAdjust: set factor to 0.00725
ElecMinimize: Iter:  32  G: -948.508576177880059  |grad|_K:  1.455e-07  alpha:  5.599e-01  linmin: -2.193e-04  t[s]:   4777.80
	Linear fluid (dielectric constant: 78.4, screening length: 8.12261 Bohr) occupying 0.551397 of unit cell:	Completed after 10 iterations at t[s]:   4791.70
	Linear fluid (dielectric constant: 78.4, screening length: 8.12261 Bohr) occupying 0.551397 of unit cell:	Completed after 0 iterations at t[s]:   4802.51
	FillingsUpdate:  mu: -0.171300000  nElectrons: 176.167622  magneticMoment: [ Abs: 0.00001  Tot: +0.00001 ]
	SubspaceRotationAdjust: set factor to 0.00724
ElecMinimize: Iter:  33  G: -948.508579471700500  |grad|_K:  1.275e-07  alpha:  5.604e-01  linmin:  9.601e-05  t[s]:   4819.52
	Linear fluid (dielectric constant: 78.4, screening length: 8.12261 Bohr) occupying 0.551579 of unit cell:	Completed after 12 iterations at t[s]:   4833.50
	Linear fluid (dielectric constant: 78.4, screening length: 8.12261 Bohr) occupying 0.551571 of unit cell:	Completed after 2 iterations at t[s]:   4844.48
	FillingsUpdate:  mu: -0.171300000  nElectrons: 176.169763  magneticMoment: [ Abs: 0.00001  Tot: +0.00001 ]
	SubspaceRotationAdjust: set factor to 0.00655
ElecMinimize: Iter:  34  G: -948.508581875295249  |grad|_K:  1.142e-07  alpha:  5.361e-01  linmin:  3.841e-04  t[s]:   4861.56
	Linear fluid (dielectric constant: 78.4, screening length: 8.12261 Bohr) occupying 0.551603 of unit cell:	Completed after 10 iterations at t[s]:   4875.60
	Linear fluid (dielectric constant: 78.4, screening length: 8.12261 Bohr) occupying 0.551604 of unit cell:	Completed after 0 iterations at t[s]:   4886.53
	FillingsUpdate:  mu: -0.171300000  nElectrons: 176.170405  magneticMoment: [ Abs: 0.00001  Tot: +0.00001 ]
	SubspaceRotationAdjust: set factor to 0.0066
ElecMinimize: Iter:  35  G: -948.508583833947910  |grad|_K:  9.324e-08  alpha:  5.480e-01  linmin: -4.244e-04  t[s]:   4903.73
	Linear fluid (dielectric constant: 78.4, screening length: 8.12261 Bohr) occupying 0.551675 of unit cell:	Completed after 10 iterations at t[s]:   4917.62
	Linear fluid (dielectric constant: 78.4, screening length: 8.12261 Bohr) occupying 0.551684 of unit cell:	Completed after 2 iterations at t[s]:   4928.58
	FillingsUpdate:  mu: -0.171300000  nElectrons: 176.171499  magneticMoment: [ Abs: 0.00001  Tot: +0.00001 ]
	SubspaceRotationAdjust: set factor to 0.00742
ElecMinimize: Iter:  36  G: -948.508585325373815  |grad|_K:  8.153e-08  alpha:  6.145e-01  linmin: -7.826e-05  t[s]:   4945.57
	Linear fluid (dielectric constant: 78.4, screening length: 8.12261 Bohr) occupying 0.551789 of unit cell:	Completed after 11 iterations at t[s]:   4959.58
	Linear fluid (dielectric constant: 78.4, screening length: 8.12261 Bohr) occupying 0.551781 of unit cell:	Completed after 2 iterations at t[s]:   4970.55
	FillingsUpdate:  mu: -0.171300000  nElectrons: 176.172724  magneticMoment: [ Abs: 0.00001  Tot: +0.00001 ]
	SubspaceRotationAdjust: set factor to 0.0074
ElecMinimize: Iter:  37  G: -948.508586368067540  |grad|_K:  7.492e-08  alpha:  5.666e-01  linmin:  7.048e-05  t[s]:   4987.52
	Linear fluid (dielectric constant: 78.4, screening length: 8.12261 Bohr) occupying 0.551770 of unit cell:	Completed after 10 iterations at t[s]:   5001.45
	Linear fluid (dielectric constant: 78.4, screening length: 8.12261 Bohr) occupying 0.551772 of unit cell:	Completed after 6 iterations at t[s]:   5012.69
	FillingsUpdate:  mu: -0.171300000  nElectrons: 176.172799  magneticMoment: [ Abs: 0.00001  Tot: +0.00001 ]
	SubspaceRotationAdjust: set factor to 0.00628
ElecMinimize: Iter:  38  G: -948.508587075744231  |grad|_K:  6.510e-08  alpha:  4.592e-01  linmin: -8.830e-05  t[s]:   5029.58
	Linear fluid (dielectric constant: 78.4, screening length: 8.12261 Bohr) occupying 0.551834 of unit cell:	Completed after 10 iterations at t[s]:   5043.53
	Linear fluid (dielectric constant: 78.4, screening length: 8.12261 Bohr) occupying 0.551844 of unit cell:	Completed after 2 iterations at t[s]:   5054.56
	FillingsUpdate:  mu: -0.171300000  nElectrons: 176.173693  magneticMoment: [ Abs: 0.00001  Tot: +0.00001 ]
	SubspaceRotationAdjust: set factor to 0.00686
ElecMinimize: Iter:  39  G: -948.508587700532075  |grad|_K:  5.414e-08  alpha:  5.291e-01  linmin: -8.263e-04  t[s]:   5071.54
	Linear fluid (dielectric constant: 78.4, screening length: 8.12261 Bohr) occupying 0.551885 of unit cell:	Completed after 9 iterations at t[s]:   5085.51
	Linear fluid (dielectric constant: 78.4, screening length: 8.12261 Bohr) occupying 0.551890 of unit cell:	Completed after 0 iterations at t[s]:   5096.38
	FillingsUpdate:  mu: -0.171300000  nElectrons: 176.174301  magneticMoment: [ Abs: 0.00001  Tot: +0.00001 ]
	SubspaceRotationAdjust: set factor to 0.00786
ElecMinimize: Iter:  40  G: -948.508588197446102  |grad|_K:  5.220e-08  alpha:  5.952e-01  linmin: -5.502e-04  t[s]:   5113.32
	Linear fluid (dielectric constant: 78.4, screening length: 8.12261 Bohr) occupying 0.551881 of unit cell:	Completed after 10 iterations at t[s]:   5127.29
	Linear fluid (dielectric constant: 78.4, screening length: 8.12261 Bohr) occupying 0.551882 of unit cell:	Completed after 0 iterations at t[s]:   5138.09
	FillingsUpdate:  mu: -0.171300000  nElectrons: 176.174333  magneticMoment: [ Abs: 0.00001  Tot: +0.00001 ]
	SubspaceRotationAdjust: set factor to 0.00752
ElecMinimize: Iter:  41  G: -948.508588645843815  |grad|_K:  5.632e-08  alpha:  5.802e-01  linmin:  2.494e-04  t[s]:   5155.08
	Linear fluid (dielectric constant: 78.4, screening length: 8.12261 Bohr) occupying 0.551945 of unit cell:	Completed after 11 iterations at t[s]:   5169.02
	Linear fluid (dielectric constant: 78.4, screening length: 8.12261 Bohr) occupying 0.551945 of unit cell:	Completed after 0 iterations at t[s]:   5179.92
	FillingsUpdate:  mu: -0.171300000  nElectrons: 176.175131  magneticMoment: [ Abs: 0.00001  Tot: +0.00001 ]
	SubspaceRotationAdjust: set factor to 0.00737
ElecMinimize: Iter:  42  G: -948.508589148762553  |grad|_K:  5.748e-08  alpha:  5.825e-01  linmin: -1.440e-04  t[s]:   5196.85
	Linear fluid (dielectric constant: 78.4, screening length: 8.12261 Bohr) occupying 0.551959 of unit cell:	Completed after 2 iterations at t[s]:   5210.17
	Linear fluid (dielectric constant: 78.4, screening length: 8.12261 Bohr) occupying 0.551962 of unit cell:	Completed after 2 iterations at t[s]:   5221.23
	FillingsUpdate:  mu: -0.171300000  nElectrons: 176.175506  magneticMoment: [ Abs: 0.00001  Tot: +0.00001 ]
	SubspaceRotationAdjust: set factor to 0.00826
ElecMinimize: Iter:  43  G: -948.508589800218488  |grad|_K:  6.392e-08  alpha:  7.065e-01  linmin: -1.713e-05  t[s]:   5238.28
	Linear fluid (dielectric constant: 78.4, screening length: 8.12261 Bohr) occupying 0.551950 of unit cell:	Completed after 10 iterations at t[s]:   5252.29
	Linear fluid (dielectric constant: 78.4, screening length: 8.12261 Bohr) occupying 0.551950 of unit cell:	Completed after 0 iterations at t[s]:   5263.10
	FillingsUpdate:  mu: -0.171300000  nElectrons: 176.175630  magneticMoment: [ Abs: 0.00001  Tot: +0.00001 ]
	SubspaceRotationAdjust: set factor to 0.00833
ElecMinimize: Iter:  44  G: -948.508590625395072  |grad|_K:  7.490e-08  alpha:  7.294e-01  linmin: -7.016e-05  t[s]:   5279.92
	Linear fluid (dielectric constant: 78.4, screening length: 8.12261 Bohr) occupying 0.552059 of unit cell:	Completed after 11 iterations at t[s]:   5293.90
	Linear fluid (dielectric constant: 78.4, screening length: 8.12261 Bohr) occupying 0.552033 of unit cell:	Completed after 9 iterations at t[s]:   5305.38
	FillingsUpdate:  mu: -0.171300000  nElectrons: 176.176754  magneticMoment: [ Abs: 0.00001  Tot: +0.00001 ]
	SubspaceRotationAdjust: set factor to 0.00708
ElecMinimize: Iter:  45  G: -948.508591500459147  |grad|_K:  7.841e-08  alpha:  5.580e-01  linmin:  4.393e-05  t[s]:   5322.61
	Linear fluid (dielectric constant: 78.4, screening length: 8.12261 Bohr) occupying 0.552013 of unit cell:	Completed after 11 iterations at t[s]:   5336.60
	Linear fluid (dielectric constant: 78.4, screening length: 8.12261 Bohr) occupying 0.552013 of unit cell:	Completed after 0 iterations at t[s]:   5347.41
	FillingsUpdate:  mu: -0.171300000  nElectrons: 176.176843  magneticMoment: [ Abs: 0.00001  Tot: +0.00001 ]
	SubspaceRotationAdjust: set factor to 0.00708
ElecMinimize: Iter:  46  G: -948.508592480457196  |grad|_K:  7.206e-08  alpha:  5.796e-01  linmin: -6.218e-05  t[s]:   5364.45
	Linear fluid (dielectric constant: 78.4, screening length: 8.12261 Bohr) occupying 0.552008 of unit cell:	Completed after 6 iterations at t[s]:   5378.52
	Linear fluid (dielectric constant: 78.4, screening length: 8.12261 Bohr) occupying 0.552008 of unit cell:	Completed after 0 iterations at t[s]:   5389.33
	FillingsUpdate:  mu: -0.171300000  nElectrons: 176.177054  magneticMoment: [ Abs: 0.00001  Tot: +0.00001 ]
	SubspaceRotationAdjust: set factor to 0.00779
ElecMinimize: Iter:  47  G: -948.508593354628715  |grad|_K:  6.554e-08  alpha:  6.052e-01  linmin: -6.890e-05  t[s]:   5406.29
	Linear fluid (dielectric constant: 78.4, screening length: 8.12261 Bohr) occupying 0.552061 of unit cell:	Completed after 10 iterations at t[s]:   5420.21
	Linear fluid (dielectric constant: 78.4, screening length: 8.12261 Bohr) occupying 0.552054 of unit cell:	Completed after 3 iterations at t[s]:   5431.28
	FillingsUpdate:  mu: -0.171300000  nElectrons: 176.177714  magneticMoment: [ Abs: 0.00001  Tot: +0.00001 ]
	SubspaceRotationAdjust: set factor to 0.00693
ElecMinimize: Iter:  48  G: -948.508593989012752  |grad|_K:  5.999e-08  alpha:  5.290e-01  linmin:  1.686e-04  t[s]:   5448.46
	Linear fluid (dielectric constant: 78.4, screening length: 8.12261 Bohr) occupying 0.552010 of unit cell:	Completed after 10 iterations at t[s]:   5462.35
	Linear fluid (dielectric constant: 78.4, screening length: 8.12261 Bohr) occupying 0.552018 of unit cell:	Completed after 3 iterations at t[s]:   5473.50
	FillingsUpdate:  mu: -0.171300000  nElectrons: 176.177471  magneticMoment: [ Abs: 0.00001  Tot: +0.00001 ]
	SubspaceRotationAdjust: set factor to 0.00602
ElecMinimize: Iter:  49  G: -948.508594416288020  |grad|_K:  4.740e-08  alpha:  4.383e-01  linmin:  4.932e-05  t[s]:   5490.57
	Linear fluid (dielectric constant: 78.4, screening length: 8.12261 Bohr) occupying 0.552026 of unit cell:	Completed after 6 iterations at t[s]:   5504.23
	Linear fluid (dielectric constant: 78.4, screening length: 8.12261 Bohr) occupying 0.552027 of unit cell:	Completed after 2 iterations at t[s]:   5515.26
	FillingsUpdate:  mu: -0.171300000  nElectrons: 176.177668  magneticMoment: [ Abs: 0.00001  Tot: +0.00001 ]
	SubspaceRotationAdjust: set factor to 0.00701
ElecMinimize: Iter:  50  G: -948.508594746915946  |grad|_K:  3.754e-08  alpha:  5.325e-01  linmin: -3.588e-04  t[s]:   5532.36
	Linear fluid (dielectric constant: 78.4, screening length: 8.12261 Bohr) occupying 0.552035 of unit cell:	Completed after 7 iterations at t[s]:   5546.08
	Linear fluid (dielectric constant: 78.4, screening length: 8.12261 Bohr) occupying 0.552035 of unit cell:	Completed after 0 iterations at t[s]:   5556.98
	FillingsUpdate:  mu: -0.171300000  nElectrons: 176.177820  magneticMoment: [ Abs: 0.00001  Tot: +0.00001 ]
	SubspaceRotationAdjust: set factor to 0.00768
ElecMinimize: Iter:  51  G: -948.508594975571896  |grad|_K:  3.412e-08  alpha:  5.748e-01  linmin: -3.461e-04  t[s]:   5574.18
	Linear fluid (dielectric constant: 78.4, screening length: 8.12261 Bohr) occupying 0.552003 of unit cell:	Completed after 9 iterations at t[s]:   5588.05
	Linear fluid (dielectric constant: 78.4, screening length: 8.12261 Bohr) occupying 0.552003 of unit cell:	Completed after 0 iterations at t[s]:   5598.89
	FillingsUpdate:  mu: -0.171300000  nElectrons: 176.177549  magneticMoment: [ Abs: 0.00001  Tot: +0.00001 ]
	SubspaceRotationAdjust: set factor to 0.0074
ElecMinimize: Iter:  52  G: -948.508595164707572  |grad|_K:  3.415e-08  alpha:  5.754e-01  linmin:  1.720e-04  t[s]:   5615.87
	Linear fluid (dielectric constant: 78.4, screening length: 8.12261 Bohr) occupying 0.552009 of unit cell:	Completed after 9 iterations at t[s]:   5629.64
	Linear fluid (dielectric constant: 78.4, screening length: 8.12261 Bohr) occupying 0.552009 of unit cell:	Completed after 0 iterations at t[s]:   5640.45
	FillingsUpdate:  mu: -0.171300000  nElectrons: 176.177685  magneticMoment: [ Abs: 0.00001  Tot: +0.00001 ]
	SubspaceRotationAdjust: set factor to 0.00772
ElecMinimize: Iter:  53  G: -948.508595354083695  |grad|_K:  3.285e-08  alpha:  5.942e-01  linmin: -1.811e-04  t[s]:   5657.38
	Linear fluid (dielectric constant: 78.4, screening length: 8.12261 Bohr) occupying 0.551994 of unit cell:	Completed after 2 iterations at t[s]:   5671.54
	Linear fluid (dielectric constant: 78.4, screening length: 8.12261 Bohr) occupying 0.551992 of unit cell:	Completed after 0 iterations at t[s]:   5682.35
	FillingsUpdate:  mu: -0.171300000  nElectrons: 176.177603  magneticMoment: [ Abs: 0.00001  Tot: +0.00001 ]
	SubspaceRotationAdjust: set factor to 0.00886
ElecMinimize: Iter:  54  G: -948.508595559744890  |grad|_K:  3.525e-08  alpha:  6.798e-01  linmin: -1.164e-04  t[s]:   5699.31
	Linear fluid (dielectric constant: 78.4, screening length: 8.12261 Bohr) occupying 0.551947 of unit cell:	Completed after 9 iterations at t[s]:   5713.16
	Linear fluid (dielectric constant: 78.4, screening length: 8.12261 Bohr) occupying 0.551949 of unit cell:	Completed after 0 iterations at t[s]:   5724.09
	FillingsUpdate:  mu: -0.171300000  nElectrons: 176.177264  magneticMoment: [ Abs: 0.00001  Tot: +0.00000 ]
	SubspaceRotationAdjust: set factor to 0.00865
ElecMinimize: Iter:  55  G: -948.508595786366186  |grad|_K:  4.149e-08  alpha:  6.535e-01  linmin:  4.575e-05  t[s]:   5740.96
	Linear fluid (dielectric constant: 78.4, screening length: 8.12261 Bohr) occupying 0.551967 of unit cell:	Completed after 10 iterations at t[s]:   5754.92
	Linear fluid (dielectric constant: 78.4, screening length: 8.12261 Bohr) occupying 0.551961 of unit cell:	Completed after 6 iterations at t[s]:   5766.27
	FillingsUpdate:  mu: -0.171300000  nElectrons: 176.177503  magneticMoment: [ Abs: 0.00001  Tot: +0.00000 ]
	SubspaceRotationAdjust: set factor to 0.00735
ElecMinimize: Iter:  56  G: -948.508595999125191  |grad|_K:  4.048e-08  alpha:  4.542e-01  linmin:  4.529e-06  t[s]:   5783.27
	Linear fluid (dielectric constant: 78.4, screening length: 8.12261 Bohr) occupying 0.551934 of unit cell:	Completed after 8 iterations at t[s]:   5797.01
	Linear fluid (dielectric constant: 78.4, screening length: 8.12261 Bohr) occupying 0.551927 of unit cell:	Completed after 2 iterations at t[s]:   5808.01
	FillingsUpdate:  mu: -0.171300000  nElectrons: 176.177295  magneticMoment: [ Abs: 0.00001  Tot: +0.00000 ]
	SubspaceRotationAdjust: set factor to 0.00819
ElecMinimize: Iter:  57  G: -948.508596257008548  |grad|_K:  3.749e-08  alpha:  5.661e-01  linmin: -2.668e-04  t[s]:   5824.78
	Linear fluid (dielectric constant: 78.4, screening length: 8.12261 Bohr) occupying 0.551901 of unit cell:	Completed after 8 iterations at t[s]:   5838.55
	Linear fluid (dielectric constant: 78.4, screening length: 8.12261 Bohr) occupying 0.551899 of unit cell:	Completed after 0 iterations at t[s]:   5849.41
	FillingsUpdate:  mu: -0.171300000  nElectrons: 176.177148  magneticMoment: [ Abs: 0.00001  Tot: +0.00000 ]
	SubspaceRotationAdjust: set factor to 0.00882
ElecMinimize: Iter:  58  G: -948.508596507053767  |grad|_K:  3.914e-08  alpha:  6.248e-01  linmin: -1.948e-04  t[s]:   5866.42
	Linear fluid (dielectric constant: 78.4, screening length: 8.12261 Bohr) occupying 0.551931 of unit cell:	Completed after 10 iterations at t[s]:   5880.40
	Linear fluid (dielectric constant: 78.4, screening length: 8.12261 Bohr) occupying 0.551925 of unit cell:	Completed after 2 iterations at t[s]:   5891.42
	FillingsUpdate:  mu: -0.171300000  nElectrons: 176.177549  magneticMoment: [ Abs: 0.00001  Tot: +0.00000 ]
	SubspaceRotationAdjust: set factor to 0.00775
ElecMinimize: Iter:  59  G: -948.508596731887565  |grad|_K:  4.235e-08  alpha:  5.128e-01  linmin:  2.578e-04  t[s]:   5908.59
	Linear fluid (dielectric constant: 78.4, screening length: 8.12261 Bohr) occupying 0.551902 of unit cell:	Completed after 10 iterations at t[s]:   5922.48
	Linear fluid (dielectric constant: 78.4, screening length: 8.12261 Bohr) occupying 0.551903 of unit cell:	Completed after 0 iterations at t[s]:   5933.43
	FillingsUpdate:  mu: -0.171300000  nElectrons: 176.177485  magneticMoment: [ Abs: 0.00001  Tot: +0.00000 ]
	SubspaceRotationAdjust: set factor to 0.00772
ElecMinimize: Iter:  60  G: -948.508596964811204  |grad|_K:  3.628e-08  alpha:  4.878e-01  linmin: -7.854e-05  t[s]:   5950.35
	Linear fluid (dielectric constant: 78.4, screening length: 8.12261 Bohr) occupying 0.551911 of unit cell:	Completed after 2 iterations at t[s]:   5964.26
	Linear fluid (dielectric constant: 78.4, screening length: 8.12261 Bohr) occupying 0.551914 of unit cell:	Completed after 0 iterations at t[s]:   5975.08
	FillingsUpdate:  mu: -0.171300000  nElectrons: 176.177753  magneticMoment: [ Abs: 0.00001  Tot: +0.00000 ]
	SubspaceRotationAdjust: set factor to 0.00888
ElecMinimize: Iter:  61  G: -948.508597202742067  |grad|_K:  3.594e-08  alpha:  6.467e-01  linmin: -8.481e-05  t[s]:   5991.94
	Linear fluid (dielectric constant: 78.4, screening length: 8.12261 Bohr) occupying 0.551958 of unit cell:	Completed after 9 iterations at t[s]:   6005.76
	Linear fluid (dielectric constant: 78.4, screening length: 8.12261 Bohr) occupying 0.551955 of unit cell:	Completed after 0 iterations at t[s]:   6016.63
	FillingsUpdate:  mu: -0.171300000  nElectrons: 176.178319  magneticMoment: [ Abs: 0.00001  Tot: +0.00000 ]
	SubspaceRotationAdjust: set factor to 0.00857
ElecMinimize: Iter:  62  G: -948.508597417277542  |grad|_K:  3.980e-08  alpha:  5.977e-01  linmin:  1.693e-06  t[s]:   6033.53
	Linear fluid (dielectric constant: 78.4, screening length: 8.12261 Bohr) occupying 0.551940 of unit cell:	Completed after 10 iterations at t[s]:   6047.43
	Linear fluid (dielectric constant: 78.4, screening length: 8.12261 Bohr) occupying 0.551945 of unit cell:	Completed after 6 iterations at t[s]:   6058.72
	FillingsUpdate:  mu: -0.171300000  nElectrons: 176.178350  magneticMoment: [ Abs: 0.00000  Tot: +0.00000 ]
	SubspaceRotationAdjust: set factor to 0.00686
ElecMinimize: Iter:  63  G: -948.508597576287229  |grad|_K:  3.427e-08  alpha:  3.713e-01  linmin:  1.369e-05  t[s]:   6075.74
	Linear fluid (dielectric constant: 78.4, screening length: 8.12261 Bohr) occupying 0.551973 of unit cell:	Completed after 7 iterations at t[s]:   6089.51
	Linear fluid (dielectric constant: 78.4, screening length: 8.12261 Bohr) occupying 0.551983 of unit cell:	Completed after 2 iterations at t[s]:   6100.46
	FillingsUpdate:  mu: -0.171300000  nElectrons: 176.178859  magneticMoment: [ Abs: 0.00000  Tot: +0.00000 ]
	SubspaceRotationAdjust: set factor to 0.00815
ElecMinimize: Iter:  64  G: -948.508597740504911  |grad|_K:  2.687e-08  alpha:  4.960e-01  linmin: -9.010e-04  t[s]:   6117.48
	Linear fluid (dielectric constant: 78.4, screening length: 8.12261 Bohr) occupying 0.552018 of unit cell:	Completed after 9 iterations at t[s]:   6131.40
	Linear fluid (dielectric constant: 78.4, screening length: 8.12261 Bohr) occupying 0.552017 of unit cell:	Completed after 0 iterations at t[s]:   6142.18
	FillingsUpdate:  mu: -0.171300000  nElectrons: 176.179285  magneticMoment: [ Abs: 0.00000  Tot: +0.00000 ]
	SubspaceRotationAdjust: set factor to 0.00787
[...]
force Pt  -0.000003771160932   0.000128650576140  -0.000060128257519 1
force Pt  -0.000001737600802  -0.000223337823940   0.000104876732311 1
force Pt  -0.000004157685495   0.000211478274621   0.000038374046300 1
force Pt  -0.000001275464246  -0.000010507081909  -0.000093924785951 1
force Pt   0.000000658389219  -0.000158895448567  -0.000206654326964 1
force Pt   0.000014221819323   0.000028615171134  -0.000004701042909 1

# Energy components:
   A_diel =       -0.0855952133886393
   Eewald =    10861.6484289137370070
       EH =    11761.4952310485950875
     Eloc =   -23771.4517412772547686
      Enl =      -11.5792456607236502
     EvdW =       -0.2521294315397603
      Exc =     -312.9922648344738150
 Exc_core =      180.3052008961172135
       KE =      314.2193504284653613
  MuShift =       -0.0130818888060812
-------------------------------------
     Etot =     -978.7058470192714594
       TS =        0.0020024604237086
-------------------------------------
        F =     -978.7078494796951418
      muN =      -30.1916861035079336
-------------------------------------
        G =     -948.5161633761872508


Dumping 'jdft.fillings' ... done
Dumping 'jdft.wfns' ... done
Dumping 'jdft.fluidState' ... done
Dumping 'jdft.ionpos' ... done
Dumping 'jdft.lattice' ... done
Dumping 'jdft.eigenvals' ... done
Dumping 'jdft.eigStats' ... 
	eMin: -2.121865 at state 49 ( [ -0.461538 +0.000000 +0.000000 ] spin 1 )
	HOMO: -0.171357 at state 147 ( [ -0.384615 +0.000000 +0.000000 ] spin -1 )
	mu  : -0.171300
	LUMO: -0.171113 at state 13 ( [ +0.076923 -0.142857 +0.000000 ] spin 1 )
	eMax: +0.135218 at state 128 ( [ +0.384615 +0.285714 +0.000000 ] spin -1 )
	HOMO-LUMO gap: +0.000243
	Optical gap  : +0.000540 at state 147 ( [ -0.384615 +0.000000 +0.000000 ] spin -1 )
Dumping 'jdft.Ecomponents' ... done
IonicMinimize: Iter:  17  G: -948.516163376187251  |grad|_K:  1.069e-04  alpha:  1.000e+00  linmin:  1.208e-01  t[s]:  43860.59

#--- Lowdin population analysis ---
# oxidation-state Pt -0.032 -0.032 -0.044 -0.015 +0.010 +0.008 +0.007 +0.008 +0.010 -0.015 -0.044
# magnetic-moments Pt +0.000 +0.000 +0.000 +0.000 +0.000 +0.000 +0.000 +0.000 +0.000 +0.000 +0.000


Computing DFT-D3 correction:
# coordination-number Pt 5.968 5.969 7.630 9.467 9.211 9.585 9.494 9.587 9.211 9.467 7.628
# diagonal-C6 Pt 336.87 336.87 336.87 336.87 336.87 336.87 336.87 336.87 336.87 336.87 336.87
EvdW_6 =   -0.096209
EvdW_8 =   -0.155943
Shifting auxilliary hamiltonian by 0.000005 to set nElectrons=176.250357

-------- Electronic minimization -----------
	Linear fluid (dielectric constant: 78.4, screening length: 8.12261 Bohr) occupying 0.562962 of unit cell:	Completed after 13 iterations at t[s]:  43876.50
	FillingsUpdate:  mu: -0.171300000  nElectrons: 176.250357  magneticMoment: [ Abs: 0.00000  Tot: +0.00000 ]
ElecMinimize: Iter:   0  G: -948.516140769662798  |grad|_K:  5.779e-07  alpha:  1.000e+00
	Linear fluid (dielectric constant: 78.4, screening length: 8.12261 Bohr) occupying 0.559346 of unit cell:	Completed after 18 iterations at t[s]:  43910.13
	Linear fluid (dielectric constant: 78.4, screening length: 8.12261 Bohr) occupying 0.562518 of unit cell:	Completed after 17 iterations at t[s]:  43922.15
	FillingsUpdate:  mu: -0.171300000  nElectrons: 176.246587  magneticMoment: [ Abs: 0.00000  Tot: +0.00000 ]
	SubspaceRotationAdjust: set factor to 0.0117
ElecMinimize: Iter:   1  G: -948.516152086164084  |grad|_K:  2.247e-07  alpha:  1.217e-01  linmin: -3.553e-03  t[s]:  43939.07
	Linear fluid (dielectric constant: 78.4, screening length: 8.12261 Bohr) occupying 0.562579 of unit cell:	Completed after 10 iterations at t[s]:  43953.25
	Linear fluid (dielectric constant: 78.4, screening length: 8.12261 Bohr) occupying 0.562684 of unit cell:	Completed after 10 iterations at t[s]:  43964.82
	FillingsUpdate:  mu: -0.171300000  nElectrons: 176.247986  magneticMoment: [ Abs: 0.00000  Tot: +0.00000 ]
	SubspaceRotationAdjust: set factor to 0.0174
ElecMinimize: Iter:   2  G: -948.516156790155151  |grad|_K:  9.410e-08  alpha:  3.339e-01  linmin: -1.684e-03  t[s]:  43981.88
	Linear fluid (dielectric constant: 78.4, screening length: 8.12261 Bohr) occupying 0.562727 of unit cell:	Completed after 10 iterations at t[s]:  43995.75
	Linear fluid (dielectric constant: 78.4, screening length: 8.12261 Bohr) occupying 0.562748 of unit cell:	Completed after 2 iterations at t[s]:  44006.87
	FillingsUpdate:  mu: -0.171300000  nElectrons: 176.248502  magneticMoment: [ Abs: 0.00000  Tot: +0.00000 ]
	SubspaceRotationAdjust: set factor to 0.0214
ElecMinimize: Iter:   3  G: -948.516157994011905  |grad|_K:  6.708e-08  alpha:  4.898e-01  linmin: -1.523e-03  t[s]:  44023.86
	Linear fluid (dielectric constant: 78.4, screening length: 8.12261 Bohr) occupying 0.562725 of unit cell:	Completed after 10 iterations at t[s]:  44037.75
	Linear fluid (dielectric constant: 78.4, screening length: 8.12261 Bohr) occupying 0.562726 of unit cell:	Completed after 0 iterations at t[s]:  44048.65
	FillingsUpdate:  mu: -0.171300000  nElectrons: 176.248293  magneticMoment: [ Abs: 0.00000  Tot: +0.00000 ]
	SubspaceRotationAdjust: set factor to 0.0169
ElecMinimize: Iter:   4  G: -948.516158598569859  |grad|_K:  8.441e-08  alpha:  4.837e-01  linmin:  1.966e-03  t[s]:  44065.75
	Linear fluid (dielectric constant: 78.4, screening length: 8.12261 Bohr) occupying 0.562988 of unit cell:	Completed after 12 iterations at t[s]:  44080.06
	Linear fluid (dielectric constant: 78.4, screening length: 8.12261 Bohr) occupying 0.562844 of unit cell:	Completed after 12 iterations at t[s]:  44091.70
	FillingsUpdate:  mu: -0.171300000  nElectrons: 176.249278  magneticMoment: [ Abs: 0.00000  Tot: +0.00000 ]
	SubspaceRotationAdjust: set factor to 0.0128
ElecMinimize: Iter:   5  G: -948.516159016558504  |grad|_K:  6.414e-08  alpha:  2.189e-01  linmin:  2.492e-04  t[s]:  44108.84
	Linear fluid (dielectric constant: 78.4, screening length: 8.12261 Bohr) occupying 0.562865 of unit cell:	Completed after 3 iterations at t[s]:  44122.25
	Linear fluid (dielectric constant: 78.4, screening length: 8.12261 Bohr) occupying 0.562899 of unit cell:	Completed after 5 iterations at t[s]:  44133.46
	FillingsUpdate:  mu: -0.171300000  nElectrons: 176.249708  magneticMoment: [ Abs: 0.00000  Tot: +0.00000 ]
	SubspaceRotationAdjust: set factor to 0.0157
ElecMinimize: Iter:   6  G: -948.516159667092666  |grad|_K:  5.347e-08  alpha:  5.783e-01  linmin:  1.102e-03  t[s]:  44150.51
	Linear fluid (dielectric constant: 78.4, screening length: 8.12261 Bohr) occupying 0.562897 of unit cell:	Completed after 9 iterations at t[s]:  44164.48
	Linear fluid (dielectric constant: 78.4, screening length: 8.12261 Bohr) occupying 0.562897 of unit cell:	Completed after 0 iterations at t[s]:  44175.55
	FillingsUpdate:  mu: -0.171300000  nElectrons: 176.249683  magneticMoment: [ Abs: 0.00000  Tot: +0.00000 ]
	SubspaceRotationAdjust: set factor to 0.0151
ElecMinimize: Iter:   7  G: -948.516160145764616  |grad|_K:  5.863e-08  alpha:  6.118e-01  linmin: -8.617e-04  t[s]:  44192.58
	Linear fluid (dielectric constant: 78.4, screening length: 8.12261 Bohr) occupying 0.563076 of unit cell:	Completed after 11 iterations at t[s]:  44206.53
	Linear fluid (dielectric constant: 78.4, screening length: 8.12261 Bohr) occupying 0.562979 of unit cell:	Completed after 11 iterations at t[s]:  44218.14
	FillingsUpdate:  mu: -0.171300000  nElectrons: 176.250389  magneticMoment: [ Abs: 0.00000  Tot: +0.00000 ]
	SubspaceRotationAdjust: set factor to 0.0117
ElecMinimize: Iter:   8  G: -948.516160423358087  |grad|_K:  5.065e-08  alpha:  2.822e-01  linmin:  6.505e-06  t[s]:  44235.14
	Linear fluid (dielectric constant: 78.4, screening length: 8.12261 Bohr) occupying 0.562983 of unit cell:	Completed after 2 iterations at t[s]:  44248.54
	Linear fluid (dielectric constant: 78.4, screening length: 8.12261 Bohr) occupying 0.562987 of unit cell:	Completed after 7 iterations at t[s]:  44259.88
	FillingsUpdate:  mu: -0.171300000  nElectrons: 176.250482  magneticMoment: [ Abs: 0.00000  Tot: +0.00000 ]
	SubspaceRotationAdjust: set factor to 0.0128
ElecMinimize: Iter:   9  G: -948.516160821119115  |grad|_K:  4.231e-08  alpha:  5.674e-01  linmin:  8.674e-04  t[s]:  44277.01
	Linear fluid (dielectric constant: 78.4, screening length: 8.12261 Bohr) occupying 0.562994 of unit cell:	Completed after 3 iterations at t[s]:  44290.40
	Linear fluid (dielectric constant: 78.4, screening length: 8.12261 Bohr) occupying 0.562995 of unit cell:	Completed after 3 iterations at t[s]:  44301.46
	FillingsUpdate:  mu: -0.171300000  nElectrons: 176.250599  magneticMoment: [ Abs: 0.00000  Tot: +0.00000 ]
	SubspaceRotationAdjust: set factor to 0.0148
ElecMinimize: Iter:  10  G: -948.516161154572387  |grad|_K:  4.051e-08  alpha:  6.836e-01  linmin:  3.351e-04  t[s]:  44318.34
	Linear fluid (dielectric constant: 78.4, screening length: 8.12261 Bohr) occupying 0.563065 of unit cell:	Completed after 10 iterations at t[s]:  44332.28
	Linear fluid (dielectric constant: 78.4, screening length: 8.12261 Bohr) occupying 0.563048 of unit cell:	Completed after 6 iterations at t[s]:  44343.52
	FillingsUpdate:  mu: -0.171300000  nElectrons: 176.251081  magneticMoment: [ Abs: 0.00000  Tot: +0.00000 ]
	SubspaceRotationAdjust: set factor to 0.0134
ElecMinimize: Iter:  11  G: -948.516161389692002  |grad|_K:  4.988e-08  alpha:  5.159e-01  linmin:  7.814e-04  t[s]:  44360.78
	Linear fluid (dielectric constant: 78.4, screening length: 8.12261 Bohr) occupying 0.562983 of unit cell:	Completed after 11 iterations at t[s]:  44375.33
	Linear fluid (dielectric constant: 78.4, screening length: 8.12261 Bohr) occupying 0.563006 of unit cell:	Completed after 9 iterations at t[s]:  44386.81
	FillingsUpdate:  mu: -0.171300000  nElectrons: 176.250755  magneticMoment: [ Abs: 0.00000  Tot: +0.00000 ]
	SubspaceRotationAdjust: set factor to 0.011
ElecMinimize: Iter:  12  G: -948.516161611914981  |grad|_K:  3.989e-08  alpha:  3.330e-01  linmin: -8.475e-05  t[s]:  44403.63
	Linear fluid (dielectric constant: 78.4, screening length: 8.12261 Bohr) occupying 0.563012 of unit cell:	Completed after 2 iterations at t[s]:  44416.96
	Linear fluid (dielectric constant: 78.4, screening length: 8.12261 Bohr) occupying 0.563020 of unit cell:	Completed after 7 iterations at t[s]:  44428.30
	FillingsUpdate:  mu: -0.171300000  nElectrons: 176.250902  magneticMoment: [ Abs: 0.00000  Tot: +0.00000 ]
	SubspaceRotationAdjust: set factor to 0.0121
ElecMinimize: Iter:  13  G: -948.516161948642889  |grad|_K:  3.997e-08  alpha:  7.740e-01  linmin:  5.439e-04  t[s]:  44445.44
	Linear fluid (dielectric constant: 78.4, screening length: 8.12261 Bohr) occupying 0.563017 of unit cell:	Completed after 2 iterations at t[s]:  44458.84
	Linear fluid (dielectric constant: 78.4, screening length: 8.12261 Bohr) occupying 0.563017 of unit cell:	Completed after 0 iterations at t[s]:  44469.72
	FillingsUpdate:  mu: -0.171300000  nElectrons: 176.250885  magneticMoment: [ Abs: 0.00000  Tot: +0.00000 ]
	SubspaceRotationAdjust: set factor to 0.0132
ElecMinimize: Iter:  14  G: -948.516162301432928  |grad|_K:  4.104e-08  alpha:  8.082e-01  linmin: -7.452e-05  t[s]:  44486.77
	Linear fluid (dielectric constant: 78.4, screening length: 8.12261 Bohr) occupying 0.562961 of unit cell:	Completed after 10 iterations at t[s]:  44500.74
	Linear fluid (dielectric constant: 78.4, screening length: 8.12261 Bohr) occupying 0.562963 of unit cell:	Completed after 0 iterations at t[s]:  44511.58
	FillingsUpdate:  mu: -0.171300000  nElectrons: 176.250417  magneticMoment: [ Abs: 0.00000  Tot: +0.00000 ]
	SubspaceRotationAdjust: set factor to 0.0133
ElecMinimize: Iter:  15  G: -948.516162663934097  |grad|_K:  4.377e-08  alpha:  7.760e-01  linmin:  7.111e-04  t[s]:  44528.42
	Linear fluid (dielectric constant: 78.4, screening length: 8.12261 Bohr) occupying 0.562980 of unit cell:	Completed after 9 iterations at t[s]:  44542.22
	Linear fluid (dielectric constant: 78.4, screening length: 8.12261 Bohr) occupying 0.562975 of unit cell:	Completed after 8 iterations at t[s]:  44553.89
	FillingsUpdate:  mu: -0.171300000  nElectrons: 176.250493  magneticMoment: [ Abs: 0.00000  Tot: +0.00000 ]
	SubspaceRotationAdjust: set factor to 0.0114
ElecMinimize: Iter:  16  G: -948.516162926631409  |grad|_K:  4.844e-08  alpha:  5.106e-01  linmin:  1.535e-05  t[s]:  44570.99
	Linear fluid (dielectric constant: 78.4, screening length: 8.12261 Bohr) occupying 0.562865 of unit cell:	Completed after 11 iterations at t[s]:  44585.02
	Linear fluid (dielectric constant: 78.4, screening length: 8.12261 Bohr) occupying 0.562903 of unit cell:	Completed after 10 iterations at t[s]:  44596.62
	FillingsUpdate:  mu: -0.171300000  nElectrons: 176.249861  magneticMoment: [ Abs: 0.00000  Tot: +0.00000 ]
	SubspaceRotationAdjust: set factor to 0.00884
ElecMinimize: Iter:  17  G: -948.516163142081950  |grad|_K:  3.739e-08  alpha:  3.357e-01  linmin: -7.694e-05  t[s]:  44613.68
	Linear fluid (dielectric constant: 78.4, screening length: 8.12261 Bohr) occupying 0.562892 of unit cell:	Completed after 2 iterations at t[s]:  44627.16
	Linear fluid (dielectric constant: 78.4, screening length: 8.12261 Bohr) occupying 0.562884 of unit cell:	Completed after 2 iterations at t[s]:  44638.23
	FillingsUpdate:  mu: -0.171300000  nElectrons: 176.249682  magneticMoment: [ Abs: 0.00000  Tot: +0.00000 ]
	SubspaceRotationAdjust: set factor to 0.0101
ElecMinimize: Iter:  18  G: -948.516163367620948  |grad|_K:  3.059e-08  alpha:  5.849e-01  linmin:  1.866e-04  t[s]:  44655.25
	Linear fluid (dielectric constant: 78.4, screening length: 8.12261 Bohr) occupying 0.562884 of unit cell:	Completed after 7 iterations at t[s]:  44669.32
	Linear fluid (dielectric constant: 78.4, screening length: 8.12261 Bohr) occupying 0.562884 of unit cell:	Completed after 0 iterations at t[s]:  44680.55
	FillingsUpdate:  mu: -0.171300000  nElectrons: 176.249663  magneticMoment: [ Abs: 0.00000  Tot: +0.00000 ]
	SubspaceRotationAdjust: set factor to 0.0105
ElecMinimize: Iter:  19  G: -948.516163510889669  |grad|_K:  2.985e-08  alpha:  5.567e-01  linmin: -3.849e-04  t[s]:  44697.62
	Linear fluid (dielectric constant: 78.4, screening length: 8.12261 Bohr) occupying 0.562832 of unit cell:	Completed after 10 iterations at t[s]:  44711.54
	Linear fluid (dielectric constant: 78.4, screening length: 8.12261 Bohr) occupying 0.562849 of unit cell:	Completed after 6 iterations at t[s]:  44722.79
	FillingsUpdate:  mu: -0.171300000  nElectrons: 176.249357  magneticMoment: [ Abs: 0.00000  Tot: +0.00000 ]
	SubspaceRotationAdjust: set factor to 0.00896
ElecMinimize: Iter:  20  G: -948.516163602978622  |grad|_K:  2.721e-08  alpha:  3.690e-01  linmin:  8.234e-04  t[s]:  44739.87
	Linear fluid (dielectric constant: 78.4, screening length: 8.12261 Bohr) occupying 0.562856 of unit cell:	Completed after 7 iterations at t[s]:  44753.69
	Linear fluid (dielectric constant: 78.4, screening length: 8.12261 Bohr) occupying 0.562858 of unit cell:	Completed after 0 iterations at t[s]:  44764.45
	FillingsUpdate:  mu: -0.171300000  nElectrons: 176.249421  magneticMoment: [ Abs: 0.00000  Tot: +0.00000 ]
	SubspaceRotationAdjust: set factor to 0.0113
ElecMinimize: Iter:  21  G: -948.516163702078870  |grad|_K:  2.262e-08  alpha:  4.866e-01  linmin: -2.536e-03  t[s]:  44781.47
ElecMinimize: Converged (|Delta G|<1.000000e-07 for 2 iters).
Setting wave functions to eigenvectors of Hamiltonian
Converging empty states (this may take a while): |deigs|: 1.568e-08

Computing DFT-D3 correction:
# coordination-number Pt 5.968 5.969 7.630 9.467 9.211 9.585 9.494 9.587 9.211 9.467 7.628
# diagonal-C6 Pt 336.87 336.87 336.87 336.87 336.87 336.87 336.87 336.87 336.87 336.87 336.87
EvdW_6 =   -0.096209
EvdW_8 =   -0.155943

# Ionic positions in cartesian coordinates:
ion Pt   5.239595659073606   0.280251121378319  23.222839831509752 1
ion Pt  -0.007681342029419   4.453199900402299   1.317857473878796 1
ion Pt   2.607095909197816   0.501945774477585   3.042508933162545 1
ion Pt   2.610997437748857   5.481507345376292   5.631847172983153 1
ion Pt  -0.002475950315713   1.548426422425506   7.767136063948525 1
ion Pt  -0.002608433738653   6.306529608585064  10.051067346274465 1
ion Pt   2.616219469475389   2.365121869417557  12.270577866670669 1
ion Pt   2.618707846556223   7.104110651055758  14.489176768530358 1
ion Pt   0.002602414420924   3.182625371886127  16.772669655365068 1
ion Pt   0.004940906418778   7.927613344539258  18.907879650706032 1
ion Pt   2.624597083192195   4.230081590456241  21.497990236970647 1

# Forces in Cartesian coordinates:
force Pt  -0.000001018726419  -0.000122622310964  -0.000042273845556 1
force Pt  -0.000000161607564   0.000017130006285  -0.000106791107472 1
force Pt   0.000000313731906   0.000060685805640  -0.000051664582301 1
force Pt  -0.000001231345904  -0.000039451865336   0.000076648482633 1
force Pt   0.000000133224436   0.000185452745722   0.000017915036268 1
force Pt   0.000002235171262  -0.000202783889067   0.000032264541993 1
force Pt  -0.000002698002709   0.000259475926641  -0.000085601586362 1
force Pt  -0.000001242180365  -0.000266198872523   0.000025503520038 1
force Pt  -0.000002107470669   0.000155364243280   0.000042065318273 1
force Pt   0.000002514080081  -0.000123558877183   0.000057399279020 1
force Pt   0.000004147521158   0.000101387098394  -0.000033170388403 1

# Energy components:
   A_diel =       -0.0852324418882507
   Eewald =    10862.5452503125743533
       EH =    11762.3402496326671098
     Eloc =   -23773.1940724567830330
      Enl =      -11.5788069055564105
     EvdW =       -0.2521511388550016
      Exc =     -312.9923246528881009
 Exc_core =      180.3052008536637629
       KE =      314.2192327471931890
  MuShift =       -0.0130330037020861
-------------------------------------
     Etot =     -978.7056870535743656
       TS =        0.0020024929197782
-------------------------------------
        F =     -978.7076895464941799
      muN =      -30.1915258444153025
-------------------------------------
        G =     -948.5161637020788703


Dumping 'jdft.fillings' ... done
Dumping 'jdft.wfns' ... done
Dumping 'jdft.fluidState' ... done
Dumping 'jdft.ionpos' ... done
Dumping 'jdft.lattice' ... done
Dumping 'jdft.eigenvals' ... done
Dumping 'jdft.eigStats' ... 
	eMin: -2.121886 at state 42 ( [ +0.461538 +0.000000 +0.000000 ] spin 1 )
	HOMO: -0.171386 at state 126 ( [ +0.384615 +0.000000 +0.000000 ] spin -1 )
	mu  : -0.171300
	LUMO: -0.171129 at state 13 ( [ +0.076923 -0.142857 +0.000000 ] spin 1 )
	eMax: +0.135199 at state 128 ( [ +0.384615 +0.285714 +0.000000 ] spin -1 )
	HOMO-LUMO gap: +0.000258
	Optical gap  : +0.000517 at state 126 ( [ +0.384615 +0.000000 +0.000000 ] spin -1 )
Dumping 'jdft.Ecomponents' ... done
IonicMinimize: Iter:  18  G: -948.516163702078870  |grad|_K:  9.859e-05  alpha:  1.000e+00  linmin:  5.382e-01  t[s]:  44821.98
IonicMinimize: Converged (|grad|_K<1.000000e-04).

#--- Lowdin population analysis ---
# oxidation-state Pt -0.034 -0.034 -0.047 -0.014 +0.012 +0.010 +0.008 +0.009 +0.012 -0.014 -0.047
# magnetic-moments Pt +0.000 +0.000 +0.000 +0.000 +0.000 +0.000 +0.000 +0.000 +0.000 +0.000 +0.000


Dumping 'jdft.n_up' ... done
Dumping 'jdft.n_dn' ... done
Dumping 'jdft.tau_up' ... done
Dumping 'jdft.tau_dn' ... done
Dumping 'jdft.eigenvals' ... done
Dumping 'jdft.eigStats' ... 
	eMin: -2.121886 at state 42 ( [ +0.461538 +0.000000 +0.000000 ] spin 1 )
	HOMO: -0.171386 at state 126 ( [ +0.384615 +0.000000 +0.000000 ] spin -1 )
	mu  : -0.171300
	LUMO: -0.171129 at state 13 ( [ +0.076923 -0.142857 +0.000000 ] spin 1 )
	eMax: +0.135199 at state 128 ( [ +0.384615 +0.285714 +0.000000 ] spin -1 )
	HOMO-LUMO gap: +0.000258
	Optical gap  : +0.000517 at state 126 ( [ +0.384615 +0.000000 +0.000000 ] spin -1 )
Dumping 'jdft.kPts' ... done
Dumping 'jdft.dosUp' ... done.
Dumping 'jdft.dosDn' ... done.
End date and time: Tue Dec  7 05:20:08 2021  (Duration: 0-12:27:31.05)
Done!
