
*************** JDFTx 1.6.0  ***************

Start date and time: Sat Feb 19 22:49:51 2022
Executable /projects/musgravc/apps/jdftx-1.6.1/build/jdftx with command-line: -i in
Running on hosts (process indices):  shas0330.rc.int.colorado.edu (0-23)
Divided in process groups (process indices):  0 (0)  1 (1)  2 (2)  3 (3)  4 (4)  5 (5)  6 (6)  7 (7)  8 (8)  9 (9)  10 (10)  11 (11)  12 (12)  13 (13)  14 (14)  15 (15)  16 (16)  17 (17)  18 (18)  19 (19)  20 (20)  21 (21)  22 (22)  23 (23)
Resource initialization completed at t[s]:      0.00
Run totals: 24 processes, 24 threads, 0 GPUs


Input parsed successfully to the following command list (including defaults):

basis kpoint-dependent
converge-empty-states yes
coords-type Cartesian
core-overlap-check none
coulomb-interaction Periodic
davidson-band-ratio 1.1
density-of-states Etol 1.000000e-06 Esigma 1.000000e-03 \
		Complete \
	Total \
	OrthoOrbital Ag 1   s \
	OrthoOrbital Ag 1   p \
	OrthoOrbital Ag 1   px \
	OrthoOrbital Ag 1   py \
	OrthoOrbital Ag 1   pz \
	OrthoOrbital Ag 1   d \
	OrthoOrbital Ag 1   dxy \
	OrthoOrbital Ag 1   dyz \
	OrthoOrbital Ag 1   dz2 \
	OrthoOrbital Ag 1   dxz \
	OrthoOrbital Ag 1   dx2-y2 \
	OrthoOrbital Ag 2   s \
	OrthoOrbital Ag 2   p \
	OrthoOrbital Ag 2   px \
	OrthoOrbital Ag 2   py \
	OrthoOrbital Ag 2   pz \
	OrthoOrbital Ag 2   d \
	OrthoOrbital Ag 2   dxy \
	OrthoOrbital Ag 2   dyz \
	OrthoOrbital Ag 2   dz2 \
	OrthoOrbital Ag 2   dxz \
	OrthoOrbital Ag 2   dx2-y2 \
	OrthoOrbital Ag 3   s \
	OrthoOrbital Ag 3   p \
	OrthoOrbital Ag 3   px \
	OrthoOrbital Ag 3   py \
	OrthoOrbital Ag 3   pz \
	OrthoOrbital Ag 3   d \
	OrthoOrbital Ag 3   dxy \
	OrthoOrbital Ag 3   dyz \
	OrthoOrbital Ag 3   dz2 \
	OrthoOrbital Ag 3   dxz \
	OrthoOrbital Ag 3   dx2-y2 \
	OrthoOrbital Ag 4   s \
	OrthoOrbital Ag 4   p \
	OrthoOrbital Ag 4   px \
	OrthoOrbital Ag 4   py \
	OrthoOrbital Ag 4   pz \
	OrthoOrbital Ag 4   d \
	OrthoOrbital Ag 4   dxy \
	OrthoOrbital Ag 4   dyz \
	OrthoOrbital Ag 4   dz2 \
	OrthoOrbital Ag 4   dxz \
	OrthoOrbital Ag 4   dx2-y2 \
	OrthoOrbital Ag 5   s \
	OrthoOrbital Ag 5   p \
	OrthoOrbital Ag 5   px \
	OrthoOrbital Ag 5   py \
	OrthoOrbital Ag 5   pz \
	OrthoOrbital Ag 5   d \
	OrthoOrbital Ag 5   dxy \
	OrthoOrbital Ag 5   dyz \
	OrthoOrbital Ag 5   dz2 \
	OrthoOrbital Ag 5   dxz \
	OrthoOrbital Ag 5   dx2-y2 \
	OrthoOrbital Ag 6   s \
	OrthoOrbital Ag 6   p \
	OrthoOrbital Ag 6   px \
	OrthoOrbital Ag 6   py \
	OrthoOrbital Ag 6   pz \
	OrthoOrbital Ag 6   d \
	OrthoOrbital Ag 6   dxy \
	OrthoOrbital Ag 6   dyz \
	OrthoOrbital Ag 6   dz2 \
	OrthoOrbital Ag 6   dxz \
	OrthoOrbital Ag 6   dx2-y2 \
	OrthoOrbital Ag 7   s \
	OrthoOrbital Ag 7   p \
	OrthoOrbital Ag 7   px \
	OrthoOrbital Ag 7   py \
	OrthoOrbital Ag 7   pz \
	OrthoOrbital Ag 7   d \
	OrthoOrbital Ag 7   dxy \
	OrthoOrbital Ag 7   dyz \
	OrthoOrbital Ag 7   dz2 \
	OrthoOrbital Ag 7   dxz \
	OrthoOrbital Ag 7   dx2-y2 \
	OrthoOrbital Ag 8   s \
	OrthoOrbital Ag 8   p \
	OrthoOrbital Ag 8   px \
	OrthoOrbital Ag 8   py \
	OrthoOrbital Ag 8   pz \
	OrthoOrbital Ag 8   d \
	OrthoOrbital Ag 8   dxy \
	OrthoOrbital Ag 8   dyz \
	OrthoOrbital Ag 8   dz2 \
	OrthoOrbital Ag 8   dxz \
	OrthoOrbital Ag 8   dx2-y2 \
	OrthoOrbital Ag 9   s \
	OrthoOrbital Ag 9   p \
	OrthoOrbital Ag 9   px \
	OrthoOrbital Ag 9   py \
	OrthoOrbital Ag 9   pz \
	OrthoOrbital Ag 9   d \
	OrthoOrbital Ag 9   dxy \
	OrthoOrbital Ag 9   dyz \
	OrthoOrbital Ag 9   dz2 \
	OrthoOrbital Ag 9   dxz \
	OrthoOrbital Ag 9   dx2-y2 \
	OrthoOrbital Ag 10   s \
	OrthoOrbital Ag 10   p \
	OrthoOrbital Ag 10   px \
	OrthoOrbital Ag 10   py \
	OrthoOrbital Ag 10   pz \
	OrthoOrbital Ag 10   d \
	OrthoOrbital Ag 10   dxy \
	OrthoOrbital Ag 10   dyz \
	OrthoOrbital Ag 10   dz2 \
	OrthoOrbital Ag 10   dxz \
	OrthoOrbital Ag 10   dx2-y2 \
	OrthoOrbital Ag 11   s \
	OrthoOrbital Ag 11   p \
	OrthoOrbital Ag 11   px \
	OrthoOrbital Ag 11   py \
	OrthoOrbital Ag 11   pz \
	OrthoOrbital Ag 11   d \
	OrthoOrbital Ag 11   dxy \
	OrthoOrbital Ag 11   dyz \
	OrthoOrbital Ag 11   dz2 \
	OrthoOrbital Ag 11   dxz \
	OrthoOrbital Ag 11   dx2-y2 \
	OrthoOrbital Ag 12   s \
	OrthoOrbital Ag 12   p \
	OrthoOrbital Ag 12   px \
	OrthoOrbital Ag 12   py \
	OrthoOrbital Ag 12   pz \
	OrthoOrbital Ag 12   d \
	OrthoOrbital Ag 12   dxy \
	OrthoOrbital Ag 12   dyz \
	OrthoOrbital Ag 12   dz2 \
	OrthoOrbital Ag 12   dxz \
	OrthoOrbital Ag 12   dx2-y2 \
	OrthoOrbital Ag 13   s \
	OrthoOrbital Ag 13   p \
	OrthoOrbital Ag 13   px \
	OrthoOrbital Ag 13   py \
	OrthoOrbital Ag 13   pz \
	OrthoOrbital Ag 13   d \
	OrthoOrbital Ag 13   dxy \
	OrthoOrbital Ag 13   dyz \
	OrthoOrbital Ag 13   dz2 \
	OrthoOrbital Ag 13   dxz \
	OrthoOrbital Ag 13   dx2-y2 \
	OrthoOrbital Ag 14   s \
	OrthoOrbital Ag 14   p \
	OrthoOrbital Ag 14   px \
	OrthoOrbital Ag 14   py \
	OrthoOrbital Ag 14   pz \
	OrthoOrbital Ag 14   d \
	OrthoOrbital Ag 14   dxy \
	OrthoOrbital Ag 14   dyz \
	OrthoOrbital Ag 14   dz2 \
	OrthoOrbital Ag 14   dxz \
	OrthoOrbital Ag 14   dx2-y2 \
	OrthoOrbital Ag 15   s \
	OrthoOrbital Ag 15   p \
	OrthoOrbital Ag 15   px \
	OrthoOrbital Ag 15   py \
	OrthoOrbital Ag 15   pz \
	OrthoOrbital Ag 15   d \
	OrthoOrbital Ag 15   dxy \
	OrthoOrbital Ag 15   dyz \
	OrthoOrbital Ag 15   dz2 \
	OrthoOrbital Ag 15   dxz \
	OrthoOrbital Ag 15   dx2-y2 \
	OrthoOrbital Ag 16   s \
	OrthoOrbital Ag 16   p \
	OrthoOrbital Ag 16   px \
	OrthoOrbital Ag 16   py \
	OrthoOrbital Ag 16   pz \
	OrthoOrbital Ag 16   d \
	OrthoOrbital Ag 16   dxy \
	OrthoOrbital Ag 16   dyz \
	OrthoOrbital Ag 16   dz2 \
	OrthoOrbital Ag 16   dxz \
	OrthoOrbital Ag 16   dx2-y2 \
	OrthoOrbital Ag 17   s \
	OrthoOrbital Ag 17   p \
	OrthoOrbital Ag 17   px \
	OrthoOrbital Ag 17   py \
	OrthoOrbital Ag 17   pz \
	OrthoOrbital Ag 17   d \
	OrthoOrbital Ag 17   dxy \
	OrthoOrbital Ag 17   dyz \
	OrthoOrbital Ag 17   dz2 \
	OrthoOrbital Ag 17   dxz \
	OrthoOrbital Ag 17   dx2-y2 \
	OrthoOrbital Ag 18   s \
	OrthoOrbital Ag 18   p \
	OrthoOrbital Ag 18   px \
	OrthoOrbital Ag 18   py \
	OrthoOrbital Ag 18   pz \
	OrthoOrbital Ag 18   d \
	OrthoOrbital Ag 18   dxy \
	OrthoOrbital Ag 18   dyz \
	OrthoOrbital Ag 18   dz2 \
	OrthoOrbital Ag 18   dxz \
	OrthoOrbital Ag 18   dx2-y2 \
	OrthoOrbital Ag 19   s \
	OrthoOrbital Ag 19   p \
	OrthoOrbital Ag 19   px \
	OrthoOrbital Ag 19   py \
	OrthoOrbital Ag 19   pz \
	OrthoOrbital Ag 19   d \
	OrthoOrbital Ag 19   dxy \
	OrthoOrbital Ag 19   dyz \
	OrthoOrbital Ag 19   dz2 \
	OrthoOrbital Ag 19   dxz \
	OrthoOrbital Ag 19   dx2-y2 \
	OrthoOrbital Ag 20   s \
	OrthoOrbital Ag 20   p \
	OrthoOrbital Ag 20   px \
	OrthoOrbital Ag 20   py \
	OrthoOrbital Ag 20   pz \
	OrthoOrbital Ag 20   d \
	OrthoOrbital Ag 20   dxy \
	OrthoOrbital Ag 20   dyz \
	OrthoOrbital Ag 20   dz2 \
	OrthoOrbital Ag 20   dxz \
	OrthoOrbital Ag 20   dx2-y2 \
	OrthoOrbital Ag 21   s \
	OrthoOrbital Ag 21   p \
	OrthoOrbital Ag 21   px \
	OrthoOrbital Ag 21   py \
	OrthoOrbital Ag 21   pz \
	OrthoOrbital Ag 21   d \
	OrthoOrbital Ag 21   dxy \
	OrthoOrbital Ag 21   dyz \
	OrthoOrbital Ag 21   dz2 \
	OrthoOrbital Ag 21   dxz \
	OrthoOrbital Ag 21   dx2-y2 \
	OrthoOrbital Ag 22   s \
	OrthoOrbital Ag 22   p \
	OrthoOrbital Ag 22   px \
	OrthoOrbital Ag 22   py \
	OrthoOrbital Ag 22   pz \
	OrthoOrbital Ag 22   d \
	OrthoOrbital Ag 22   dxy \
	OrthoOrbital Ag 22   dyz \
	OrthoOrbital Ag 22   dz2 \
	OrthoOrbital Ag 22   dxz \
	OrthoOrbital Ag 22   dx2-y2 \
	OrthoOrbital Ag 23   s \
	OrthoOrbital Ag 23   p \
	OrthoOrbital Ag 23   px \
	OrthoOrbital Ag 23   py \
	OrthoOrbital Ag 23   pz \
	OrthoOrbital Ag 23   d \
	OrthoOrbital Ag 23   dxy \
	OrthoOrbital Ag 23   dyz \
	OrthoOrbital Ag 23   dz2 \
	OrthoOrbital Ag 23   dxz \
	OrthoOrbital Ag 23   dx2-y2 \
	OrthoOrbital Ag 24   s \
	OrthoOrbital Ag 24   p \
	OrthoOrbital Ag 24   px \
	OrthoOrbital Ag 24   py \
	OrthoOrbital Ag 24   pz \
	OrthoOrbital Ag 24   d \
	OrthoOrbital Ag 24   dxy \
	OrthoOrbital Ag 24   dyz \
	OrthoOrbital Ag 24   dz2 \
	OrthoOrbital Ag 24   dxz \
	OrthoOrbital Ag 24   dx2-y2 \
	OrthoOrbital Ag 25   s \
	OrthoOrbital Ag 25   p \
	OrthoOrbital Ag 25   px \
	OrthoOrbital Ag 25   py \
	OrthoOrbital Ag 25   pz \
	OrthoOrbital Ag 25   d \
	OrthoOrbital Ag 25   dxy \
	OrthoOrbital Ag 25   dyz \
	OrthoOrbital Ag 25   dz2 \
	OrthoOrbital Ag 25   dxz \
	OrthoOrbital Ag 25   dx2-y2 \
	OrthoOrbital Ag 26   s \
	OrthoOrbital Ag 26   p \
	OrthoOrbital Ag 26   px \
	OrthoOrbital Ag 26   py \
	OrthoOrbital Ag 26   pz \
	OrthoOrbital Ag 26   d \
	OrthoOrbital Ag 26   dxy \
	OrthoOrbital Ag 26   dyz \
	OrthoOrbital Ag 26   dz2 \
	OrthoOrbital Ag 26   dxz \
	OrthoOrbital Ag 26   dx2-y2 \
	OrthoOrbital Ag 27   s \
	OrthoOrbital Ag 27   p \
	OrthoOrbital Ag 27   px \
	OrthoOrbital Ag 27   py \
	OrthoOrbital Ag 27   pz \
	OrthoOrbital Ag 27   d \
	OrthoOrbital Ag 27   dxy \
	OrthoOrbital Ag 27   dyz \
	OrthoOrbital Ag 27   dz2 \
	OrthoOrbital Ag 27   dxz \
	OrthoOrbital Ag 27   dx2-y2 \
	OrthoOrbital Ag 28   s \
	OrthoOrbital Ag 28   p \
	OrthoOrbital Ag 28   px \
	OrthoOrbital Ag 28   py \
	OrthoOrbital Ag 28   pz \
	OrthoOrbital Ag 28   d \
	OrthoOrbital Ag 28   dxy \
	OrthoOrbital Ag 28   dyz \
	OrthoOrbital Ag 28   dz2 \
	OrthoOrbital Ag 28   dxz \
	OrthoOrbital Ag 28   dx2-y2 \
	OrthoOrbital Ag 29   s \
	OrthoOrbital Ag 29   p \
	OrthoOrbital Ag 29   px \
	OrthoOrbital Ag 29   py \
	OrthoOrbital Ag 29   pz \
	OrthoOrbital Ag 29   d \
	OrthoOrbital Ag 29   dxy \
	OrthoOrbital Ag 29   dyz \
	OrthoOrbital Ag 29   dz2 \
	OrthoOrbital Ag 29   dxz \
	OrthoOrbital Ag 29   dx2-y2 \
	OrthoOrbital Ag 30   s \
	OrthoOrbital Ag 30   p \
	OrthoOrbital Ag 30   px \
	OrthoOrbital Ag 30   py \
	OrthoOrbital Ag 30   pz \
	OrthoOrbital Ag 30   d \
	OrthoOrbital Ag 30   dxy \
	OrthoOrbital Ag 30   dyz \
	OrthoOrbital Ag 30   dz2 \
	OrthoOrbital Ag 30   dxz \
	OrthoOrbital Ag 30   dx2-y2 \
	OrthoOrbital Ag 31   s \
	OrthoOrbital Ag 31   p \
	OrthoOrbital Ag 31   px \
	OrthoOrbital Ag 31   py \
	OrthoOrbital Ag 31   pz \
	OrthoOrbital Ag 31   d \
	OrthoOrbital Ag 31   dxy \
	OrthoOrbital Ag 31   dyz \
	OrthoOrbital Ag 31   dz2 \
	OrthoOrbital Ag 31   dxz \
	OrthoOrbital Ag 31   dx2-y2 \
	OrthoOrbital Ag 32   s \
	OrthoOrbital Ag 32   p \
	OrthoOrbital Ag 32   px \
	OrthoOrbital Ag 32   py \
	OrthoOrbital Ag 32   pz \
	OrthoOrbital Ag 32   d \
	OrthoOrbital Ag 32   dxy \
	OrthoOrbital Ag 32   dyz \
	OrthoOrbital Ag 32   dz2 \
	OrthoOrbital Ag 32   dxz \
	OrthoOrbital Ag 32   dx2-y2 \
	OrthoOrbital Ag 33   s \
	OrthoOrbital Ag 33   p \
	OrthoOrbital Ag 33   px \
	OrthoOrbital Ag 33   py \
	OrthoOrbital Ag 33   pz \
	OrthoOrbital Ag 33   d \
	OrthoOrbital Ag 33   dxy \
	OrthoOrbital Ag 33   dyz \
	OrthoOrbital Ag 33   dz2 \
	OrthoOrbital Ag 33   dxz \
	OrthoOrbital Ag 33   dx2-y2 \
	OrthoOrbital Ag 34   s \
	OrthoOrbital Ag 34   p \
	OrthoOrbital Ag 34   px \
	OrthoOrbital Ag 34   py \
	OrthoOrbital Ag 34   pz \
	OrthoOrbital Ag 34   d \
	OrthoOrbital Ag 34   dxy \
	OrthoOrbital Ag 34   dyz \
	OrthoOrbital Ag 34   dz2 \
	OrthoOrbital Ag 34   dxz \
	OrthoOrbital Ag 34   dx2-y2 \
	OrthoOrbital Ag 35   s \
	OrthoOrbital Ag 35   p \
	OrthoOrbital Ag 35   px \
	OrthoOrbital Ag 35   py \
	OrthoOrbital Ag 35   pz \
	OrthoOrbital Ag 35   d \
	OrthoOrbital Ag 35   dxy \
	OrthoOrbital Ag 35   dyz \
	OrthoOrbital Ag 35   dz2 \
	OrthoOrbital Ag 35   dxz \
	OrthoOrbital Ag 35   dx2-y2 \
	OrthoOrbital Ag 36   s \
	OrthoOrbital Ag 36   p \
	OrthoOrbital Ag 36   px \
	OrthoOrbital Ag 36   py \
	OrthoOrbital Ag 36   pz \
	OrthoOrbital Ag 36   d \
	OrthoOrbital Ag 36   dxy \
	OrthoOrbital Ag 36   dyz \
	OrthoOrbital Ag 36   dz2 \
	OrthoOrbital Ag 36   dxz \
	OrthoOrbital Ag 36   dx2-y2 \
	OrthoOrbital Ag 37   s \
	OrthoOrbital Ag 37   p \
	OrthoOrbital Ag 37   px \
	OrthoOrbital Ag 37   py \
	OrthoOrbital Ag 37   pz \
	OrthoOrbital Ag 37   d \
	OrthoOrbital Ag 37   dxy \
	OrthoOrbital Ag 37   dyz \
	OrthoOrbital Ag 37   dz2 \
	OrthoOrbital Ag 37   dxz \
	OrthoOrbital Ag 37   dx2-y2 \
	OrthoOrbital Ag 38   s \
	OrthoOrbital Ag 38   p \
	OrthoOrbital Ag 38   px \
	OrthoOrbital Ag 38   py \
	OrthoOrbital Ag 38   pz \
	OrthoOrbital Ag 38   d \
	OrthoOrbital Ag 38   dxy \
	OrthoOrbital Ag 38   dyz \
	OrthoOrbital Ag 38   dz2 \
	OrthoOrbital Ag 38   dxz \
	OrthoOrbital Ag 38   dx2-y2 \
	OrthoOrbital Ag 39   s \
	OrthoOrbital Ag 39   p \
	OrthoOrbital Ag 39   px \
	OrthoOrbital Ag 39   py \
	OrthoOrbital Ag 39   pz \
	OrthoOrbital Ag 39   d \
	OrthoOrbital Ag 39   dxy \
	OrthoOrbital Ag 39   dyz \
	OrthoOrbital Ag 39   dz2 \
	OrthoOrbital Ag 39   dxz \
	OrthoOrbital Ag 39   dx2-y2 \
	OrthoOrbital Ag 40   s \
	OrthoOrbital Ag 40   p \
	OrthoOrbital Ag 40   px \
	OrthoOrbital Ag 40   py \
	OrthoOrbital Ag 40   pz \
	OrthoOrbital Ag 40   d \
	OrthoOrbital Ag 40   dxy \
	OrthoOrbital Ag 40   dyz \
	OrthoOrbital Ag 40   dz2 \
	OrthoOrbital Ag 40   dxz \
	OrthoOrbital Ag 40   dx2-y2 \
	OrthoOrbital Ag 41   s \
	OrthoOrbital Ag 41   p \
	OrthoOrbital Ag 41   px \
	OrthoOrbital Ag 41   py \
	OrthoOrbital Ag 41   pz \
	OrthoOrbital Ag 41   d \
	OrthoOrbital Ag 41   dxy \
	OrthoOrbital Ag 41   dyz \
	OrthoOrbital Ag 41   dz2 \
	OrthoOrbital Ag 41   dxz \
	OrthoOrbital Ag 41   dx2-y2 \
	OrthoOrbital Ag 42   s \
	OrthoOrbital Ag 42   p \
	OrthoOrbital Ag 42   px \
	OrthoOrbital Ag 42   py \
	OrthoOrbital Ag 42   pz \
	OrthoOrbital Ag 42   d \
	OrthoOrbital Ag 42   dxy \
	OrthoOrbital Ag 42   dyz \
	OrthoOrbital Ag 42   dz2 \
	OrthoOrbital Ag 42   dxz \
	OrthoOrbital Ag 42   dx2-y2 \
	OrthoOrbital Ag 43   s \
	OrthoOrbital Ag 43   p \
	OrthoOrbital Ag 43   px \
	OrthoOrbital Ag 43   py \
	OrthoOrbital Ag 43   pz \
	OrthoOrbital Ag 43   d \
	OrthoOrbital Ag 43   dxy \
	OrthoOrbital Ag 43   dyz \
	OrthoOrbital Ag 43   dz2 \
	OrthoOrbital Ag 43   dxz \
	OrthoOrbital Ag 43   dx2-y2 \
	OrthoOrbital Ag 44   s \
	OrthoOrbital Ag 44   p \
	OrthoOrbital Ag 44   px \
	OrthoOrbital Ag 44   py \
	OrthoOrbital Ag 44   pz \
	OrthoOrbital Ag 44   d \
	OrthoOrbital Ag 44   dxy \
	OrthoOrbital Ag 44   dyz \
	OrthoOrbital Ag 44   dz2 \
	OrthoOrbital Ag 44   dxz \
	OrthoOrbital Ag 44   dx2-y2 \
	OrthoOrbital Ag 45   s \
	OrthoOrbital Ag 45   p \
	OrthoOrbital Ag 45   px \
	OrthoOrbital Ag 45   py \
	OrthoOrbital Ag 45   pz \
	OrthoOrbital Ag 45   d \
	OrthoOrbital Ag 45   dxy \
	OrthoOrbital Ag 45   dyz \
	OrthoOrbital Ag 45   dz2 \
	OrthoOrbital Ag 45   dxz \
	OrthoOrbital Ag 45   dx2-y2 \
	OrthoOrbital Ag 46   s \
	OrthoOrbital Ag 46   p \
	OrthoOrbital Ag 46   px \
	OrthoOrbital Ag 46   py \
	OrthoOrbital Ag 46   pz \
	OrthoOrbital Ag 46   d \
	OrthoOrbital Ag 46   dxy \
	OrthoOrbital Ag 46   dyz \
	OrthoOrbital Ag 46   dz2 \
	OrthoOrbital Ag 46   dxz \
	OrthoOrbital Ag 46   dx2-y2 \
	OrthoOrbital Ag 47   s \
	OrthoOrbital Ag 47   p \
	OrthoOrbital Ag 47   px \
	OrthoOrbital Ag 47   py \
	OrthoOrbital Ag 47   pz \
	OrthoOrbital Ag 47   d \
	OrthoOrbital Ag 47   dxy \
	OrthoOrbital Ag 47   dyz \
	OrthoOrbital Ag 47   dz2 \
	OrthoOrbital Ag 47   dxz \
	OrthoOrbital Ag 47   dx2-y2 \
	OrthoOrbital Ag 48   s \
	OrthoOrbital Ag 48   p \
	OrthoOrbital Ag 48   px \
	OrthoOrbital Ag 48   py \
	OrthoOrbital Ag 48   pz \
	OrthoOrbital Ag 48   d \
	OrthoOrbital Ag 48   dxy \
	OrthoOrbital Ag 48   dyz \
	OrthoOrbital Ag 48   dz2 \
	OrthoOrbital Ag 48   dxz \
	OrthoOrbital Ag 48   dx2-y2 \
	OrthoOrbital C 1   s \
	OrthoOrbital C 1   p \
	OrthoOrbital C 1   px \
	OrthoOrbital C 1   py \
	OrthoOrbital C 1   pz \
	OrthoOrbital O 1   s \
	OrthoOrbital O 1   p \
	OrthoOrbital O 1   px \
	OrthoOrbital O 1   py \
	OrthoOrbital O 1   pz
dump End ElecDensity KEdensity BandEigs EigStats RhoAtom DOS Kpoints
dump Ionic State IonicPositions Lattice EigStats Ecomponents
dump 
dump 
dump 
dump 
dump 
dump 
dump 
dump 
dump-name jdft.$VAR
elec-cutoff 20
elec-eigen-algo Davidson
elec-ex-corr gga-PBE
elec-initial-magnetization 0.000000 no
elec-n-bands 554
elec-smearing Fermi 0.001
electronic-minimize  \
	dirUpdateScheme      FletcherReeves \
	linminMethod         DirUpdateRecommended \
	nIterations          100 \
	history              15 \
	knormThreshold       0 \
	energyDiffThreshold  1e-07 \
	nEnergyDiff          2 \
	alphaTstart          1 \
	alphaTmin            1e-10 \
	updateTestStepSize   yes \
	alphaTreduceFactor   0.1 \
	alphaTincreaseFactor 3 \
	nAlphaAdjustMax      3 \
	wolfeEnergy          0.0001 \
	wolfeGradient        0.9 \
	fdTest               no
exchange-regularization WignerSeitzTruncated
fluid LinearPCM 298.000000 1.013250
fluid-anion F- 0.5 MeanFieldLJ \
	epsBulk 1 \
	pMol 0 \
	epsInf 1 \
	Pvap 0 \
	sigmaBulk 0 \
	Rvdw 2.24877 \
	Res 0 \
	tauNuc 343133
fluid-cation Na+ 0.5 MeanFieldLJ \
	epsBulk 1 \
	pMol 0 \
	epsInf 1 \
	Pvap 0 \
	sigmaBulk 0 \
	Rvdw 2.19208 \
	Res 0 \
	tauNuc 343133
fluid-ex-corr lda-TF lda-PZ
fluid-gummel-loop 10 1.000000e-05
fluid-minimize  \
	dirUpdateScheme      PolakRibiere \
	linminMethod         DirUpdateRecommended \
	nIterations          400 \
	history              15 \
	knormThreshold       1e-11 \
	energyDiffThreshold  0 \
	nEnergyDiff          2 \
	alphaTstart          1 \
	alphaTmin            1e-10 \
	updateTestStepSize   yes \
	alphaTreduceFactor   0.1 \
	alphaTincreaseFactor 3 \
	nAlphaAdjustMax      6 \
	wolfeEnergy          0.0001 \
	wolfeGradient        0.9 \
	fdTest               no
fluid-solvent H2O 55.338 ScalarEOS \
	epsBulk 78.4 \
	pMol 0.92466 \
	epsInf 1.77 \
	Pvap 1.06736e-10 \
	sigmaBulk 4.62e-05 \
	Rvdw 2.61727 \
	Res 1.42 \
	tauNuc 343133 \
	poleEl 15 7 1
forces-output-coords Positions
initial-state jdft.$VAR
ion Ag  10.839213999999998  26.417100999999985  17.976664000000000 0
ion Ag  10.839213999999998  13.139773999999992  17.976664000000000 0
ion Ag   5.418766999999999  26.417100999999985  17.976664000000000 0
ion Ag   5.418766999999999  13.139773999999992  17.976664000000000 0
ion Ag   0.000217000000000   4.519150999999997   2.204173000000000 0
ion Ag   0.000217000000000  17.796477999999993   2.204173000000000 0
ion Ag   5.420663999999999   4.519150999999997   2.204173000000000 0
ion Ag   5.420663999999999  17.796477999999993   2.204173000000000 0
ion Ag   0.000954000000000   8.973428999999994   5.467986999999998 0
ion Ag   0.000954000000000  22.250755999999988   5.467986999999998 0
ion Ag   5.421401000000000   8.973428999999994   5.467986999999998 0
ion Ag   5.421401000000000  22.250755999999988   5.467986999999998 0
ion Ag  10.840016000000000   0.022810000000000   8.601168999999999 0
ion Ag  10.840016000000000  13.300137999999993   8.601168999999999 0
ion Ag   5.419558000000000   0.022810000000000   8.601168999999999 0
ion Ag   5.419558000000000  13.300137999999993   8.601168999999999 0
ion Ag   0.000022000000000   4.389802999999998  11.760488999999996 0
ion Ag   0.000022000000000  17.667103999999988  11.760488999999996 0
ion Ag   5.420469000000000   4.389802999999998  11.760488999999996 0
ion Ag   5.420469000000000  17.667103999999988  11.760488999999996 0
ion Ag   5.421032000000000   8.708757999999996  15.042160000000001 0
ion Ag   5.421032000000000  21.986085999999990  15.042160000000001 0
ion Ag   0.000585000000000   8.708757999999996  15.042160000000001 0
ion Ag   0.000585000000000  21.986085999999990  15.042160000000001 0
ion Ag   2.709595000000000   0.146449000000000   3.735190999999999 0
ion Ag   2.709595000000000  13.423749999999989   3.735190999999999 0
ion Ag   8.130042000000000   0.146449000000000   3.735190999999999 0
ion Ag   8.130042000000000  13.423749999999989   3.735190999999999 0
ion Ag   2.710256000000000   4.461951999999997   7.016861999999997 0
ion Ag   2.710256000000000  17.739278999999993   7.016861999999997 0
ion Ag   8.130702999999999   4.461951999999997   7.016861999999997 0
ion Ag   8.130702999999999  17.739278999999993   7.016861999999997 0
ion Ag   2.711004000000000   8.825173999999995  10.174547999999996 0
ion Ag   2.711004000000000  22.102500999999990  10.174547999999996 0
ion Ag   8.131451000000000   8.825173999999995  10.174547999999996 0
ion Ag   8.131451000000000  22.102500999999990  10.174547999999996 0
ion Ag   2.709269000000000  26.433883999999985  13.312124999999995 0
ion Ag   2.709269000000000  13.156556999999992  13.312124999999995 0
ion Ag   8.129716000000000  26.433883999999985  13.312124999999995 0
ion Ag   8.129716000000000  13.156556999999992  13.312124999999995 0
ion Ag   2.710104000000000   4.330638999999997  16.571093999999999 0
ion Ag   2.710104000000000  17.607966999999988  16.571093999999999 0
ion Ag   8.130540000000000   4.330638999999997  16.571093999999999 0
ion Ag   8.130540000000000  17.607966999999988  16.571093999999999 0
ion Ag   2.711904000000000   8.989520999999995   0.799449000000000 0
ion Ag   2.711904000000000  22.266847999999985   0.799449000000000 0
ion Ag   8.132351000000000   8.989520999999995   0.799449000000000 0
ion Ag   8.132351000000000  22.266847999999985   0.799449000000000 0
ion C   2.710104000000000  10.969302999999993  20.451710235917481 1  Linear 0 0 1
ion O   2.770195000000000  10.969302999999993  22.634186150416205 1  Linear 0 0 1
ion-species /projects/musgravc/apps/jdftx-1.6.0/build/pseudopotentials/GBRV_v1.5/$ID_pbe_v1.uspp
ion-species /projects/musgravc/apps/jdftx-1.6.0/build/pseudopotentials/GBRV_v1.5/$ID_pbe_v1.2.uspp
ion-species /projects/musgravc/apps/jdftx-1.6.0/build/pseudopotentials/GBRV_v1.5/$ID_pbe_v1.4.uspp
ion-species /projects/musgravc/apps/jdftx-1.6.0/build/pseudopotentials/GBRV_v1.5/$ID_pbe_v1.5.uspp
ion-width Ecut
ionic-minimize  \
	dirUpdateScheme      L-BFGS \
	linminMethod         DirUpdateRecommended \
	nIterations          100 \
	history              15 \
	knormThreshold       0.0001 \
	energyDiffThreshold  1e-06 \
	nEnergyDiff          2 \
	alphaTstart          1 \
	alphaTmin            1e-10 \
	updateTestStepSize   yes \
	alphaTreduceFactor   0.1 \
	alphaTincreaseFactor 3 \
	nAlphaAdjustMax      3 \
	wolfeEnergy          0.0001 \
	wolfeGradient        0.9 \
	fdTest               no
kpoint   0.000000000000   0.000000000000   0.000000000000  1.00000000000000
kpoint-folding 6 2 1 
latt-move-scale 0 0 0
latt-scale 1 1 1 
lattice  \
	  10.840894000000000    0.000000000000000    0.000000000000000  \
	   0.000000000000000   26.554655000000000    0.000000000000000  \
	   0.000000000000000    0.000000000000000   56.330927000000003 
lattice-minimize  \
	dirUpdateScheme      L-BFGS \
	linminMethod         DirUpdateRecommended \
	nIterations          0 \
	history              15 \
	knormThreshold       0 \
	energyDiffThreshold  1e-06 \
	nEnergyDiff          2 \
	alphaTstart          1 \
	alphaTmin            1e-10 \
	updateTestStepSize   yes \
	alphaTreduceFactor   0.1 \
	alphaTincreaseFactor 3 \
	nAlphaAdjustMax      3 \
	wolfeEnergy          0.0001 \
	wolfeGradient        0.9 \
	fdTest               no
lcao-params 30 1e-06 0.001
pcm-variant CANDLE
spintype z-spin
subspace-rotation-factor 1 yes
symmetries automatic
symmetry-threshold 0.0001
van-der-waals D3



---------- Setting up symmetries ----------

Found 8 point-group symmetries of the bravais lattice
Found 1 space-group symmetries with basis
Applied RMS atom displacement 0 bohrs to make symmetries exact.

---------- Initializing the Grid ----------
R = 
[      10.8409            0            0  ]
[            0      26.5547            0  ]
[            0            0      56.3309  ]
unit cell volume = 16216.3
G =
[   0.579582          0          0  ]
[          0   0.236613          0  ]
[          0          0   0.111541  ]
Minimum fftbox size, Smin = [  44  108  228  ]
Chosen fftbox size, S = [  48  108  240  ]

---------- Exchange Correlation functional ----------
Initalized PBE GGA exchange.
Initalized PBE GGA correlation.

---------- Setting up pseudopotentials ----------
Width of ionic core gaussian charges (only for fluid interactions / plotting) set to 0.397384

Reading pseudopotential file '/projects/musgravc/apps/jdftx-1.6.0/build/pseudopotentials/GBRV_v1.5/ag_pbe_v1.4.uspp':
  Title: Ag.  Created by USPP 7.3.6 on 1-4-15
  Reference state energy: -147.606242.  19 valence electrons in orbitals:
    |400>  occupation: 2  eigenvalue: -3.637437
    |410>  occupation: 6  eigenvalue: -2.297267
    |420>  occupation: 10  eigenvalue: -0.417763
    |500>  occupation: 0.5  eigenvalue: -0.283525
    |510>  occupation: 0  eigenvalue: -0.122889
  lMax: 2  lLocal: 0  QijEcut: 5.5
  6 projectors sampled on a log grid with 717 points:
    l: 0  eig: -0.283528  rCut: 1.5
    l: 0  eig: -3.637440  rCut: 1.5
    l: 1  eig: -0.122892  rCut: 1.5
    l: 1  eig: -2.297267  rCut: 1.5
    l: 2  eig: -0.417762  rCut: 1.7
    l: 2  eig: -1.000000  rCut: 1.7
  Partial core density with radius 1.2
  Transforming core density to a uniform radial grid of dG=0.02 with 1163 points.
  Transforming local potential to a uniform radial grid of dG=0.02 with 1163 points.
  Transforming nonlocal projectors to a uniform radial grid of dG=0.02 with 432 points.
  Transforming density augmentations to a uniform radial grid of dG=0.02 with 1163 points.
  Transforming atomic orbitals to a uniform radial grid of dG=0.02 with 432 points.
  Core radius for overlap checks: 1.70 bohrs.

Reading pseudopotential file '/projects/musgravc/apps/jdftx-1.6.0/build/pseudopotentials/GBRV_v1.5/c_pbe_v1.2.uspp':
  Title: C.  Created by USPP 7.3.6 on 3-2-2014
  Reference state energy: -5.406344.  4 valence electrons in orbitals:
    |200>  occupation: 2  eigenvalue: -0.504890
    |210>  occupation: 2  eigenvalue: -0.194356
  lMax: 1  lLocal: 2  QijEcut: 5
  4 projectors sampled on a log grid with 503 points:
    l: 0  eig: -0.504890  rCut: 1.3
    l: 0  eig: 0.000000  rCut: 1.3
    l: 1  eig: -0.194357  rCut: 1.3
    l: 1  eig: 0.000000  rCut: 1.3
  Partial core density with radius 1.1
  Transforming core density to a uniform radial grid of dG=0.02 with 1163 points.
  Transforming local potential to a uniform radial grid of dG=0.02 with 1163 points.
  Transforming nonlocal projectors to a uniform radial grid of dG=0.02 with 432 points.
  Transforming density augmentations to a uniform radial grid of dG=0.02 with 1163 points.
  Transforming atomic orbitals to a uniform radial grid of dG=0.02 with 432 points.
  Core radius for overlap checks: 1.30 bohrs.

Reading pseudopotential file '/projects/musgravc/apps/jdftx-1.6.0/build/pseudopotentials/GBRV_v1.5/o_pbe_v1.2.uspp':
  Title: O.  Created by USPP 7.3.6 on 3-2-2014
  Reference state energy: -15.894388.  6 valence electrons in orbitals:
    |200>  occupation: 2  eigenvalue: -0.878823
    |210>  occupation: 4  eigenvalue: -0.332131
  lMax: 2  lLocal: 2  QijEcut: 6
  5 projectors sampled on a log grid with 511 points:
    l: 0  eig: -0.878823  rCut: 1.25
    l: 0  eig: 0.000000  rCut: 1.25
    l: 1  eig: -0.332132  rCut: 1.25
    l: 1  eig: 0.000000  rCut: 1.25
    l: 2  eig: 1.000000  rCut: 1.25
  Partial core density with radius 0.7
  Transforming core density to a uniform radial grid of dG=0.02 with 1163 points.
  Transforming local potential to a uniform radial grid of dG=0.02 with 1163 points.
  Transforming nonlocal projectors to a uniform radial grid of dG=0.02 with 432 points.
  Transforming density augmentations to a uniform radial grid of dG=0.02 with 1163 points.
  Transforming atomic orbitals to a uniform radial grid of dG=0.02 with 432 points.
  Core radius for overlap checks: 1.25 bohrs.

Initialized 3 species with 50 total atoms.

Folded 1 k-points by 6x2x1 to 12 k-points.

---------- Setting up k-points, bands, fillings ----------
Adding inversion symmetry to k-mesh for non-inversion-symmetric unit cell.
Reduced to 8 k-points under symmetry. 
Computing the number of bands and number of electrons
Reading initial fillings from file jdft.fillings.
nElectrons: 922.000000   nBands: 554   nStates: 16

----- Setting up reduced wavefunction bases (one per k-point) -----
average nbasis = 69288.417 , ideal nbasis = 69277.411

----- Initializing Supercell corresponding to k-point mesh -----
Lattice vector linear combinations in supercell:
[   6   0   0  ]
[   0   2   0  ]
[   0   0   1  ]
Supercell lattice vectors:
[  65.0454  0  0  ]
[  0  53.1093  0  ]
[  0  0  56.3309  ]

Initializing DFT-D3 calculator:
	Parameters set for gga-PBE functional
	s6:  1.000  s_r6:  1.217
	s8:  0.722  s_r8:  1.000
	Per-atom parameters loaded for:
	Ag:  sqrtQ[a0]:  5.443  Rcov[a0]:  2.173  CN: [ 0.00 0.97 ]
	 C:  sqrtQ[a0]:  3.105  Rcov[a0]:  1.417  CN: [ 0.00 0.99 2.00 3.00 3.98 ]
	 O:  sqrtQ[a0]:  2.594  Rcov[a0]:  1.191  CN: [ 0.00 0.99 1.99 ]

Initializing DFT-D2 calculator for fluid / solvation:
	Ag:  C6:  427.91 Eh-a0^6  R0: 3.097 a0
	 C:  C6:   30.35 Eh-a0^6  R0: 2.744 a0
	 O:  C6:   12.14 Eh-a0^6  R0: 2.536 a0

---------- Setting up ewald sum ----------
Optimum gaussian width for ewald sums = 5.260972 bohr.
Real space sum over 455 unit cells with max indices [  6  3  2  ]
Reciprocal space sum over 7733 terms with max indices [  5  9  18  ]

Computing DFT-D3 correction:
# coordination-number Ag 5.463 6.364 5.463 6.368 6.738 6.738 6.738 6.738 8.993 8.993 8.993 8.993 8.975 8.975 8.975 8.975 8.934 8.934 8.934 8.934 7.514 7.497 7.514 7.497 7.499 7.499 7.499 7.499 8.932 8.932 8.932 8.932 8.980 8.979 8.979 8.979 8.996 9.000 8.996 8.997 6.745 6.745 6.743 6.743 5.455 5.455 5.455 5.455
# coordination-number C 2.801
# coordination-number O 1.056
# diagonal-C6 Ag 268.61 268.61 268.61 268.61 268.61 268.61 268.61 268.61 268.61 268.61 268.61 268.61 268.61 268.61 268.61 268.61 268.61 268.61 268.61 268.61 268.61 268.61 268.61 268.61 268.61 268.61 268.61 268.61 268.61 268.61 268.61 268.61 268.61 268.61 268.61 268.61 268.61 268.61 268.61 268.61 268.61 268.61 268.61 268.61 268.61 268.61 268.61 268.61
# diagonal-C6 C 26.03
# diagonal-C6 O 12.77
EvdW_6 =   -0.276157
EvdW_8 =   -0.385304

---------- Allocating electronic variables ----------
Initializing wave functions:  reading from 'jdft.wfns'
----- createFluidSolver() ----- (Fluid-side solver setup)
   Initializing fluid molecule 'H2O'
     Initializing site 'O'
       Electron density: proportional to exp(-r/0.36935)*erfc((r-0.51523)/0.36823) with norm 6.826
       Charge density: gaussian nuclear width 0.478731 with net site charge 0.826
       Polarizability: cuspless exponential with width 0.32 and norm 3.73
       Hard sphere radius: 2.57003 bohrs
       Positions in reference frame:
         [ +0.000000 +0.000000 +0.000000 ]
     Initializing site 'H'
       Electron density: proportional to exp(-r/0.34641)*erfc((r-0)/0.390882) with norm 0.587
       Charge density: gaussian nuclear width 0.377945 with net site charge -0.413
       Polarizability: cuspless exponential with width 0.39 and norm 3.3
       Positions in reference frame:
         [ +0.000000 -1.441945 +1.122523 ]
         [ +0.000000 +1.441945 +1.122523 ]
     Net charge: 0   dipole magnitude: 0.927204
     Initializing spherical shell mfKernel with radius 2.61727 Bohr
     deltaS corrections:
       site 'O': -7.54299
       site 'H': -6.83917
   Initializing fluid molecule 'Na+'
     Initializing site 'Na'
       Electron density: proportional to exp(-r/0.19682)*erfc((r-0.71491)/0.41314) with norm 8.1383
       Charge density: gaussian nuclear width 0.365347 with net site charge -1
       Hard sphere radius: 1.86327 bohrs
       Positions in reference frame:
         [ +0.000000 +0.000000 +0.000000 ]
     Net charge: -1   dipole magnitude: 0
     Initializing gaussian mfKernel with width: 1.55004 Bohr
     deltaS corrections:
       site 'Na': -22.3555
   Initializing fluid molecule 'F-'
     Initializing site 'F'
       Electron density: proportional to exp(-r/0.38886)*erfc((r-0)/0.438782) with norm 8
       Charge density: gaussian nuclear width 0.374796 with net site charge 1
       Hard sphere radius: 2.39995 bohrs
       Positions in reference frame:
         [ +0.000000 +0.000000 +0.000000 ]
     Net charge: 1   dipole magnitude: 0
     Initializing gaussian mfKernel with width: 1.59012 Bohr
     deltaS corrections:
       site 'F': -9.04335

Correction to mu due to finite nuclear width = -0.0564128
   Cavity determined by nc: 0.00142 and sigma: 0.707107
   Nonlocal vdW cavity from gaussian model electron density with norm = 8 and sigma = 0.993594 bohr
   Charge asymmetry in cavity with sensitivity pCavity = 36.5 e-bohr/Eh
   Electrostatic cavity expanded by eta = 1.46 bohrs
   Weighted density cavitation model constrained by Nbulk: 0.0049383 bohr^-3, Pvap: 3.14029 kPa, Rvdw: 2.61727 bohr and sigmaBulk: 4.62e-05 Eh/bohr^2 at T: 298 K.
   Weighted density dispersion model using vdW pair potentials with single solvent site with sqrtC6eff: 0.77 SI.
Reading fluid state from 'jdft.fluidState'


---- Citations for features of the code used in this run ----

   Software package:
      R. Sundararaman, K. Letchworth-Weaver, K.A. Schwarz, D. Gunceler, Y. Ozhabes and T.A. Arias, 'JDFTx: software for joint density-functional theory', SoftwareX 6, 278 (2017)

   gga-PBE exchange-correlation functional:
      J.P. Perdew, K. Burke and M. Ernzerhof, Phys. Rev. Lett. 77, 3865 (1996)

   Pseudopotentials:
      KF Garrity, JW Bennett, KM Rabe and D Vanderbilt, Comput. Mater. Sci. 81, 446 (2014)

   DFT-D3 dispersion correction:
      S. Grimme, J. Antony, S. Ehrlich and H. Krieg, J. Chem. Phys. 132, 154104 (2010)

   DFT-D2 dispersion correction:
      S. Grimme, J. Comput. Chem. 27, 1787 (2006)

   Charge-asymmetric nonlocally-determined local-electric (CANDLE) solvation model:
      R. Sundararaman and W.A. Goddard III, J. Chem. Phys. 142, 064107 (2015)

   Total energy minimization with Auxiliary Hamiltonian:
      C. Freysoldt, S. Boeck, and J. Neugebauer, Phys. Rev. B 79, 241103(R) (2009)

   Linear-tetrahedron sampling for density of states:
      G. Lehmann and M. Taut, Phys. status solidi (b) 54, 469 (1972)

This list may not be complete. Please suggest additional citations or
report any other bugs at https://github.com/shankar1729/jdftx/issues

Initialization completed successfully at t[s]:     45.23


Computing DFT-D3 correction:
# coordination-number Ag 5.463 6.364 5.463 6.368 6.738 6.738 6.738 6.738 8.993 8.993 8.993 8.993 8.975 8.975 8.975 8.975 8.934 8.934 8.934 8.934 7.514 7.497 7.514 7.497 7.499 7.499 7.499 7.499 8.932 8.932 8.932 8.932 8.980 8.979 8.979 8.979 8.996 9.000 8.996 8.997 6.745 6.745 6.743 6.743 5.455 5.455 5.455 5.455
# coordination-number C 2.801
# coordination-number O 1.056
# diagonal-C6 Ag 268.61 268.61 268.61 268.61 268.61 268.61 268.61 268.61 268.61 268.61 268.61 268.61 268.61 268.61 268.61 268.61 268.61 268.61 268.61 268.61 268.61 268.61 268.61 268.61 268.61 268.61 268.61 268.61 268.61 268.61 268.61 268.61 268.61 268.61 268.61 268.61 268.61 268.61 268.61 268.61 268.61 268.61 268.61 268.61 268.61 268.61 268.61 268.61
# diagonal-C6 C 26.03
# diagonal-C6 O 12.77
EvdW_6 =   -0.276157
EvdW_8 =   -0.385304

-------- Electronic minimization -----------
	Linear fluid (dielectric constant: 78.4, screening length: 8.12261 Bohr) occupying 0.503685 of unit cell:	Completed after 3 iterations at t[s]:     68.49
	FillingsUpdate:  mu: -0.146407163  nElectrons: 922.000000  magneticMoment: [ Abs: 0.00000  Tot: +0.00000 ]
ElecMinimize: Iter:   0  F: -7106.988333329322813  |grad|_K:  4.517e-08  alpha:  1.000e+00
	Linear fluid (dielectric constant: 78.4, screening length: 8.12261 Bohr) occupying 0.503681 of unit cell:	Completed after 9 iterations at t[s]:    263.08
	Linear fluid (dielectric constant: 78.4, screening length: 8.12261 Bohr) occupying 0.503685 of unit cell:	Completed after 9 iterations at t[s]:    327.56
	FillingsUpdate:  mu: -0.146401630  nElectrons: 922.000000  magneticMoment: [ Abs: 0.00000  Tot: +0.00000 ]
	SubspaceRotationAdjust: set factor to 0.608
ElecMinimize: Iter:   1  F: -7106.988333452056395  |grad|_K:  1.196e-08  alpha:  8.607e-02  linmin: -1.142e-03  t[s]:    415.95
	Linear fluid (dielectric constant: 78.4, screening length: 8.12261 Bohr) occupying 0.503684 of unit cell:	Completed after 0 iterations at t[s]:    504.32
	Linear fluid (dielectric constant: 78.4, screening length: 8.12261 Bohr) occupying 0.503684 of unit cell:	Completed after 2 iterations at t[s]:    567.52
ElecMinimize: 	Step increased F by 4.202775e-09, reducing alpha to 1.142999e-02.
	Linear fluid (dielectric constant: 78.4, screening length: 8.12261 Bohr) occupying 0.503685 of unit cell:	Completed after 0 iterations at t[s]:    713.11
	FillingsUpdate:  mu: -0.146411254  nElectrons: 922.000000  magneticMoment: [ Abs: 0.00000  Tot: +0.00000 ]
	SubspaceRotationAdjust: set factor to 0.329
ElecMinimize: Iter:   2  F: -7106.988333455479733  |grad|_K:  7.438e-09  alpha:  1.143e-02  linmin:  3.267e-03  t[s]:    801.31
	Linear fluid (dielectric constant: 78.4, screening length: 8.12261 Bohr) occupying 0.503685 of unit cell:	Completed after 0 iterations at t[s]:    889.70
ElecMinimize: 	Predicted alpha/alphaT>3.000000, increasing alphaT to 3.428997e-02.
	Linear fluid (dielectric constant: 78.4, screening length: 8.12261 Bohr) occupying 0.503685 of unit cell:	Completed after 0 iterations at t[s]:    951.00
	Linear fluid (dielectric constant: 78.4, screening length: 8.12261 Bohr) occupying 0.503685 of unit cell:	Completed after 0 iterations at t[s]:   1012.39
	FillingsUpdate:  mu: -0.146411261  nElectrons: 922.000000  magneticMoment: [ Abs: 0.00000  Tot: +0.00000 ]
	SubspaceRotationAdjust: set factor to 0.252
ElecMinimize: Iter:   3  F: -7106.988333457326007  |grad|_K:  5.810e-09  alpha:  4.766e-02  linmin: -6.328e-03  t[s]:   1100.57
ElecMinimize: Converged (|Delta F|<1.000000e-07 for 2 iters).
Setting wave functions to eigenvectors of Hamiltonian
Converging empty states (this may take a while): |deigs|: 5.920e-09

Computing DFT-D3 correction:
# coordination-number Ag 5.463 6.364 5.463 6.368 6.738 6.738 6.738 6.738 8.993 8.993 8.993 8.993 8.975 8.975 8.975 8.975 8.934 8.934 8.934 8.934 7.514 7.497 7.514 7.497 7.499 7.499 7.499 7.499 8.932 8.932 8.932 8.932 8.980 8.979 8.979 8.979 8.996 9.000 8.996 8.997 6.745 6.745 6.743 6.743 5.455 5.455 5.455 5.455
# coordination-number C 2.801
# coordination-number O 1.056
# diagonal-C6 Ag 268.61 268.61 268.61 268.61 268.61 268.61 268.61 268.61 268.61 268.61 268.61 268.61 268.61 268.61 268.61 268.61 268.61 268.61 268.61 268.61 268.61 268.61 268.61 268.61 268.61 268.61 268.61 268.61 268.61 268.61 268.61 268.61 268.61 268.61 268.61 268.61 268.61 268.61 268.61 268.61 268.61 268.61 268.61 268.61 268.61 268.61 268.61 268.61
# diagonal-C6 C 26.03
# diagonal-C6 O 12.77
EvdW_6 =   -0.276157
EvdW_8 =   -0.385304

# Ionic positions in cartesian coordinates:
ion Ag  10.839213999999998  26.417100999999985  17.976664000000000 0
ion Ag  10.839213999999998  13.139773999999992  17.976664000000000 0
ion Ag   5.418766999999999  26.417100999999985  17.976664000000000 0
ion Ag   5.418766999999999  13.139773999999992  17.976664000000000 0
ion Ag   0.000217000000000   4.519150999999997   2.204173000000000 0
ion Ag   0.000217000000000  17.796477999999993   2.204173000000000 0
ion Ag   5.420663999999999   4.519150999999997   2.204173000000000 0
ion Ag   5.420663999999999  17.796477999999993   2.204173000000000 0
ion Ag   0.000954000000000   8.973428999999994   5.467986999999998 0
ion Ag   0.000954000000000  22.250755999999988   5.467986999999998 0
ion Ag   5.421401000000000   8.973428999999994   5.467986999999998 0
ion Ag   5.421401000000000  22.250755999999988   5.467986999999998 0
ion Ag  10.840016000000000   0.022810000000000   8.601168999999999 0
ion Ag  10.840016000000000  13.300137999999993   8.601168999999999 0
ion Ag   5.419558000000000   0.022810000000000   8.601168999999999 0
ion Ag   5.419558000000000  13.300137999999993   8.601168999999999 0
ion Ag   0.000022000000000   4.389802999999998  11.760488999999996 0
ion Ag   0.000022000000000  17.667103999999988  11.760488999999996 0
ion Ag   5.420469000000000   4.389802999999998  11.760488999999996 0
ion Ag   5.420469000000000  17.667103999999988  11.760488999999996 0
ion Ag   5.421032000000000   8.708757999999996  15.042160000000001 0
ion Ag   5.421032000000000  21.986085999999990  15.042160000000001 0
ion Ag   0.000585000000000   8.708757999999996  15.042160000000001 0
ion Ag   0.000585000000000  21.986085999999990  15.042160000000001 0
ion Ag   2.709595000000000   0.146449000000000   3.735190999999999 0
ion Ag   2.709595000000000  13.423749999999989   3.735190999999999 0
ion Ag   8.130042000000000   0.146449000000000   3.735190999999999 0
ion Ag   8.130042000000000  13.423749999999989   3.735190999999999 0
ion Ag   2.710256000000000   4.461951999999997   7.016861999999997 0
ion Ag   2.710256000000000  17.739278999999993   7.016861999999997 0
ion Ag   8.130702999999999   4.461951999999997   7.016861999999997 0
ion Ag   8.130702999999999  17.739278999999993   7.016861999999997 0
ion Ag   2.711004000000000   8.825173999999995  10.174547999999996 0
ion Ag   2.711004000000000  22.102500999999990  10.174547999999996 0
ion Ag   8.131451000000000   8.825173999999995  10.174547999999996 0
ion Ag   8.131451000000000  22.102500999999990  10.174547999999996 0
ion Ag   2.709269000000000  26.433883999999985  13.312124999999995 0
ion Ag   2.709269000000000  13.156556999999992  13.312124999999995 0
ion Ag   8.129716000000000  26.433883999999985  13.312124999999995 0
ion Ag   8.129716000000000  13.156556999999992  13.312124999999995 0
ion Ag   2.710104000000000   4.330638999999997  16.571093999999999 0
ion Ag   2.710104000000000  17.607966999999988  16.571093999999999 0
ion Ag   8.130540000000000   4.330638999999997  16.571093999999999 0
ion Ag   8.130540000000000  17.607966999999988  16.571093999999999 0
ion Ag   2.711904000000000   8.989520999999995   0.799449000000000 0
ion Ag   2.711904000000000  22.266847999999985   0.799449000000000 0
ion Ag   8.132351000000000   8.989520999999995   0.799449000000000 0
ion Ag   8.132351000000000  22.266847999999985   0.799449000000000 0
ion C   2.710104000000000  10.969302999999993  20.451710235917481 1  Linear 0 0 1
ion O   2.770195000000000  10.969302999999993  22.634186150416205 1  Linear 0 0 1

# Forces in Cartesian coordinates:
force Ag  -0.000087666787281   0.000364511095124  -0.000098740344275 0
force Ag  -0.005973813220953   0.000893064174750   0.000988377852552 0
force Ag   0.000105036253202   0.000357951986667  -0.000095193583345 0
force Ag   0.006257820988383   0.001144549861615   0.000347444717813 0
force Ag  -0.000324080395254   0.000373538946674  -0.000131731818138 0
force Ag   0.000063842424074   0.000369983980272  -0.000051744833418 0
force Ag   0.000318761897179   0.000383471869398  -0.000131056578482 0
force Ag  -0.000067802045336   0.000379290418586  -0.000039473427702 0
force Ag   0.000105915445122   0.000002633173403  -0.000668137864708 0
force Ag  -0.000054315416992   0.000017821917130  -0.000515243095903 0
force Ag  -0.000133642916941   0.000028929925485  -0.000679027187079 0
force Ag   0.000047679591147  -0.000003550003085  -0.000494596883163 0
force Ag  -0.000006845280837   0.000422567875108  -0.000085304737921 0
force Ag  -0.000622623144064   0.000392512437070  -0.000234845906250 0
force Ag   0.000005053344271   0.000407011746901  -0.000081762183152 0
force Ag   0.000616852746941   0.000375054258042  -0.000214495740310 0
force Ag  -0.000064764660709  -0.000009482822083  -0.000160929303687 0
force Ag   0.000196890239502  -0.000255364007613  -0.000115897258921 0
force Ag   0.000063808261723   0.000004873737330  -0.000165825968809 0
force Ag  -0.000200301788213  -0.000232466323835  -0.000139772514432 0
force Ag   0.002554370228212  -0.002347316375698  -0.002656450728664 0
force Ag   0.000370690455588   0.000190619374532  -0.000406084344229 0
force Ag  -0.002586258315096  -0.002452551194672  -0.002754721371111 0
force Ag  -0.000362438761632   0.000219776619384  -0.000416407368127 0
force Ag  -0.000000213587631  -0.000274193890575   0.000474600361986 0
force Ag   0.000000701421148  -0.000227627290943   0.000199144659155 0
force Ag  -0.000004174211549   0.000309331070525   0.000205381364965 0
force Ag  -0.000008426117044  -0.000320262497367  -0.000396512214995 0
force Ag  -0.000000467019981  -0.000494592492725   0.000174303076943 0
force Ag  -0.000001718468365  -0.000564739233656   0.000471370270377 0
force Ag   0.000002176018775  -0.000471330908060   0.000345322619714 0
force Ag  -0.000001345965529  -0.000289679441985   0.000084102105240 0
force Ag  -0.000007344602156   0.000375015865941   0.001531439159837 0
force Ag  -0.000002512145363  -0.000388172368271   0.000536802348785 0
force Ag  -0.000020434265096  -0.000091627813694  -0.000201414669343 0
force Ag   0.000004849288562   0.000206798642458   0.000438494329216 0
force Ag   0.000017459514187   0.000009944365653   0.000604964088367 0
force Ag  -0.000000154014388   0.001505753465588  -0.005369290599377 0
force Ag  -0.000012886828440   0.000155969557938   0.000329871391308 0
force Ag   0.000016029350724   0.000229857338023   0.001738525549080 0
force Ag  -0.000011001632469  -0.000221351063486  -0.000005346595217 0
force Ag  -0.000014767946382   0.001468837080751  -0.001243401377192 0
force Ag   0.000009955131574   0.000019791218671  -0.000125747335634 0
force Ag   0.000036388609078  -0.002027964191065   0.000037994340360 0
force Ag   0.000000454192878  -0.000192013981542   0.000142127068184 0
force Ag  -0.000013225322669  -0.000128313482341   0.000071598684156 0
force Ag  -0.000036597175977  -0.000377693274442   0.000045600469597 0
force Ag  -0.000002454504729  -0.000638407557836   0.000206679260232 0
force C  -0.000443492341917   0.007930325914916  -0.012845902708300 1  Linear 0 0 1
force O   0.000098305187087  -0.006358183634146   0.021585583574174 1  Linear 0 0 1

# Energy components:
   A_diel =       -0.0038817020049347
   Eewald =    32631.0792877193998720
       EH =    39048.4446845828861115
     Eloc =   -79907.8742473352031084
      Enl =      192.4783260941053982
     EvdW =       -0.6614619576121268
      Exc =     -700.7421401026949752
 Exc_core =       10.0909396717433530
       KE =     1620.2013219983441559
  MuShift =       -0.0000000000008081
-------------------------------------
     Etot =    -7106.9871710310317212
       TS =        0.0011624262938679
-------------------------------------
        F =    -7106.9883334573260072


Dumping 'jdft.fillings' ... done
Dumping 'jdft.wfns' ... done
Dumping 'jdft.fluidState' ... done
Dumping 'jdft.ionpos' ... done
Dumping 'jdft.lattice' ... done
Dumping 'jdft.eigenvals' ... done
Dumping 'jdft.eigStats' ... 
	eMin: -3.534630 at state 8 ( [ +0.000000 +0.000000 +0.000000 ] spin -1 )
	HOMO: -0.146698 at state 9 ( [ +0.000000 +0.500000 +0.000000 ] spin -1 )
	mu  : -0.146411
	LUMO: -0.145286 at state 4 ( [ +0.333333 +0.000000 +0.000000 ] spin 1 )
	eMax: +0.147932 at state 8 ( [ +0.000000 +0.000000 +0.000000 ] spin -1 )
	HOMO-LUMO gap: +0.001411
	Optical gap  : +0.002390 at state 4 ( [ +0.333333 +0.000000 +0.000000 ] spin 1 )
Dumping 'jdft.Ecomponents' ... done
IonicMinimize: Iter:   0  F: -7106.988333457326007  |grad|_K:  1.776e-02  t[s]:   1357.86

#--- Lowdin population analysis ---
# oxidation-state Ag +0.097 -0.026 +0.097 -0.025 +0.012 +0.011 +0.011 +0.011 -0.036 -0.035 -0.036 -0.036 -0.003 -0.004 -0.003 -0.004 -0.004 -0.003 -0.004 -0.003 -0.016 -0.022 -0.015 -0.022 -0.026 -0.023 -0.023 -0.024 -0.004 -0.005 -0.002 -0.001 -0.002 -0.002 -0.003 +0.000 -0.035 -0.026 -0.037 -0.043 +0.006 +0.016 +0.013 +0.011 +0.097 +0.098 +0.089 +0.098
# magnetic-moments Ag +0.000 -0.000 +0.000 -0.000 +0.000 +0.000 +0.000 +0.000 +0.000 +0.000 +0.000 +0.000 +0.000 +0.000 +0.000 +0.000 +0.000 +0.000 +0.000 +0.000 +0.000 +0.000 +0.000 +0.000 +0.000 +0.000 +0.000 +0.000 +0.000 +0.000 +0.000 +0.000 +0.000 +0.000 +0.000 +0.000 +0.000 +0.000 +0.000 +0.000 +0.000 +0.000 +0.000 +0.000 +0.000 -0.000 +0.000 -0.000
# oxidation-state C +0.362
# magnetic-moments C -0.000
# oxidation-state O -0.095
# magnetic-moments O -0.000


Computing DFT-D3 correction:
# coordination-number Ag 5.463 6.366 5.463 6.370 6.738 6.738 6.738 6.738 8.993 8.993 8.993 8.993 8.975 8.975 8.975 8.975 8.934 8.934 8.934 8.934 7.514 7.497 7.514 7.497 7.499 7.499 7.499 7.499 8.932 8.932 8.932 8.932 8.980 8.979 8.979 8.979 8.996 9.000 8.996 8.997 6.745 6.745 6.743 6.743 5.455 5.455 5.455 5.455
# coordination-number C 2.809
# coordination-number O 1.054
# diagonal-C6 Ag 268.61 268.61 268.61 268.61 268.61 268.61 268.61 268.61 268.61 268.61 268.61 268.61 268.61 268.61 268.61 268.61 268.61 268.61 268.61 268.61 268.61 268.61 268.61 268.61 268.61 268.61 268.61 268.61 268.61 268.61 268.61 268.61 268.61 268.61 268.61 268.61 268.61 268.61 268.61 268.61 268.61 268.61 268.61 268.61 268.61 268.61 268.61 268.61
# diagonal-C6 C 26.01
# diagonal-C6 O 12.77
EvdW_6 =   -0.276151
EvdW_8 =   -0.385303

-------- Electronic minimization -----------
	Linear fluid (dielectric constant: 78.4, screening length: 8.12261 Bohr) occupying 0.503658 of unit cell:	Completed after 14 iterations at t[s]:   1450.61
	FillingsUpdate:  mu: -0.146129265  nElectrons: 922.000000  magneticMoment: [ Abs: 0.00000  Tot: +0.00000 ]
ElecMinimize: Iter:   0  F: -7106.983449405675856  |grad|_K:  4.344e-06  alpha:  1.000e+00
	Linear fluid (dielectric constant: 78.4, screening length: 8.12261 Bohr) occupying 0.503642 of unit cell:	Completed after 17 iterations at t[s]:   1645.20
	Linear fluid (dielectric constant: 78.4, screening length: 8.12261 Bohr) occupying 0.503647 of unit cell:	Completed after 14 iterations at t[s]:   1711.62
	FillingsUpdate:  mu: -0.146461143  nElectrons: 922.000000  magneticMoment: [ Abs: 0.00000  Tot: +0.00000 ]
	SubspaceRotationAdjust: set factor to 0.26
ElecMinimize: Iter:   1  F: -7106.987933088212230  |grad|_K:  1.104e-06  alpha:  3.858e-01  linmin:  1.424e-04  t[s]:   1800.16
	Linear fluid (dielectric constant: 78.4, screening length: 8.12261 Bohr) occupying 0.503638 of unit cell:	Completed after 11 iterations at t[s]:   1892.33
	Linear fluid (dielectric constant: 78.4, screening length: 8.12261 Bohr) occupying 0.503638 of unit cell:	Completed after 2 iterations at t[s]:   1954.82
	FillingsUpdate:  mu: -0.146865076  nElectrons: 922.000000  magneticMoment: [ Abs: 0.00000  Tot: +0.00000 ]
	SubspaceRotationAdjust: set factor to 0.319
ElecMinimize: Iter:   2  F: -7106.988213694047772  |grad|_K:  5.228e-07  alpha:  3.738e-01  linmin:  3.761e-05  t[s]:   2043.63
	Linear fluid (dielectric constant: 78.4, screening length: 8.12261 Bohr) occupying 0.503637 of unit cell:	Completed after 7 iterations at t[s]:   2134.40
	Linear fluid (dielectric constant: 78.4, screening length: 8.12261 Bohr) occupying 0.503636 of unit cell:	Completed after 5 iterations at t[s]:   2198.06
	FillingsUpdate:  mu: -0.146910379  nElectrons: 922.000000  magneticMoment: [ Abs: 0.00000  Tot: +0.00000 ]
	SubspaceRotationAdjust: set factor to 0.425
ElecMinimize: Iter:   3  F: -7106.988302652847779  |grad|_K:  3.598e-07  alpha:  5.286e-01  linmin:  2.120e-05  t[s]:   2286.27
	Linear fluid (dielectric constant: 78.4, screening length: 8.12261 Bohr) occupying 0.503636 of unit cell:	Completed after 9 iterations at t[s]:   2377.66
	Linear fluid (dielectric constant: 78.4, screening length: 8.12261 Bohr) occupying 0.503636 of unit cell:	Completed after 2 iterations at t[s]:   2440.70
	FillingsUpdate:  mu: -0.147068009  nElectrons: 922.000000  magneticMoment: [ Abs: 0.00000  Tot: +0.00000 ]
	SubspaceRotationAdjust: set factor to 0.561
ElecMinimize: Iter:   4  F: -7106.988347591408456  |grad|_K:  2.732e-07  alpha:  5.637e-01  linmin: -8.111e-06  t[s]:   2528.55
	Linear fluid (dielectric constant: 78.4, screening length: 8.12261 Bohr) occupying 0.503648 of unit cell:	Completed after 7 iterations at t[s]:   2620.89
	Linear fluid (dielectric constant: 78.4, screening length: 8.12261 Bohr) occupying 0.503647 of unit cell:	Completed after 2 iterations at t[s]:   2683.08
	FillingsUpdate:  mu: -0.147007360  nElectrons: 922.000000  magneticMoment: [ Abs: 0.00000  Tot: +0.00000 ]
	SubspaceRotationAdjust: set factor to 0.645
ElecMinimize: Iter:   5  F: -7106.988371975477094  |grad|_K:  2.240e-07  alpha:  5.293e-01  linmin:  1.409e-05  t[s]:   2771.22
	Linear fluid (dielectric constant: 78.4, screening length: 8.12261 Bohr) occupying 0.503662 of unit cell:	Completed after 7 iterations at t[s]:   2862.14
	Linear fluid (dielectric constant: 78.4, screening length: 8.12261 Bohr) occupying 0.503656 of unit cell:	Completed after 3 iterations at t[s]:   2925.43
	FillingsUpdate:  mu: -0.147007725  nElectrons: 922.000000  magneticMoment: [ Abs: 0.00000  Tot: +0.00000 ]
	SubspaceRotationAdjust: set factor to 0.705
ElecMinimize: Iter:   6  F: -7106.988381664094959  |grad|_K:  1.561e-07  alpha:  3.140e-01  linmin:  6.969e-06  t[s]:   3013.49
	Linear fluid (dielectric constant: 78.4, screening length: 8.12261 Bohr) occupying 0.503664 of unit cell:	Completed after 7 iterations at t[s]:   3104.21
	Linear fluid (dielectric constant: 78.4, screening length: 8.12261 Bohr) occupying 0.503664 of unit cell:	Completed after 0 iterations at t[s]:   3165.76
	FillingsUpdate:  mu: -0.146934320  nElectrons: 922.000000  magneticMoment: [ Abs: 0.00000  Tot: +0.00000 ]
	SubspaceRotationAdjust: set factor to 0.552
ElecMinimize: Iter:   7  F: -7106.988386317082586  |grad|_K:  1.230e-07  alpha:  3.103e-01  linmin: -5.526e-05  t[s]:   3253.75
	Linear fluid (dielectric constant: 78.4, screening length: 8.12261 Bohr) occupying 0.503673 of unit cell:	Completed after 6 iterations at t[s]:   3344.25
	Linear fluid (dielectric constant: 78.4, screening length: 8.12261 Bohr) occupying 0.503671 of unit cell:	Completed after 2 iterations at t[s]:   3406.82
	FillingsUpdate:  mu: -0.146933395  nElectrons: 922.000000  magneticMoment: [ Abs: 0.00000  Tot: +0.00000 ]
	SubspaceRotationAdjust: set factor to 0.377
ElecMinimize: Iter:   8  F: -7106.988388517665953  |grad|_K:  6.328e-08  alpha:  2.338e-01  linmin: -1.375e-05  t[s]:   3494.98
	Linear fluid (dielectric constant: 78.4, screening length: 8.12261 Bohr) occupying 0.503674 of unit cell:	Completed after 2 iterations at t[s]:   3584.29
	Linear fluid (dielectric constant: 78.4, screening length: 8.12261 Bohr) occupying 0.503677 of unit cell:	Completed after 2 iterations at t[s]:   3646.95
	FillingsUpdate:  mu: -0.146928643  nElectrons: 922.000000  magneticMoment: [ Abs: 0.00000  Tot: +0.00000 ]
	SubspaceRotationAdjust: set factor to 0.377
ElecMinimize: Iter:   9  F: -7106.988389513084257  |grad|_K:  3.835e-08  alpha:  4.006e-01  linmin: -1.362e-04  t[s]:   3735.27
	Linear fluid (dielectric constant: 78.4, screening length: 8.12261 Bohr) occupying 0.503681 of unit cell:	Completed after 2 iterations at t[s]:   3825.35
	Linear fluid (dielectric constant: 78.4, screening length: 8.12261 Bohr) occupying 0.503681 of unit cell:	Completed after 0 iterations at t[s]:   3887.14
	FillingsUpdate:  mu: -0.146917726  nElectrons: 922.000000  magneticMoment: [ Abs: 0.00000  Tot: +0.00000 ]
	SubspaceRotationAdjust: set factor to 0.418
ElecMinimize: Iter:  10  F: -7106.988389852832370  |grad|_K:  2.618e-08  alpha:  3.698e-01  linmin:  8.117e-06  t[s]:   3975.13
	Linear fluid (dielectric constant: 78.4, screening length: 8.12261 Bohr) occupying 0.503683 of unit cell:	Completed after 2 iterations at t[s]:   4064.31
	Linear fluid (dielectric constant: 78.4, screening length: 8.12261 Bohr) occupying 0.503683 of unit cell:	Completed after 0 iterations at t[s]:   4126.57
	FillingsUpdate:  mu: -0.146913264  nElectrons: 922.000000  magneticMoment: [ Abs: 0.00000  Tot: -0.00000 ]
	SubspaceRotationAdjust: set factor to 0.511
ElecMinimize: Iter:  11  F: -7106.988389996398837  |grad|_K:  1.694e-08  alpha:  3.429e-01  linmin: -6.700e-05  t[s]:   4214.69
	Linear fluid (dielectric constant: 78.4, screening length: 8.12261 Bohr) occupying 0.503684 of unit cell:	Completed after 0 iterations at t[s]:   4302.77
	Linear fluid (dielectric constant: 78.4, screening length: 8.12261 Bohr) occupying 0.503684 of unit cell:	Completed after 1 iterations at t[s]:   4364.95
	FillingsUpdate:  mu: -0.146914583  nElectrons: 922.000000  magneticMoment: [ Abs: 0.00000  Tot: -0.00000 ]
	SubspaceRotationAdjust: set factor to 0.644
ElecMinimize: Iter:  12  F: -7106.988390076929136  |grad|_K:  1.291e-08  alpha:  5.009e-01  linmin:  2.096e-04  t[s]:   4453.40
	Linear fluid (dielectric constant: 78.4, screening length: 8.12261 Bohr) occupying 0.503684 of unit cell:	Completed after 1 iterations at t[s]:   4542.43
	Linear fluid (dielectric constant: 78.4, screening length: 8.12261 Bohr) occupying 0.503684 of unit cell:	Completed after 0 iterations at t[s]:   4604.01
	FillingsUpdate:  mu: -0.146922089  nElectrons: 922.000000  magneticMoment: [ Abs: 0.00000  Tot: -0.00000 ]
	SubspaceRotationAdjust: set factor to 0.806
ElecMinimize: Iter:  13  F: -7106.988390112611341  |grad|_K:  1.064e-08  alpha:  3.800e-01  linmin: -7.982e-05  t[s]:   4692.13
ElecMinimize: Converged (|Delta F|<1.000000e-07 for 2 iters).
Setting wave functions to eigenvectors of Hamiltonian
Converging empty states (this may take a while): |deigs|: 1.729e-07

Computing DFT-D3 correction:
# coordination-number Ag 5.463 6.366 5.463 6.370 6.738 6.738 6.738 6.738 8.993 8.993 8.993 8.993 8.975 8.975 8.975 8.975 8.934 8.934 8.934 8.934 7.514 7.497 7.514 7.497 7.499 7.499 7.499 7.499 8.932 8.932 8.932 8.932 8.980 8.979 8.979 8.979 8.996 9.000 8.996 8.997 6.745 6.745 6.743 6.743 5.455 5.455 5.455 5.455
# coordination-number C 2.809
# coordination-number O 1.054
# diagonal-C6 Ag 268.61 268.61 268.61 268.61 268.61 268.61 268.61 268.61 268.61 268.61 268.61 268.61 268.61 268.61 268.61 268.61 268.61 268.61 268.61 268.61 268.61 268.61 268.61 268.61 268.61 268.61 268.61 268.61 268.61 268.61 268.61 268.61 268.61 268.61 268.61 268.61 268.61 268.61 268.61 268.61 268.61 268.61 268.61 268.61 268.61 268.61 268.61 268.61
# diagonal-C6 C 26.01
# diagonal-C6 O 12.77
EvdW_6 =   -0.276151
EvdW_8 =   -0.385303

# Ionic positions in cartesian coordinates:
ion Ag  10.839213999999998  26.417100999999985  17.976664000000000 0
ion Ag  10.839213999999998  13.139773999999992  17.976664000000000 0
ion Ag   5.418766999999999  26.417100999999985  17.976664000000000 0
ion Ag   5.418766999999999  13.139773999999992  17.976664000000000 0
ion Ag   0.000217000000000   4.519150999999997   2.204173000000000 0
ion Ag   0.000217000000000  17.796477999999993   2.204173000000000 0
ion Ag   5.420663999999999   4.519150999999997   2.204173000000000 0
ion Ag   5.420663999999999  17.796477999999993   2.204173000000000 0
ion Ag   0.000954000000000   8.973428999999994   5.467986999999998 0
ion Ag   0.000954000000000  22.250755999999988   5.467986999999998 0
ion Ag   5.421401000000000   8.973428999999994   5.467986999999998 0
ion Ag   5.421401000000000  22.250755999999988   5.467986999999998 0
ion Ag  10.840016000000000   0.022810000000000   8.601168999999999 0
ion Ag  10.840016000000000  13.300137999999993   8.601168999999999 0
ion Ag   5.419558000000000   0.022810000000000   8.601168999999999 0
ion Ag   5.419558000000000  13.300137999999993   8.601168999999999 0
ion Ag   0.000022000000000   4.389802999999998  11.760488999999996 0
ion Ag   0.000022000000000  17.667103999999988  11.760488999999996 0
ion Ag   5.420469000000000   4.389802999999998  11.760488999999996 0
ion Ag   5.420469000000000  17.667103999999988  11.760488999999996 0
ion Ag   5.421032000000000   8.708757999999996  15.042160000000001 0
ion Ag   5.421032000000000  21.986085999999990  15.042160000000001 0
ion Ag   0.000585000000000   8.708757999999996  15.042160000000001 0
ion Ag   0.000585000000000  21.986085999999990  15.042160000000001 0
ion Ag   2.709595000000000   0.146449000000000   3.735190999999999 0
ion Ag   2.709595000000000  13.423749999999989   3.735190999999999 0
ion Ag   8.130042000000000   0.146449000000000   3.735190999999999 0
ion Ag   8.130042000000000  13.423749999999989   3.735190999999999 0
ion Ag   2.710256000000000   4.461951999999997   7.016861999999997 0
ion Ag   2.710256000000000  17.739278999999993   7.016861999999997 0
ion Ag   8.130702999999999   4.461951999999997   7.016861999999997 0
ion Ag   8.130702999999999  17.739278999999993   7.016861999999997 0
ion Ag   2.711004000000000   8.825173999999995  10.174547999999996 0
ion Ag   2.711004000000000  22.102500999999990  10.174547999999996 0
ion Ag   8.131451000000000   8.825173999999995  10.174547999999996 0
ion Ag   8.131451000000000  22.102500999999990  10.174547999999996 0
ion Ag   2.709269000000000  26.433883999999985  13.312124999999995 0
ion Ag   2.709269000000000  13.156556999999992  13.312124999999995 0
ion Ag   8.129716000000000  26.433883999999985  13.312124999999995 0
ion Ag   8.129716000000000  13.156556999999992  13.312124999999995 0
ion Ag   2.710104000000000   4.330638999999997  16.571093999999999 0
ion Ag   2.710104000000000  17.607966999999988  16.571093999999999 0
ion Ag   8.130540000000000   4.330638999999997  16.571093999999999 0
ion Ag   8.130540000000000  17.607966999999988  16.571093999999999 0
ion Ag   2.711904000000000   8.989520999999995   0.799449000000000 0
ion Ag   2.711904000000000  22.266847999999985   0.799449000000000 0
ion Ag   8.132351000000000   8.989520999999995   0.799449000000000 0
ion Ag   8.132351000000000  22.266847999999985   0.799449000000000 0
ion C   2.710104000000000  10.969302999999993  20.438864333209182 1  Linear 0 0 1
ion O   2.770195000000000  10.969302999999993  22.655771733990377 1  Linear 0 0 1

# Forces in Cartesian coordinates:
force Ag  -0.000091549842242   0.000362627907096   0.000054349652258 0
force Ag  -0.005831173872340   0.000672308991371   0.001468309156262 0
force Ag   0.000108988314524   0.000356196557839   0.000057896062166 0
force Ag   0.006100351486153   0.000903523930819   0.000853223587584 0
force Ag  -0.000329593745122   0.000380507795184  -0.000149958177568 0
force Ag   0.000058945334745   0.000333156613442  -0.000009085632593 0
force Ag   0.000324241526646   0.000390518637185  -0.000149464157663 0
force Ag  -0.000062933373905   0.000342529485965   0.000002785763941 0
force Ag   0.000108100565263   0.000039786526456  -0.000691524320024 0
force Ag  -0.000061417504077  -0.000005463355245  -0.000582376252211 0
force Ag  -0.000135820841454   0.000066512251683  -0.000702583206295 0
force Ag   0.000054769256108  -0.000027035895512  -0.000561519898563 0
force Ag  -0.000012955692215   0.000446373896164  -0.000175913638866 0
force Ag  -0.000625903168864   0.000366992906524  -0.000289362993349 0
force Ag   0.000011058675488   0.000430825270564  -0.000172114786036 0
force Ag   0.000620422821452   0.000349097609078  -0.000268878929637 0
force Ag  -0.000072765708227   0.000083697686932  -0.000177143007630 0
force Ag   0.000177775951440  -0.000337373450125  -0.000142213318249 0
force Ag   0.000071805057896   0.000098809494948  -0.000182224856564 0
force Ag  -0.000181221082518  -0.000314911971327  -0.000165425875028 0
force Ag   0.002573690130651  -0.002331569313628  -0.002587470472714 0
force Ag   0.000368318853071   0.000168633163518  -0.000344975948665 0
force Ag  -0.002606348815979  -0.002437091605256  -0.002685702829373 0
force Ag  -0.000360211385241   0.000198214347512  -0.000355482723037 0
force Ag   0.000000343018485  -0.000257042467427   0.000418015053854 0
force Ag   0.000000957157139  -0.000252111169168   0.000226208786807 0
force Ag  -0.000004658913172   0.000322230604828   0.000153099157985 0
force Ag  -0.000008356623820  -0.000333189484233  -0.000360395477640 0
force Ag  -0.000000671827840  -0.000435468929181   0.000102587669163 0
force Ag  -0.000001358667513  -0.000630026053635   0.000422042507732 0
force Ag   0.000002629239188  -0.000425058819919   0.000279661584425 0
force Ag  -0.000001620192291  -0.000351468819621   0.000025981540221 0
force Ag  -0.000006749169756   0.000428922227312   0.001511356871496 0
force Ag  -0.000002327934260  -0.000447217000230   0.000475078431296 0
force Ag  -0.000020980223104  -0.000038208669586  -0.000215672726611 0
force Ag   0.000004458347095   0.000177160855252   0.000348692566224 0
force Ag   0.000017586543326   0.000051135412915   0.000655121302254 0
force Ag   0.000000181323261   0.001495410198264  -0.005451200671785 0
force Ag  -0.000013100228289   0.000168850828848   0.000382063941306 0
force Ag   0.000015952904490   0.000227662289118   0.001685797239155 0
force Ag  -0.000011470508179  -0.000155690821124   0.000084270986521 0
force Ag  -0.000015206577553   0.001412068589006  -0.001185435604599 0
force Ag   0.000010055690770   0.000081086787553  -0.000044977300998 0
force Ag   0.000035951247892  -0.002060875341785   0.000052778873128 0
force Ag   0.000000917520258  -0.000197497037762   0.000207540823954 0
force Ag  -0.000013059399887  -0.000104833748042   0.000056140472796 0
force Ag  -0.000036915084413  -0.000390448081736   0.000111217557040 0
force Ag  -0.000002475675542  -0.000606756227950   0.000206091675357 0
force C   0.000460353610941   0.007971264033299   0.019098785561311 1  Linear 0 0 1
force O  -0.000790805800430  -0.005992902827393  -0.011214540844885 1  Linear 0 0 1

# Energy components:
   A_diel =       -0.0043205310273584
   Eewald =    32630.1473343668658345
       EH =    39046.9104761451235390
     Eloc =   -79905.3709894434723537
      Enl =      192.4666573926068054
     EvdW =       -0.6614541719295655
      Exc =     -700.7288511369754360
 Exc_core =       10.0909394780657493
       KE =     1620.1629942030906477
  MuShift =       -0.0000000000008081
-------------------------------------
     Etot =    -7106.9872136976582624
       TS =        0.0011764149533609
-------------------------------------
        F =    -7106.9883901126113415


Dumping 'jdft.fillings' ... done
Dumping 'jdft.wfns' ... done
Dumping 'jdft.fluidState' ... done
Dumping 'jdft.ionpos' ... done
Dumping 'jdft.lattice' ... done
Dumping 'jdft.eigenvals' ... done
Dumping 'jdft.eigStats' ... 
	eMin: -3.535174 at state 8 ( [ +0.000000 +0.000000 +0.000000 ] spin -1 )
	HOMO: -0.147089 at state 9 ( [ +0.000000 +0.500000 +0.000000 ] spin -1 )
	mu  : -0.146922
	LUMO: -0.145820 at state 7 ( [ +0.500000 +0.500000 +0.000000 ] spin 1 )
	eMax: +0.147744 at state 0 ( [ +0.000000 +0.000000 +0.000000 ] spin 1 )
	HOMO-LUMO gap: +0.001269
	Optical gap  : +0.002473 at state 4 ( [ +0.333333 +0.000000 +0.000000 ] spin 1 )
Dumping 'jdft.Ecomponents' ... done
IonicMinimize: Iter:   1  F: -7106.988390112611341  |grad|_K:  1.566e-02  alpha:  1.000e+00  linmin:  7.043e-01  t[s]:   5311.70

#--- Lowdin population analysis ---
# oxidation-state Ag +0.099 -0.024 +0.099 -0.023 +0.012 +0.012 +0.012 +0.012 -0.036 -0.035 -0.036 -0.036 -0.003 -0.004 -0.003 -0.004 -0.004 -0.003 -0.004 -0.003 -0.016 -0.022 -0.015 -0.022 -0.025 -0.023 -0.023 -0.024 -0.004 -0.005 -0.002 -0.001 -0.002 -0.003 -0.003 +0.000 -0.035 -0.025 -0.038 -0.043 +0.007 +0.017 +0.014 +0.012 +0.098 +0.100 +0.090 +0.099
# magnetic-moments Ag -0.000 -0.000 -0.000 -0.000 -0.000 -0.000 -0.000 -0.000 -0.000 -0.000 -0.000 -0.000 -0.000 -0.000 -0.000 -0.000 -0.000 -0.000 -0.000 -0.000 -0.000 -0.000 -0.000 -0.000 -0.000 -0.000 -0.000 -0.000 -0.000 -0.000 -0.000 -0.000 -0.000 -0.000 -0.000 -0.000 -0.000 -0.000 -0.000 -0.000 -0.000 -0.000 -0.000 -0.000 -0.000 -0.000 -0.000 -0.000
# oxidation-state C +0.352
# magnetic-moments C +0.000
# oxidation-state O -0.112
# magnetic-moments O +0.000


Computing DFT-D3 correction:
# coordination-number Ag 5.463 6.364 5.463 6.368 6.738 6.738 6.738 6.738 8.993 8.993 8.993 8.993 8.975 8.975 8.975 8.975 8.934 8.934 8.934 8.934 7.514 7.497 7.514 7.497 7.499 7.499 7.499 7.499 8.932 8.932 8.932 8.932 8.980 8.979 8.979 8.979 8.996 9.000 8.996 8.997 6.745 6.745 6.743 6.743 5.455 5.455 5.455 5.455
# coordination-number C 2.804
# coordination-number O 1.055
# diagonal-C6 Ag 268.61 268.61 268.61 268.61 268.61 268.61 268.61 268.61 268.61 268.61 268.61 268.61 268.61 268.61 268.61 268.61 268.61 268.61 268.61 268.61 268.61 268.61 268.61 268.61 268.61 268.61 268.61 268.61 268.61 268.61 268.61 268.61 268.61 268.61 268.61 268.61 268.61 268.61 268.61 268.61 268.61 268.61 268.61 268.61 268.61 268.61 268.61 268.61
# diagonal-C6 C 26.02
# diagonal-C6 O 12.77
EvdW_6 =   -0.276153
EvdW_8 =   -0.385303

-------- Electronic minimization -----------
	Linear fluid (dielectric constant: 78.4, screening length: 8.12261 Bohr) occupying 0.503714 of unit cell:	Completed after 5 iterations at t[s]:   5414.64
	FillingsUpdate:  mu: -0.146794848  nElectrons: 922.000000  magneticMoment: [ Abs: 0.00000  Tot: -0.00000 ]
ElecMinimize: Iter:   0  F: -7106.988442471931194  |grad|_K:  4.525e-07  alpha:  1.000e+00
	Linear fluid (dielectric constant: 78.4, screening length: 8.12261 Bohr) occupying 0.503685 of unit cell:	Completed after 14 iterations at t[s]:   5608.50
	Linear fluid (dielectric constant: 78.4, screening length: 8.12261 Bohr) occupying 0.503700 of unit cell:	Completed after 11 iterations at t[s]:   5673.97
	FillingsUpdate:  mu: -0.146505784  nElectrons: 922.000000  magneticMoment: [ Abs: 0.00000  Tot: -0.00000 ]
	SubspaceRotationAdjust: set factor to 1.05
ElecMinimize: Iter:   1  F: -7106.988499771086026  |grad|_K:  2.383e-07  alpha:  4.555e-01  linmin:  3.861e-05  t[s]:   5762.23
	Linear fluid (dielectric constant: 78.4, screening length: 8.12261 Bohr) occupying 0.503675 of unit cell:	Completed after 11 iterations at t[s]:   5853.79
	Linear fluid (dielectric constant: 78.4, screening length: 8.12261 Bohr) occupying 0.503682 of unit cell:	Completed after 7 iterations at t[s]:   5919.58
	FillingsUpdate:  mu: -0.146921051  nElectrons: 922.000000  magneticMoment: [ Abs: 0.00000  Tot: -0.00000 ]
	SubspaceRotationAdjust: set factor to 0.685
ElecMinimize: Iter:   2  F: -7106.988511397229558  |grad|_K:  2.650e-07  alpha:  3.336e-01  linmin:  4.640e-06  t[s]:   6007.33
	Linear fluid (dielectric constant: 78.4, screening length: 8.12261 Bohr) occupying 0.503676 of unit cell:	Completed after 11 iterations at t[s]:   6099.14
	Linear fluid (dielectric constant: 78.4, screening length: 8.12261 Bohr) occupying 0.503679 of unit cell:	Completed after 10 iterations at t[s]:   6164.37
	FillingsUpdate:  mu: -0.146644471  nElectrons: 922.000000  magneticMoment: [ Abs: 0.00000  Tot: +0.00000 ]
	SubspaceRotationAdjust: set factor to 0.42
ElecMinimize: Iter:   3  F: -7106.988517902652347  |grad|_K:  1.208e-07  alpha:  1.512e-01  linmin:  1.787e-05  t[s]:   6252.37
	Linear fluid (dielectric constant: 78.4, screening length: 8.12261 Bohr) occupying 0.503678 of unit cell:	Completed after 3 iterations at t[s]:   6341.68
	Linear fluid (dielectric constant: 78.4, screening length: 8.12261 Bohr) occupying 0.503676 of unit cell:	Completed after 2 iterations at t[s]:   6404.22
	FillingsUpdate:  mu: -0.146615279  nElectrons: 922.000000  magneticMoment: [ Abs: 0.00000  Tot: +0.00000 ]
	SubspaceRotationAdjust: set factor to 0.458
ElecMinimize: Iter:   4  F: -7106.988520523845182  |grad|_K:  6.370e-08  alpha:  2.907e-01  linmin: -7.812e-05  t[s]:   6492.22
	Linear fluid (dielectric constant: 78.4, screening length: 8.12261 Bohr) occupying 0.503673 of unit cell:	Completed after 3 iterations at t[s]:   6582.32
	Linear fluid (dielectric constant: 78.4, screening length: 8.12261 Bohr) occupying 0.503673 of unit cell:	Completed after 0 iterations at t[s]:   6643.91
	FillingsUpdate:  mu: -0.146671744  nElectrons: 922.000000  magneticMoment: [ Abs: 0.00000  Tot: +0.00000 ]
	SubspaceRotationAdjust: set factor to 0.419
ElecMinimize: Iter:   5  F: -7106.988521235764892  |grad|_K:  3.454e-08  alpha:  2.822e-01  linmin: -1.850e-05  t[s]:   6732.01
	Linear fluid (dielectric constant: 78.4, screening length: 8.12261 Bohr) occupying 0.503672 of unit cell:	Completed after 2 iterations at t[s]:   6822.01
	Linear fluid (dielectric constant: 78.4, screening length: 8.12261 Bohr) occupying 0.503672 of unit cell:	Completed after 0 iterations at t[s]:   6883.52
	FillingsUpdate:  mu: -0.146687348  nElectrons: 922.000000  magneticMoment: [ Abs: 0.00000  Tot: +0.00000 ]
	SubspaceRotationAdjust: set factor to 0.457
ElecMinimize: Iter:   6  F: -7106.988521497939473  |grad|_K:  1.776e-08  alpha:  3.451e-01  linmin: -1.153e-03  t[s]:   6971.61
	Linear fluid (dielectric constant: 78.4, screening length: 8.12261 Bohr) occupying 0.503671 of unit cell:	Completed after 2 iterations at t[s]:   7060.74
	Linear fluid (dielectric constant: 78.4, screening length: 8.12261 Bohr) occupying 0.503671 of unit cell:	Completed after 0 iterations at t[s]:   7123.39
	FillingsUpdate:  mu: -0.146684083  nElectrons: 922.000000  magneticMoment: [ Abs: 0.00000  Tot: +0.00000 ]
	SubspaceRotationAdjust: set factor to 0.468
ElecMinimize: Iter:   7  F: -7106.988521574148763  |grad|_K:  1.219e-08  alpha:  3.551e-01  linmin: -1.292e-03  t[s]:   7211.57
	Linear fluid (dielectric constant: 78.4, screening length: 8.12261 Bohr) occupying 0.503670 of unit cell:	Completed after 1 iterations at t[s]:   7300.21
	Linear fluid (dielectric constant: 78.4, screening length: 8.12261 Bohr) occupying 0.503670 of unit cell:	Completed after 0 iterations at t[s]:   7361.58
	FillingsUpdate:  mu: -0.146684457  nElectrons: 922.000000  magneticMoment: [ Abs: 0.00000  Tot: +0.00000 ]
	SubspaceRotationAdjust: set factor to 0.422
ElecMinimize: Iter:   8  F: -7106.988521607240727  |grad|_K:  8.369e-09  alpha:  3.352e-01  linmin:  1.192e-04  t[s]:   7450.13
ElecMinimize: Converged (|Delta F|<1.000000e-07 for 2 iters).
Setting wave functions to eigenvectors of Hamiltonian
Converging empty states (this may take a while): |deigs|: 3.718e-08

Computing DFT-D3 correction:
# coordination-number Ag 5.463 6.364 5.463 6.368 6.738 6.738 6.738 6.738 8.993 8.993 8.993 8.993 8.975 8.975 8.975 8.975 8.934 8.934 8.934 8.934 7.514 7.497 7.514 7.497 7.499 7.499 7.499 7.499 8.932 8.932 8.932 8.932 8.980 8.979 8.979 8.979 8.996 9.000 8.996 8.997 6.745 6.745 6.743 6.743 5.455 5.455 5.455 5.455
# coordination-number C 2.804
# coordination-number O 1.055
# diagonal-C6 Ag 268.61 268.61 268.61 268.61 268.61 268.61 268.61 268.61 268.61 268.61 268.61 268.61 268.61 268.61 268.61 268.61 268.61 268.61 268.61 268.61 268.61 268.61 268.61 268.61 268.61 268.61 268.61 268.61 268.61 268.61 268.61 268.61 268.61 268.61 268.61 268.61 268.61 268.61 268.61 268.61 268.61 268.61 268.61 268.61 268.61 268.61 268.61 268.61
# diagonal-C6 C 26.02
# diagonal-C6 O 12.77
EvdW_6 =   -0.276153
EvdW_8 =   -0.385303

# Ionic positions in cartesian coordinates:
ion Ag  10.839213999999998  26.417100999999985  17.976664000000000 0
ion Ag  10.839213999999998  13.139773999999992  17.976664000000000 0
ion Ag   5.418766999999999  26.417100999999985  17.976664000000000 0
ion Ag   5.418766999999999  13.139773999999992  17.976664000000000 0
ion Ag   0.000217000000000   4.519150999999997   2.204173000000000 0
ion Ag   0.000217000000000  17.796477999999993   2.204173000000000 0
ion Ag   5.420663999999999   4.519150999999997   2.204173000000000 0
ion Ag   5.420663999999999  17.796477999999993   2.204173000000000 0
ion Ag   0.000954000000000   8.973428999999994   5.467986999999998 0
ion Ag   0.000954000000000  22.250755999999988   5.467986999999998 0
ion Ag   5.421401000000000   8.973428999999994   5.467986999999998 0
ion Ag   5.421401000000000  22.250755999999988   5.467986999999998 0
ion Ag  10.840016000000000   0.022810000000000   8.601168999999999 0
ion Ag  10.840016000000000  13.300137999999993   8.601168999999999 0
ion Ag   5.419558000000000   0.022810000000000   8.601168999999999 0
ion Ag   5.419558000000000  13.300137999999993   8.601168999999999 0
ion Ag   0.000022000000000   4.389802999999998  11.760488999999996 0
ion Ag   0.000022000000000  17.667103999999988  11.760488999999996 0
ion Ag   5.420469000000000   4.389802999999998  11.760488999999996 0
ion Ag   5.420469000000000  17.667103999999988  11.760488999999996 0
ion Ag   5.421032000000000   8.708757999999996  15.042160000000001 0
ion Ag   5.421032000000000  21.986085999999990  15.042160000000001 0
ion Ag   0.000585000000000   8.708757999999996  15.042160000000001 0
ion Ag   0.000585000000000  21.986085999999990  15.042160000000001 0
ion Ag   2.709595000000000   0.146449000000000   3.735190999999999 0
ion Ag   2.709595000000000  13.423749999999989   3.735190999999999 0
ion Ag   8.130042000000000   0.146449000000000   3.735190999999999 0
ion Ag   8.130042000000000  13.423749999999989   3.735190999999999 0
ion Ag   2.710256000000000   4.461951999999997   7.016861999999997 0
ion Ag   2.710256000000000  17.739278999999993   7.016861999999997 0
ion Ag   8.130702999999999   4.461951999999997   7.016861999999997 0
ion Ag   8.130702999999999  17.739278999999993   7.016861999999997 0
ion Ag   2.711004000000000   8.825173999999995  10.174547999999996 0
ion Ag   2.711004000000000  22.102500999999990  10.174547999999996 0
ion Ag   8.131451000000000   8.825173999999995  10.174547999999996 0
ion Ag   8.131451000000000  22.102500999999990  10.174547999999996 0
ion Ag   2.709269000000000  26.433883999999985  13.312124999999995 0
ion Ag   2.709269000000000  13.156556999999992  13.312124999999995 0
ion Ag   8.129716000000000  26.433883999999985  13.312124999999995 0
ion Ag   8.129716000000000  13.156556999999992  13.312124999999995 0
ion Ag   2.710104000000000   4.330638999999997  16.571093999999999 0
ion Ag   2.710104000000000  17.607966999999988  16.571093999999999 0
ion Ag   8.130540000000000   4.330638999999997  16.571093999999999 0
ion Ag   8.130540000000000  17.607966999999988  16.571093999999999 0
ion Ag   2.711904000000000   8.989520999999995   0.799449000000000 0
ion Ag   2.711904000000000  22.266847999999985   0.799449000000000 0
ion Ag   8.132351000000000   8.989520999999995   0.799449000000000 0
ion Ag   8.132351000000000  22.266847999999985   0.799449000000000 0
ion C   2.710104000000000  10.969302999999993  20.446830395440504 1  Linear 0 0 1
ion O   2.770195000000000  10.969302999999993  22.648669926322562 1  Linear 0 0 1

# Forces in Cartesian coordinates:
force Ag  -0.000090163619803   0.000359222434563  -0.000048640140171 0
force Ag  -0.005864234562017   0.000738699420216   0.001264427474589 0
force Ag   0.000107596075645   0.000352656700502  -0.000045108235203 0
force Ag   0.006139846719997   0.000978263621704   0.000638987822259 0
force Ag  -0.000326803405123   0.000382447809247  -0.000098221651435 0
force Ag   0.000061026916133   0.000337409986336   0.000002612753921 0
force Ag   0.000321441126269   0.000392377168910  -0.000097649114436 0
force Ag  -0.000065022575824   0.000346808907202   0.000014645821050 0
force Ag   0.000106772158968   0.000021529749654  -0.000621275290695 0
force Ag  -0.000057581565744   0.000007568486234  -0.000493838506567 0
force Ag  -0.000134501405447   0.000048046786083  -0.000632342142388 0
force Ag   0.000050899533622  -0.000013883782159  -0.000473069789498 0
force Ag  -0.000010493864611   0.000449782718004  -0.000081482241803 0
force Ag  -0.000623812608666   0.000366765993663  -0.000238527390812 0
force Ag   0.000008632525443   0.000434188620407  -0.000077906085175 0
force Ag   0.000618200319477   0.000349037830333  -0.000217913364419 0
force Ag  -0.000067284469995   0.000034529989251  -0.000197389633357 0
force Ag   0.000188335518072  -0.000295098520706  -0.000155076866894 0
force Ag   0.000066319155943   0.000049254214467  -0.000202251319271 0
force Ag  -0.000191759335259  -0.000272490990310  -0.000178466657258 0
force Ag   0.002563177495273  -0.002346606321727  -0.002683735626285 0
force Ag   0.000368421069744   0.000193080449489  -0.000452594701017 0
force Ag  -0.002595428836510  -0.002452090650532  -0.002782325384718 0
force Ag  -0.000360273971156   0.000222487287031  -0.000463075494473 0
force Ag   0.000000091024826  -0.000246552506554   0.000485236015386 0
force Ag   0.000000866049362  -0.000253192627142   0.000272670239048 0
force Ag  -0.000004419160645   0.000332563225972   0.000220657507898 0
force Ag  -0.000008408501839  -0.000342016936191  -0.000319301007776 0
force Ag  -0.000000578868110  -0.000451331306767   0.000194472811640 0
force Ag  -0.000001515857987  -0.000616793003835   0.000502490766458 0
force Ag   0.000002445092828  -0.000435431658652   0.000368403924830 0
force Ag  -0.000001521776157  -0.000340212616123   0.000110659269629 0
force Ag  -0.000006967489548   0.000397328215551   0.001509508424756 0
[...]
	FillingsUpdate:  mu: -0.146246835  nElectrons: 922.000000  magneticMoment: [ Abs: 0.00000  Tot: -0.00000 ]
	SubspaceRotationAdjust: set factor to 0.499
ElecMinimize: Iter:   4  F: -7106.990245351318663  |grad|_K:  1.390e-08  alpha:  2.133e-01  linmin:  4.810e-04  t[s]:  44341.33
ElecMinimize: Converged (|Delta F|<1.000000e-07 for 2 iters).
Setting wave functions to eigenvectors of Hamiltonian
Converging empty states (this may take a while): |deigs|: 7.188e-10

Computing DFT-D3 correction:
# coordination-number Ag 5.463 6.174 5.463 6.176 6.738 6.738 6.738 6.738 8.993 8.993 8.993 8.993 8.975 8.975 8.975 8.975 8.934 8.934 8.934 8.934 7.506 7.497 7.506 7.497 7.499 7.499 7.499 7.499 8.932 8.932 8.932 8.932 8.979 8.979 8.979 8.979 8.996 8.998 8.996 8.997 6.744 6.744 6.743 6.743 5.455 5.455 5.455 5.455
# coordination-number C 2.428
# coordination-number O 1.029
# diagonal-C6 Ag 268.61 268.61 268.61 268.61 268.61 268.61 268.61 268.61 268.61 268.61 268.61 268.61 268.61 268.61 268.61 268.61 268.61 268.61 268.61 268.61 268.61 268.61 268.61 268.61 268.61 268.61 268.61 268.61 268.61 268.61 268.61 268.61 268.61 268.61 268.61 268.61 268.61 268.61 268.61 268.61 268.61 268.61 268.61 268.61 268.61 268.61 268.61 268.61
# diagonal-C6 C 28.04
# diagonal-C6 O 12.79
EvdW_6 =   -0.276117
EvdW_8 =   -0.385006
IonicMinimize: 	Wolfe criterion not satisfied: alpha: 1  (E-E0)/|gdotd0|: 0.131933  gdotd/gdotd0: -0.862347 (taking cubic step)

Computing DFT-D3 correction:
# coordination-number Ag 5.463 6.173 5.463 6.176 6.738 6.738 6.738 6.738 8.993 8.993 8.993 8.993 8.975 8.975 8.975 8.975 8.934 8.934 8.934 8.934 7.506 7.497 7.506 7.497 7.499 7.499 7.499 7.499 8.932 8.932 8.932 8.932 8.979 8.979 8.979 8.979 8.996 8.998 8.996 8.997 6.744 6.744 6.743 6.743 5.455 5.455 5.455 5.455
# coordination-number C 2.427
# coordination-number O 1.029
# diagonal-C6 Ag 268.61 268.61 268.61 268.61 268.61 268.61 268.61 268.61 268.61 268.61 268.61 268.61 268.61 268.61 268.61 268.61 268.61 268.61 268.61 268.61 268.61 268.61 268.61 268.61 268.61 268.61 268.61 268.61 268.61 268.61 268.61 268.61 268.61 268.61 268.61 268.61 268.61 268.61 268.61 268.61 268.61 268.61 268.61 268.61 268.61 268.61 268.61 268.61
# diagonal-C6 C 28.05
# diagonal-C6 O 12.79
EvdW_6 =   -0.276117
EvdW_8 =   -0.385005

-------- Electronic minimization -----------
	Linear fluid (dielectric constant: 78.4, screening length: 8.12261 Bohr) occupying 0.501214 of unit cell:	Completed after 3 iterations at t[s]:  44699.86
	FillingsUpdate:  mu: -0.146247414  nElectrons: 922.000000  magneticMoment: [ Abs: 0.00000  Tot: +0.00000 ]
ElecMinimize: Iter:   0  F: -7106.990244944888218  |grad|_K:  5.313e-08  alpha:  1.000e+00
	Linear fluid (dielectric constant: 78.4, screening length: 8.12261 Bohr) occupying 0.501214 of unit cell:	Completed after 8 iterations at t[s]:  44891.83
	Linear fluid (dielectric constant: 78.4, screening length: 8.12261 Bohr) occupying 0.501214 of unit cell:	Completed after 8 iterations at t[s]:  44956.78
	FillingsUpdate:  mu: -0.146244304  nElectrons: 922.000000  magneticMoment: [ Abs: 0.00000  Tot: +0.00000 ]
	SubspaceRotationAdjust: set factor to 0.407
ElecMinimize: Iter:   1  F: -7106.990245305007193  |grad|_K:  1.602e-08  alpha:  1.769e-01  linmin: -1.522e-03  t[s]:  45044.91
	Linear fluid (dielectric constant: 78.4, screening length: 8.12261 Bohr) occupying 0.501214 of unit cell:	Completed after 0 iterations at t[s]:  45133.44
	Linear fluid (dielectric constant: 78.4, screening length: 8.12261 Bohr) occupying 0.501214 of unit cell:	Completed after 2 iterations at t[s]:  45196.07
	FillingsUpdate:  mu: -0.146250161  nElectrons: 922.000000  magneticMoment: [ Abs: 0.00000  Tot: +0.00000 ]
	SubspaceRotationAdjust: set factor to 0.407
ElecMinimize: Iter:   2  F: -7106.990245353958926  |grad|_K:  1.280e-08  alpha:  4.050e-01  linmin:  3.160e-03  t[s]:  45284.38
	Linear fluid (dielectric constant: 78.4, screening length: 8.12261 Bohr) occupying 0.501215 of unit cell:	Completed after 2 iterations at t[s]:  45373.58
	Linear fluid (dielectric constant: 78.4, screening length: 8.12261 Bohr) occupying 0.501215 of unit cell:	Completed after 0 iterations at t[s]:  45435.30
	FillingsUpdate:  mu: -0.146249009  nElectrons: 922.000000  magneticMoment: [ Abs: 0.00000  Tot: +0.00000 ]
	SubspaceRotationAdjust: set factor to 0.434
ElecMinimize: Iter:   3  F: -7106.990245376918210  |grad|_K:  8.015e-09  alpha:  2.655e-01  linmin:  2.035e-03  t[s]:  45524.43
ElecMinimize: Converged (|Delta F|<1.000000e-07 for 2 iters).
Setting wave functions to eigenvectors of Hamiltonian
Converging empty states (this may take a while): |deigs|: 3.088e-10

Computing DFT-D3 correction:
# coordination-number Ag 5.463 6.173 5.463 6.176 6.738 6.738 6.738 6.738 8.993 8.993 8.993 8.993 8.975 8.975 8.975 8.975 8.934 8.934 8.934 8.934 7.506 7.497 7.506 7.497 7.499 7.499 7.499 7.499 8.932 8.932 8.932 8.932 8.979 8.979 8.979 8.979 8.996 8.998 8.996 8.997 6.744 6.744 6.743 6.743 5.455 5.455 5.455 5.455
# coordination-number C 2.427
# coordination-number O 1.029
# diagonal-C6 Ag 268.61 268.61 268.61 268.61 268.61 268.61 268.61 268.61 268.61 268.61 268.61 268.61 268.61 268.61 268.61 268.61 268.61 268.61 268.61 268.61 268.61 268.61 268.61 268.61 268.61 268.61 268.61 268.61 268.61 268.61 268.61 268.61 268.61 268.61 268.61 268.61 268.61 268.61 268.61 268.61 268.61 268.61 268.61 268.61 268.61 268.61 268.61 268.61
# diagonal-C6 C 28.05
# diagonal-C6 O 12.79
EvdW_6 =   -0.276117
EvdW_8 =   -0.385005
IonicMinimize: 	Wolfe criterion not satisfied: alpha: 0.383966  (E-E0)/|gdotd0|: -0.0942528  gdotd/gdotd0: 2.36155 (taking cubic step)

Computing DFT-D3 correction:
# coordination-number Ag 5.463 6.174 5.463 6.176 6.738 6.738 6.738 6.738 8.993 8.993 8.993 8.993 8.975 8.975 8.975 8.975 8.934 8.934 8.934 8.934 7.506 7.497 7.506 7.497 7.499 7.499 7.499 7.499 8.932 8.932 8.932 8.932 8.979 8.979 8.979 8.979 8.996 8.998 8.996 8.997 6.744 6.744 6.743 6.743 5.455 5.455 5.455 5.455
# coordination-number C 2.428
# coordination-number O 1.029
# diagonal-C6 Ag 268.61 268.61 268.61 268.61 268.61 268.61 268.61 268.61 268.61 268.61 268.61 268.61 268.61 268.61 268.61 268.61 268.61 268.61 268.61 268.61 268.61 268.61 268.61 268.61 268.61 268.61 268.61 268.61 268.61 268.61 268.61 268.61 268.61 268.61 268.61 268.61 268.61 268.61 268.61 268.61 268.61 268.61 268.61 268.61 268.61 268.61 268.61 268.61
# diagonal-C6 C 28.04
# diagonal-C6 O 12.79
EvdW_6 =   -0.276117
EvdW_8 =   -0.385006

-------- Electronic minimization -----------
	Linear fluid (dielectric constant: 78.4, screening length: 8.12261 Bohr) occupying 0.501221 of unit cell:	Completed after 3 iterations at t[s]:  45883.74
	FillingsUpdate:  mu: -0.146243211  nElectrons: 922.000000  magneticMoment: [ Abs: 0.00000  Tot: +0.00000 ]
ElecMinimize: Iter:   0  F: -7106.990245013825188  |grad|_K:  4.149e-08  alpha:  1.000e+00
	Linear fluid (dielectric constant: 78.4, screening length: 8.12261 Bohr) occupying 0.501220 of unit cell:	Completed after 6 iterations at t[s]:  46074.61
	Linear fluid (dielectric constant: 78.4, screening length: 8.12261 Bohr) occupying 0.501221 of unit cell:	Completed after 4 iterations at t[s]:  46138.07
	FillingsUpdate:  mu: -0.146255087  nElectrons: 922.000000  magneticMoment: [ Abs: 0.00000  Tot: +0.00000 ]
	SubspaceRotationAdjust: set factor to 0.303
ElecMinimize: Iter:   1  F: -7106.990245309488273  |grad|_K:  1.907e-08  alpha:  2.549e-01  linmin: -9.045e-05  t[s]:  46226.25
	Linear fluid (dielectric constant: 78.4, screening length: 8.12261 Bohr) occupying 0.501221 of unit cell:	Completed after 2 iterations at t[s]:  46315.28
	Linear fluid (dielectric constant: 78.4, screening length: 8.12261 Bohr) occupying 0.501221 of unit cell:	Completed after 0 iterations at t[s]:  46377.04
	FillingsUpdate:  mu: -0.146250057  nElectrons: 922.000000  magneticMoment: [ Abs: 0.00000  Tot: +0.00000 ]
	SubspaceRotationAdjust: set factor to 0.33
ElecMinimize: Iter:   2  F: -7106.990245354981198  |grad|_K:  1.018e-08  alpha:  2.201e-01  linmin: -3.245e-03  t[s]:  46465.56
	Linear fluid (dielectric constant: 78.4, screening length: 8.12261 Bohr) occupying 0.501221 of unit cell:	Completed after 0 iterations at t[s]:  46554.28
	Linear fluid (dielectric constant: 78.4, screening length: 8.12261 Bohr) occupying 0.501221 of unit cell:	Completed after 0 iterations at t[s]:  46616.04
	FillingsUpdate:  mu: -0.146249190  nElectrons: 922.000000  magneticMoment: [ Abs: 0.00000  Tot: +0.00000 ]
	SubspaceRotationAdjust: set factor to 0.352
ElecMinimize: Iter:   3  F: -7106.990245383090951  |grad|_K:  6.676e-09  alpha:  3.306e-01  linmin: -4.747e-03  t[s]:  46704.11
ElecMinimize: Converged (|Delta F|<1.000000e-07 for 2 iters).
Setting wave functions to eigenvectors of Hamiltonian
Converging empty states (this may take a while): |deigs|: 2.944e-10

Computing DFT-D3 correction:
# coordination-number Ag 5.463 6.174 5.463 6.176 6.738 6.738 6.738 6.738 8.993 8.993 8.993 8.993 8.975 8.975 8.975 8.975 8.934 8.934 8.934 8.934 7.506 7.497 7.506 7.497 7.499 7.499 7.499 7.499 8.932 8.932 8.932 8.932 8.979 8.979 8.979 8.979 8.996 8.998 8.996 8.997 6.744 6.744 6.743 6.743 5.455 5.455 5.455 5.455
# coordination-number C 2.428
# coordination-number O 1.029
# diagonal-C6 Ag 268.61 268.61 268.61 268.61 268.61 268.61 268.61 268.61 268.61 268.61 268.61 268.61 268.61 268.61 268.61 268.61 268.61 268.61 268.61 268.61 268.61 268.61 268.61 268.61 268.61 268.61 268.61 268.61 268.61 268.61 268.61 268.61 268.61 268.61 268.61 268.61 268.61 268.61 268.61 268.61 268.61 268.61 268.61 268.61 268.61 268.61 268.61 268.61
# diagonal-C6 C 28.04
# diagonal-C6 O 12.79
EvdW_6 =   -0.276117
EvdW_8 =   -0.385006

# Ionic positions in cartesian coordinates:
ion Ag  10.839213999999998  26.417100999999985  17.976664000000000 0
ion Ag  10.839213999999998  13.139773999999992  17.976664000000000 0
ion Ag   5.418766999999999  26.417100999999985  17.976664000000000 0
ion Ag   5.418766999999999  13.139773999999992  17.976664000000000 0
ion Ag   0.000217000000000   4.519150999999997   2.204173000000000 0
ion Ag   0.000217000000000  17.796477999999993   2.204173000000000 0
ion Ag   5.420663999999999   4.519150999999997   2.204173000000000 0
ion Ag   5.420663999999999  17.796477999999993   2.204173000000000 0
ion Ag   0.000954000000000   8.973428999999994   5.467986999999998 0
ion Ag   0.000954000000000  22.250755999999988   5.467986999999998 0
ion Ag   5.421401000000000   8.973428999999994   5.467986999999998 0
ion Ag   5.421401000000000  22.250755999999988   5.467986999999998 0
ion Ag  10.840016000000000   0.022810000000000   8.601168999999999 0
ion Ag  10.840016000000000  13.300137999999993   8.601168999999999 0
ion Ag   5.419558000000000   0.022810000000000   8.601168999999999 0
ion Ag   5.419558000000000  13.300137999999993   8.601168999999999 0
ion Ag   0.000022000000000   4.389802999999998  11.760488999999996 0
ion Ag   0.000022000000000  17.667103999999988  11.760488999999996 0
ion Ag   5.420469000000000   4.389802999999998  11.760488999999996 0
ion Ag   5.420469000000000  17.667103999999988  11.760488999999996 0
ion Ag   5.421032000000000   8.708757999999996  15.042160000000001 0
ion Ag   5.421032000000000  21.986085999999990  15.042160000000001 0
ion Ag   0.000585000000000   8.708757999999996  15.042160000000001 0
ion Ag   0.000585000000000  21.986085999999990  15.042160000000001 0
ion Ag   2.709595000000000   0.146449000000000   3.735190999999999 0
ion Ag   2.709595000000000  13.423749999999989   3.735190999999999 0
ion Ag   8.130042000000000   0.146449000000000   3.735190999999999 0
ion Ag   8.130042000000000  13.423749999999989   3.735190999999999 0
ion Ag   2.710256000000000   4.461951999999997   7.016861999999997 0
ion Ag   2.710256000000000  17.739278999999993   7.016861999999997 0
ion Ag   8.130702999999999   4.461951999999997   7.016861999999997 0
ion Ag   8.130702999999999  17.739278999999993   7.016861999999997 0
ion Ag   2.711004000000000   8.825173999999995  10.174547999999996 0
ion Ag   2.711004000000000  22.102500999999990  10.174547999999996 0
ion Ag   8.131451000000000   8.825173999999995  10.174547999999996 0
ion Ag   8.131451000000000  22.102500999999990  10.174547999999996 0
ion Ag   2.709269000000000  26.433883999999985  13.312124999999995 0
ion Ag   2.709269000000000  13.156556999999992  13.312124999999995 0
ion Ag   8.129716000000000  26.433883999999985  13.312124999999995 0
ion Ag   8.129716000000000  13.156556999999992  13.312124999999995 0
ion Ag   2.710104000000000   4.330638999999997  16.571093999999999 0
ion Ag   2.710104000000000  17.607966999999988  16.571093999999999 0
ion Ag   8.130540000000000   4.330638999999997  16.571093999999999 0
ion Ag   8.130540000000000  17.607966999999988  16.571093999999999 0
ion Ag   2.711904000000000   8.989520999999995   0.799449000000000 0
ion Ag   2.711904000000000  22.266847999999985   0.799449000000000 0
ion Ag   8.132351000000000   8.989520999999995   0.799449000000000 0
ion Ag   8.132351000000000  22.266847999999985   0.799449000000000 0
ion C   2.710104000000000  10.969302999999993  20.912489675974996 1  Linear 0 0 1
ion O   2.770195000000000  10.969302999999993  23.099786097410984 1  Linear 0 0 1

# Forces in Cartesian coordinates:
force Ag  -0.000034634916045   0.000261910593918   0.000012434577922 0
force Ag  -0.002489229343991  -0.000981743360683   0.003894730132186 0
force Ag   0.000052139445613   0.000255579848862   0.000014184802458 0
force Ag   0.002662457631028  -0.000861125625943   0.003517650726322 0
force Ag  -0.000269131616011   0.000416599610408   0.000009551243448 0
force Ag   0.000046666474121   0.000350953262623   0.000039346491010 0
force Ag   0.000264633704645   0.000428299624926   0.000010182644587 0
force Ag  -0.000050424120045   0.000357177224852   0.000049722949872 0
force Ag  -0.000101479795088  -0.000079342874414  -0.000630272899685 0
force Ag   0.000001217663977  -0.000065181240984  -0.000563334233902 0
force Ag   0.000075525988193  -0.000060450222191  -0.000647162631324 0
force Ag  -0.000007379366364  -0.000083551736156  -0.000542983656014 0
force Ag  -0.000005007777377   0.000370802421930  -0.000090620516315 0
force Ag  -0.000478420462982   0.000350860627388  -0.000203248279029 0
force Ag   0.000004711217365   0.000356482697057  -0.000091414452761 0
force Ag   0.000472724644333   0.000332820921989  -0.000164493774657 0
force Ag   0.000016856483875   0.000004601000166  -0.000247241596846 0
force Ag   0.000169111427833  -0.000166022693497  -0.000260096749244 0
force Ag  -0.000016402257216   0.000014806208157  -0.000247765300808 0
force Ag  -0.000170517517724  -0.000148883544974  -0.000282712924506 0
force Ag   0.001919240994855  -0.001612791062566  -0.002292662627200 0
force Ag   0.000278231086053   0.000095435925058  -0.000313373453093 0
force Ag  -0.001945698946813  -0.001693140106801  -0.002386231031035 0
force Ag  -0.000270059013005   0.000120123846119  -0.000323249494703 0
force Ag  -0.000002880350832  -0.000273015737098   0.000451067435833 0
force Ag   0.000005703991282  -0.000226130297243   0.000214540385966 0
force Ag  -0.000001811652737   0.000216923461136   0.000310204416955 0
force Ag  -0.000013013074107  -0.000387018950541  -0.000258272181285 0
force Ag   0.000001226513664  -0.000273181012793   0.000101756420715 0
force Ag  -0.000005336327964  -0.000529464311027   0.000422897294591 0
force Ag  -0.000000848151109  -0.000321554040577   0.000246217201012 0
force Ag   0.000002477072431  -0.000225321830312  -0.000017153115120 0
force Ag  -0.000004780174565   0.000149739661562   0.001094042246792 0
force Ag  -0.000005753285673  -0.000332531441574   0.000441318728847 0
force Ag  -0.000021655505584  -0.000096358922025  -0.000443988874427 0
force Ag   0.000008072615601   0.000165275870393   0.000419601682654 0
force Ag   0.000012875183316   0.000032170910693   0.000498014381386 0
force Ag  -0.000014561951455   0.001079178455465  -0.003642823839415 0
force Ag  -0.000008184938850   0.000198255675196   0.000257138262863 0
force Ag   0.000028666308294   0.000000272913003   0.001968049699885 0
force Ag  -0.000009838260458  -0.000090530801118   0.000056984179709 0
force Ag  -0.000011781895005   0.001000789828650  -0.000977432081929 0
force Ag   0.000009762067078   0.000096082229994  -0.000097290662213 0
force Ag   0.000028537772653  -0.001674473619437   0.000226922583475 0
force Ag   0.000007206928906  -0.000130565359891   0.000140881139165 0
force Ag  -0.000010767928220  -0.000122394800214   0.000106651631085 0
force Ag  -0.000042715354632  -0.000221125394579  -0.000097891379193 0
force Ag  -0.000004682534127  -0.000579393073849   0.000230570946581 0
force C   0.000024190705350   0.007303119825341  -0.000129208871430 1  Linear 0 0 1
force O  -0.000237480109350  -0.002567988681026   0.000062679451466 1  Linear 0 0 1

# Energy components:
   A_diel =       -0.0033023743212421
   Eewald =    32580.3565186105661269
       EH =    38998.3717733947560191
     Eloc =   -79807.0471303976955824
      Enl =      192.4850021340515411
     EvdW =       -0.6611227212281243
      Exc =     -700.7137352649959894
 Exc_core =       10.0909394739674543
       KE =     1620.1320215237462889
  MuShift =       -0.0000000000008081
-------------------------------------
     Etot =    -7106.9890356211444669
       TS =        0.0012097619461290
-------------------------------------
        F =    -7106.9902453830909508


Dumping 'jdft.fillings' ... done
Dumping 'jdft.wfns' ... done
Dumping 'jdft.fluidState' ... done
Dumping 'jdft.ionpos' ... done
Dumping 'jdft.lattice' ... done
Dumping 'jdft.eigenvals' ... done
Dumping 'jdft.eigStats' ... 
	eMin: -3.530583 at state 0 ( [ +0.000000 +0.000000 +0.000000 ] spin 1 )
	HOMO: -0.146286 at state 12 ( [ +0.333333 +0.000000 +0.000000 ] spin -1 )
	mu  : -0.146249
	LUMO: -0.145181 at state 14 ( [ +0.500000 +0.000000 +0.000000 ] spin -1 )
	eMax: +0.148317 at state 8 ( [ +0.000000 +0.000000 +0.000000 ] spin -1 )
	HOMO-LUMO gap: +0.001105
	Optical gap  : +0.003756 at state 14 ( [ +0.500000 +0.000000 +0.000000 ] spin -1 )
Dumping 'jdft.Ecomponents' ... done
IonicMinimize: Iter:  12  F: -7106.990245383090951  |grad|_K:  1.015e-04  alpha:  1.152e+00  linmin: -3.317e-03  t[s]:  46961.13
IonicMinimize: Converged (|Delta F|<1.000000e-06 for 2 iters).

#--- Lowdin population analysis ---
# oxidation-state Ag +0.096 -0.031 +0.096 -0.031 +0.012 +0.012 +0.012 +0.012 -0.036 -0.035 -0.036 -0.036 -0.003 -0.004 -0.003 -0.004 -0.004 -0.003 -0.004 -0.003 -0.016 -0.024 -0.015 -0.023 -0.026 -0.023 -0.023 -0.025 -0.004 -0.005 -0.002 -0.000 -0.002 -0.003 -0.004 +0.000 -0.036 -0.030 -0.037 -0.039 +0.007 +0.017 +0.013 +0.013 +0.095 +0.097 +0.086 +0.097
# magnetic-moments Ag -0.000 +0.000 -0.000 -0.000 +0.000 -0.000 +0.000 -0.000 -0.000 -0.000 -0.000 +0.000 +0.000 -0.000 +0.000 +0.000 -0.000 +0.000 -0.000 -0.000 -0.000 -0.000 +0.000 -0.000 +0.000 +0.000 +0.000 +0.000 -0.000 -0.000 -0.000 -0.000 -0.000 -0.000 -0.000 +0.000 +0.000 +0.000 +0.000 +0.000 -0.000 -0.000 -0.000 -0.000 +0.000 -0.000 +0.000 +0.000
# oxidation-state C +0.378
# magnetic-moments C -0.000
# oxidation-state O -0.091
# magnetic-moments O -0.000


Dumping 'jdft.n_up' ... done
Dumping 'jdft.n_dn' ... done
Dumping 'jdft.tau_up' ... done
Dumping 'jdft.tau_dn' ... done
Dumping 'jdft.eigenvals' ... done
Dumping 'jdft.eigStats' ... 
	eMin: -3.530583 at state 0 ( [ +0.000000 +0.000000 +0.000000 ] spin 1 )
	HOMO: -0.146286 at state 12 ( [ +0.333333 +0.000000 +0.000000 ] spin -1 )
	mu  : -0.146249
	LUMO: -0.145181 at state 14 ( [ +0.500000 +0.000000 +0.000000 ] spin -1 )
	eMax: +0.148317 at state 8 ( [ +0.000000 +0.000000 +0.000000 ] spin -1 )
	HOMO-LUMO gap: +0.001105
	Optical gap  : +0.003756 at state 14 ( [ +0.500000 +0.000000 +0.000000 ] spin -1 )
Dumping 'jdft.kPts' ... done
Dumping 'jdft.kMap' ... done
Dumping 'jdft.dosUp' ... done.
Dumping 'jdft.dosDn' ... done.
End date and time: Sun Feb 20 11:54:43 2022  (Duration: 0-13:04:52.25)
Done!
