
*************** JDFTx 1.6.0  ***************

Start date and time: Thu Feb 17 04:17:34 2022
Executable /projects/musgravc/apps/jdftx-1.6.1/build/jdftx with command-line: -i in
Running on hosts (process indices):  shas0523.rc.int.colorado.edu (0-23)
Divided in process groups (process indices):  0 (0)  1 (1)  2 (2)  3 (3)  4 (4)  5 (5)  6 (6)  7 (7)  8 (8)  9 (9)  10 (10)  11 (11)  12 (12)  13 (13)  14 (14)  15 (15)  16 (16)  17 (17)  18 (18)  19 (19)  20 (20)  21 (21)  22 (22)  23 (23)
Resource initialization completed at t[s]:      0.00
Run totals: 24 processes, 24 threads, 0 GPUs


Input parsed successfully to the following command list (including defaults):

basis kpoint-dependent
converge-empty-states yes
coords-type Cartesian
core-overlap-check none
coulomb-interaction Periodic
davidson-band-ratio 1.1
density-of-states Etol 1.000000e-06 Esigma 1.000000e-03 \
		Complete \
	Total \
	OrthoOrbital Pt 1   s \
	OrthoOrbital Pt 1   p \
	OrthoOrbital Pt 1   px \
	OrthoOrbital Pt 1   py \
	OrthoOrbital Pt 1   pz \
	OrthoOrbital Pt 1   d \
	OrthoOrbital Pt 1   dxy \
	OrthoOrbital Pt 1   dyz \
	OrthoOrbital Pt 1   dz2 \
	OrthoOrbital Pt 1   dxz \
	OrthoOrbital Pt 1   dx2-y2 \
	OrthoOrbital Pt 2   s \
	OrthoOrbital Pt 2   p \
	OrthoOrbital Pt 2   px \
	OrthoOrbital Pt 2   py \
	OrthoOrbital Pt 2   pz \
	OrthoOrbital Pt 2   d \
	OrthoOrbital Pt 2   dxy \
	OrthoOrbital Pt 2   dyz \
	OrthoOrbital Pt 2   dz2 \
	OrthoOrbital Pt 2   dxz \
	OrthoOrbital Pt 2   dx2-y2 \
	OrthoOrbital Pt 3   s \
	OrthoOrbital Pt 3   p \
	OrthoOrbital Pt 3   px \
	OrthoOrbital Pt 3   py \
	OrthoOrbital Pt 3   pz \
	OrthoOrbital Pt 3   d \
	OrthoOrbital Pt 3   dxy \
	OrthoOrbital Pt 3   dyz \
	OrthoOrbital Pt 3   dz2 \
	OrthoOrbital Pt 3   dxz \
	OrthoOrbital Pt 3   dx2-y2 \
	OrthoOrbital Pt 4   s \
	OrthoOrbital Pt 4   p \
	OrthoOrbital Pt 4   px \
	OrthoOrbital Pt 4   py \
	OrthoOrbital Pt 4   pz \
	OrthoOrbital Pt 4   d \
	OrthoOrbital Pt 4   dxy \
	OrthoOrbital Pt 4   dyz \
	OrthoOrbital Pt 4   dz2 \
	OrthoOrbital Pt 4   dxz \
	OrthoOrbital Pt 4   dx2-y2 \
	OrthoOrbital Pt 5   s \
	OrthoOrbital Pt 5   p \
	OrthoOrbital Pt 5   px \
	OrthoOrbital Pt 5   py \
	OrthoOrbital Pt 5   pz \
	OrthoOrbital Pt 5   d \
	OrthoOrbital Pt 5   dxy \
	OrthoOrbital Pt 5   dyz \
	OrthoOrbital Pt 5   dz2 \
	OrthoOrbital Pt 5   dxz \
	OrthoOrbital Pt 5   dx2-y2 \
	OrthoOrbital Pt 6   s \
	OrthoOrbital Pt 6   p \
	OrthoOrbital Pt 6   px \
	OrthoOrbital Pt 6   py \
	OrthoOrbital Pt 6   pz \
	OrthoOrbital Pt 6   d \
	OrthoOrbital Pt 6   dxy \
	OrthoOrbital Pt 6   dyz \
	OrthoOrbital Pt 6   dz2 \
	OrthoOrbital Pt 6   dxz \
	OrthoOrbital Pt 6   dx2-y2 \
	OrthoOrbital Pt 7   s \
	OrthoOrbital Pt 7   p \
	OrthoOrbital Pt 7   px \
	OrthoOrbital Pt 7   py \
	OrthoOrbital Pt 7   pz \
	OrthoOrbital Pt 7   d \
	OrthoOrbital Pt 7   dxy \
	OrthoOrbital Pt 7   dyz \
	OrthoOrbital Pt 7   dz2 \
	OrthoOrbital Pt 7   dxz \
	OrthoOrbital Pt 7   dx2-y2 \
	OrthoOrbital Pt 8   s \
	OrthoOrbital Pt 8   p \
	OrthoOrbital Pt 8   px \
	OrthoOrbital Pt 8   py \
	OrthoOrbital Pt 8   pz \
	OrthoOrbital Pt 8   d \
	OrthoOrbital Pt 8   dxy \
	OrthoOrbital Pt 8   dyz \
	OrthoOrbital Pt 8   dz2 \
	OrthoOrbital Pt 8   dxz \
	OrthoOrbital Pt 8   dx2-y2 \
	OrthoOrbital Pt 9   s \
	OrthoOrbital Pt 9   p \
	OrthoOrbital Pt 9   px \
	OrthoOrbital Pt 9   py \
	OrthoOrbital Pt 9   pz \
	OrthoOrbital Pt 9   d \
	OrthoOrbital Pt 9   dxy \
	OrthoOrbital Pt 9   dyz \
	OrthoOrbital Pt 9   dz2 \
	OrthoOrbital Pt 9   dxz \
	OrthoOrbital Pt 9   dx2-y2 \
	OrthoOrbital Pt 10   s \
	OrthoOrbital Pt 10   p \
	OrthoOrbital Pt 10   px \
	OrthoOrbital Pt 10   py \
	OrthoOrbital Pt 10   pz \
	OrthoOrbital Pt 10   d \
	OrthoOrbital Pt 10   dxy \
	OrthoOrbital Pt 10   dyz \
	OrthoOrbital Pt 10   dz2 \
	OrthoOrbital Pt 10   dxz \
	OrthoOrbital Pt 10   dx2-y2 \
	OrthoOrbital Pt 11   s \
	OrthoOrbital Pt 11   p \
	OrthoOrbital Pt 11   px \
	OrthoOrbital Pt 11   py \
	OrthoOrbital Pt 11   pz \
	OrthoOrbital Pt 11   d \
	OrthoOrbital Pt 11   dxy \
	OrthoOrbital Pt 11   dyz \
	OrthoOrbital Pt 11   dz2 \
	OrthoOrbital Pt 11   dxz \
	OrthoOrbital Pt 11   dx2-y2 \
	OrthoOrbital Pt 12   s \
	OrthoOrbital Pt 12   p \
	OrthoOrbital Pt 12   px \
	OrthoOrbital Pt 12   py \
	OrthoOrbital Pt 12   pz \
	OrthoOrbital Pt 12   d \
	OrthoOrbital Pt 12   dxy \
	OrthoOrbital Pt 12   dyz \
	OrthoOrbital Pt 12   dz2 \
	OrthoOrbital Pt 12   dxz \
	OrthoOrbital Pt 12   dx2-y2 \
	OrthoOrbital Pt 13   s \
	OrthoOrbital Pt 13   p \
	OrthoOrbital Pt 13   px \
	OrthoOrbital Pt 13   py \
	OrthoOrbital Pt 13   pz \
	OrthoOrbital Pt 13   d \
	OrthoOrbital Pt 13   dxy \
	OrthoOrbital Pt 13   dyz \
	OrthoOrbital Pt 13   dz2 \
	OrthoOrbital Pt 13   dxz \
	OrthoOrbital Pt 13   dx2-y2 \
	OrthoOrbital Pt 14   s \
	OrthoOrbital Pt 14   p \
	OrthoOrbital Pt 14   px \
	OrthoOrbital Pt 14   py \
	OrthoOrbital Pt 14   pz \
	OrthoOrbital Pt 14   d \
	OrthoOrbital Pt 14   dxy \
	OrthoOrbital Pt 14   dyz \
	OrthoOrbital Pt 14   dz2 \
	OrthoOrbital Pt 14   dxz \
	OrthoOrbital Pt 14   dx2-y2 \
	OrthoOrbital Pt 15   s \
	OrthoOrbital Pt 15   p \
	OrthoOrbital Pt 15   px \
	OrthoOrbital Pt 15   py \
	OrthoOrbital Pt 15   pz \
	OrthoOrbital Pt 15   d \
	OrthoOrbital Pt 15   dxy \
	OrthoOrbital Pt 15   dyz \
	OrthoOrbital Pt 15   dz2 \
	OrthoOrbital Pt 15   dxz \
	OrthoOrbital Pt 15   dx2-y2 \
	OrthoOrbital Pt 16   s \
	OrthoOrbital Pt 16   p \
	OrthoOrbital Pt 16   px \
	OrthoOrbital Pt 16   py \
	OrthoOrbital Pt 16   pz \
	OrthoOrbital Pt 16   d \
	OrthoOrbital Pt 16   dxy \
	OrthoOrbital Pt 16   dyz \
	OrthoOrbital Pt 16   dz2 \
	OrthoOrbital Pt 16   dxz \
	OrthoOrbital Pt 16   dx2-y2 \
	OrthoOrbital C 1   s \
	OrthoOrbital C 1   p \
	OrthoOrbital C 1   px \
	OrthoOrbital C 1   py \
	OrthoOrbital C 1   pz \
	OrthoOrbital O 1   s \
	OrthoOrbital O 1   p \
	OrthoOrbital O 1   px \
	OrthoOrbital O 1   py \
	OrthoOrbital O 1   pz
dump End ElecDensity KEdensity BandEigs EigStats RhoAtom DOS Kpoints
dump Ionic State IonicPositions Lattice EigStats Ecomponents
dump 
dump 
dump 
dump 
dump 
dump 
dump 
dump 
dump-name jdft.$VAR
elec-cutoff 20
elec-eigen-algo Davidson
elec-ex-corr gga-PBE
elec-initial-magnetization 0.000000 no
elec-n-bands 160
elec-smearing Fermi 0.001
electronic-minimize  \
	dirUpdateScheme      FletcherReeves \
	linminMethod         DirUpdateRecommended \
	nIterations          100 \
	history              15 \
	knormThreshold       0 \
	energyDiffThreshold  1e-07 \
	nEnergyDiff          2 \
	alphaTstart          1 \
	alphaTmin            1e-10 \
	updateTestStepSize   yes \
	alphaTreduceFactor   0.1 \
	alphaTincreaseFactor 3 \
	nAlphaAdjustMax      3 \
	wolfeEnergy          0.0001 \
	wolfeGradient        0.9 \
	fdTest               no
exchange-regularization WignerSeitzTruncated
fluid LinearPCM 298.000000 1.013250
fluid-anion F- 0.5 MeanFieldLJ \
	epsBulk 1 \
	pMol 0 \
	epsInf 1 \
	Pvap 0 \
	sigmaBulk 0 \
	Rvdw 2.24877 \
	Res 0 \
	tauNuc 343133
fluid-cation Na+ 0.5 MeanFieldLJ \
	epsBulk 1 \
	pMol 0 \
	epsInf 1 \
	Pvap 0 \
	sigmaBulk 0 \
	Rvdw 2.19208 \
	Res 0 \
	tauNuc 343133
fluid-ex-corr lda-TF lda-PZ
fluid-gummel-loop 10 1.000000e-05
fluid-minimize  \
	dirUpdateScheme      PolakRibiere \
	linminMethod         DirUpdateRecommended \
	nIterations          400 \
	history              15 \
	knormThreshold       1e-11 \
	energyDiffThreshold  0 \
	nEnergyDiff          2 \
	alphaTstart          1 \
	alphaTmin            1e-10 \
	updateTestStepSize   yes \
	alphaTreduceFactor   0.1 \
	alphaTincreaseFactor 3 \
	nAlphaAdjustMax      6 \
	wolfeEnergy          0.0001 \
	wolfeGradient        0.9 \
	fdTest               no
fluid-solvent H2O 55.338 ScalarEOS \
	epsBulk 78.4 \
	pMol 0.92466 \
	epsInf 1.77 \
	Pvap 1.06736e-10 \
	sigmaBulk 4.62e-05 \
	Rvdw 2.61727 \
	Res 1.42 \
	tauNuc 343133 \
	poleEl 15 7 1
forces-output-coords Positions
ion Pt  10.463971000000001  10.463971000000001  38.836613999999997 0
ion Pt  10.463971000000001   5.231975000000000  38.836613999999997 0
ion Pt   5.231975000000000  10.463971000000001  38.836613999999997 0
ion Pt   5.231975000000000   5.231975000000000  38.836613999999997 0
ion Pt   2.615977000000000   2.615977000000000  42.501416999999996 0
ion Pt   2.615977000000000   7.847973000000000  42.501416999999996 0
ion Pt   7.847973000000000   2.615977000000000  42.501416999999996 0
ion Pt   7.847973000000000   7.847973000000000  42.501416999999996 0
ion Pt   0.000021000000000   0.000021000000000  31.488006000000002 0
ion Pt   0.000021000000000   5.232006000000000  31.488006000000002 0
ion Pt   5.232006000000000   0.000021000000000  31.488006000000002 0
ion Pt   5.232006000000000   5.232006000000000  31.488006000000002 0
ion Pt   2.616019000000001   2.616019000000001  35.157116000000002 0
ion Pt   2.616019000000001   7.848015000000000  35.157116000000002 0
ion Pt   7.848015000000000   2.616019000000001  35.157116000000002 0
ion Pt   7.848015000000000   7.848015000000000  35.157116000000002 0
ion C   7.847973000000000   5.231975000000000   0.554049000000000 1  Linear 0 0 1
ion O   7.908068000000000   5.231975000000000   2.709424000000000 1  Linear 0 0 1
ion-species /projects/musgravc/apps/jdftx-1.6.0/build/pseudopotentials/GBRV_v1.5/$ID_pbe_v1.uspp
ion-species /projects/musgravc/apps/jdftx-1.6.0/build/pseudopotentials/GBRV_v1.5/$ID_pbe_v1.2.uspp
ion-species /projects/musgravc/apps/jdftx-1.6.0/build/pseudopotentials/GBRV_v1.5/$ID_pbe_v1.4.uspp
ion-species /projects/musgravc/apps/jdftx-1.6.0/build/pseudopotentials/GBRV_v1.5/$ID_pbe_v1.5.uspp
ion-width Ecut
ionic-minimize  \
	dirUpdateScheme      L-BFGS \
	linminMethod         DirUpdateRecommended \
	nIterations          100 \
	history              15 \
	knormThreshold       0.0001 \
	energyDiffThreshold  1e-06 \
	nEnergyDiff          2 \
	alphaTstart          1 \
	alphaTmin            1e-10 \
	updateTestStepSize   yes \
	alphaTreduceFactor   0.1 \
	alphaTincreaseFactor 3 \
	nAlphaAdjustMax      3 \
	wolfeEnergy          0.0001 \
	wolfeGradient        0.9 \
	fdTest               no
kpoint   0.000000000000   0.000000000000   0.000000000000  1.00000000000000
kpoint-folding 6 6 1 
latt-move-scale 0 0 0
latt-scale 1 1 1 
lattice  \
	  10.463991999999999    0.000000000000000    0.000000000000000  \
	   0.000000000000000   10.463991999999999    0.000000000000000  \
	   0.000000000000000    0.000000000000000   44.394950000000001 
lattice-minimize  \
	dirUpdateScheme      L-BFGS \
	linminMethod         DirUpdateRecommended \
	nIterations          0 \
	history              15 \
	knormThreshold       0 \
	energyDiffThreshold  1e-06 \
	nEnergyDiff          2 \
	alphaTstart          1 \
	alphaTmin            1e-10 \
	updateTestStepSize   yes \
	alphaTreduceFactor   0.1 \
	alphaTincreaseFactor 3 \
	nAlphaAdjustMax      3 \
	wolfeEnergy          0.0001 \
	wolfeGradient        0.9 \
	fdTest               no
lcao-params 30 1e-06 0.001
pcm-variant CANDLE
spintype z-spin
subspace-rotation-factor 1 yes
symmetries automatic
symmetry-threshold 0.0001
van-der-waals D3



---------- Setting up symmetries ----------

Found 16 point-group symmetries of the bravais lattice
Found 2 space-group symmetries with basis
Applied RMS atom displacement 1.97603e-05 bohrs to make symmetries exact.

---------- Initializing the Grid ----------
R = 
[       10.464            0            0  ]
[            0       10.464            0  ]
[            0            0       44.395  ]
unit cell volume = 4861.03
G =
[   0.600458          0          0  ]
[          0   0.600458          0  ]
[          0          0   0.141529  ]
Minimum fftbox size, Smin = [  44  44  180  ]
Chosen fftbox size, S = [  48  48  180  ]

---------- Exchange Correlation functional ----------
Initalized PBE GGA exchange.
Initalized PBE GGA correlation.

---------- Setting up pseudopotentials ----------
Width of ionic core gaussian charges (only for fluid interactions / plotting) set to 0.397384

Reading pseudopotential file '/projects/musgravc/apps/jdftx-1.6.0/build/pseudopotentials/GBRV_v1.5/pt_pbe_v1.4.uspp':
  Title: Pt.  Created by USPP 7.3.6 on 31-3-15
  Reference state energy: -105.002503.  16 valence electrons in orbitals:
    |510>  occupation: 6  eigenvalue: -2.158104
    |520>  occupation: 9.5  eigenvalue: -0.335376
    |600>  occupation: 0  eigenvalue: -0.319640
    |610>  occupation: 0  eigenvalue: -0.122947
  lMax: 2  lLocal: 3  QijEcut: 5.5
  6 projectors sampled on a log grid with 745 points:
    l: 0  eig: -0.319640  rCut: 2.45
    l: 0  eig: 1.500000  rCut: 2.45
    l: 1  eig: -2.158104  rCut: 1.6
    l: 1  eig: -0.122947  rCut: 1.6
    l: 2  eig: -0.500000  rCut: 1.6
    l: 2  eig: -0.335375  rCut: 1.6
  Partial core density with radius 1.1
  Transforming core density to a uniform radial grid of dG=0.02 with 1207 points.
  Transforming local potential to a uniform radial grid of dG=0.02 with 1207 points.
  Transforming nonlocal projectors to a uniform radial grid of dG=0.02 with 432 points.
  Transforming density augmentations to a uniform radial grid of dG=0.02 with 1207 points.
  Transforming atomic orbitals to a uniform radial grid of dG=0.02 with 432 points.
  Core radius for overlap checks: 2.45 bohrs.

Reading pseudopotential file '/projects/musgravc/apps/jdftx-1.6.0/build/pseudopotentials/GBRV_v1.5/c_pbe_v1.2.uspp':
  Title: C.  Created by USPP 7.3.6 on 3-2-2014
  Reference state energy: -5.406344.  4 valence electrons in orbitals:
    |200>  occupation: 2  eigenvalue: -0.504890
    |210>  occupation: 2  eigenvalue: -0.194356
  lMax: 1  lLocal: 2  QijEcut: 5
  4 projectors sampled on a log grid with 503 points:
    l: 0  eig: -0.504890  rCut: 1.3
    l: 0  eig: 0.000000  rCut: 1.3
    l: 1  eig: -0.194357  rCut: 1.3
    l: 1  eig: 0.000000  rCut: 1.3
  Partial core density with radius 1.1
  Transforming core density to a uniform radial grid of dG=0.02 with 1207 points.
  Transforming local potential to a uniform radial grid of dG=0.02 with 1207 points.
  Transforming nonlocal projectors to a uniform radial grid of dG=0.02 with 432 points.
  Transforming density augmentations to a uniform radial grid of dG=0.02 with 1207 points.
  Transforming atomic orbitals to a uniform radial grid of dG=0.02 with 432 points.
  Core radius for overlap checks: 1.30 bohrs.

Reading pseudopotential file '/projects/musgravc/apps/jdftx-1.6.0/build/pseudopotentials/GBRV_v1.5/o_pbe_v1.2.uspp':
  Title: O.  Created by USPP 7.3.6 on 3-2-2014
  Reference state energy: -15.894388.  6 valence electrons in orbitals:
    |200>  occupation: 2  eigenvalue: -0.878823
    |210>  occupation: 4  eigenvalue: -0.332131
  lMax: 2  lLocal: 2  QijEcut: 6
  5 projectors sampled on a log grid with 511 points:
    l: 0  eig: -0.878823  rCut: 1.25
    l: 0  eig: 0.000000  rCut: 1.25
    l: 1  eig: -0.332132  rCut: 1.25
    l: 1  eig: 0.000000  rCut: 1.25
    l: 2  eig: 1.000000  rCut: 1.25
  Partial core density with radius 0.7
  Transforming core density to a uniform radial grid of dG=0.02 with 1207 points.
  Transforming local potential to a uniform radial grid of dG=0.02 with 1207 points.
  Transforming nonlocal projectors to a uniform radial grid of dG=0.02 with 432 points.
  Transforming density augmentations to a uniform radial grid of dG=0.02 with 1207 points.
  Transforming atomic orbitals to a uniform radial grid of dG=0.02 with 432 points.
  Core radius for overlap checks: 1.25 bohrs.

Initialized 3 species with 18 total atoms.

Folded 1 k-points by 6x6x1 to 36 k-points.

---------- Setting up k-points, bands, fillings ----------
Adding inversion symmetry to k-mesh for non-inversion-symmetric unit cell.
Reduced to 16 k-points under symmetry. 
Computing the number of bands and number of electrons
Calculating initial fillings.
nElectrons: 266.000000   nBands: 160   nStates: 32

----- Setting up reduced wavefunction bases (one per k-point) -----
average nbasis = 20761.028 , ideal nbasis = 20766.694

----- Initializing Supercell corresponding to k-point mesh -----
Lattice vector linear combinations in supercell:
[   6   0   0  ]
[   0   6   0  ]
[   0   0   1  ]
Supercell lattice vectors:
[  62.784  0  0  ]
[  0  62.784  0  ]
[  0  0  44.395  ]

Initializing DFT-D3 calculator:
	Parameters set for gga-PBE functional
	s6:  1.000  s_r6:  1.217
	s8:  0.722  s_r8:  1.000
	Per-atom parameters loaded for:
	Pt:  sqrtQ[a0]:  5.888  Rcov[a0]:  2.116  CN: [ 0.00 1.92 6.67 ]
	 C:  sqrtQ[a0]:  3.105  Rcov[a0]:  1.417  CN: [ 0.00 0.99 2.00 3.00 3.98 ]
	 O:  sqrtQ[a0]:  2.594  Rcov[a0]:  1.191  CN: [ 0.00 0.99 1.99 ]

Initializing DFT-D2 calculator for fluid / solvation:
	Pt:  C6:  815.23 Eh-a0^6  R0: 3.326 a0 (WARNING: beyond Grimme's data set)
	 C:  C6:   30.35 Eh-a0^6  R0: 2.744 a0
	 O:  C6:   12.14 Eh-a0^6  R0: 2.536 a0

---------- Setting up ewald sum ----------
Optimum gaussian width for ewald sums = 4.174529 bohr.
Real space sum over 605 unit cells with max indices [  5  5  2  ]
Reciprocal space sum over 4477 terms with max indices [  5  5  18  ]

Computing DFT-D3 correction:
# coordination-number Pt 9.613 9.621 9.613 9.621 6.480 6.480 7.504 7.504 6.437 6.437 6.437 6.437 9.605 9.605 9.605 9.605
# coordination-number C 3.082
# coordination-number O 1.140
# diagonal-C6 Pt 336.87 336.87 336.87 336.87 336.87 336.87 336.87 336.87 336.87 336.87 336.87 336.87 336.87 336.87 336.87 336.87
# diagonal-C6 C 25.49
# diagonal-C6 O 12.68
EvdW_6 =   -0.119404
EvdW_8 =   -0.210043

---------- Allocating electronic variables ----------
Initializing wave functions:  linear combination of atomic orbitals
Pt pseudo-atom occupations:   s ( 0 )  p ( 6 0 )  d ( 10 )
C pseudo-atom occupations:   s ( 2 )  p ( 2 )
O pseudo-atom occupations:   s ( 2 )  p ( 4 )
	FillingsUpdate:  mu: -0.773365225  nElectrons: 266.000000  magneticMoment: [ Abs: 0.00340  Tot: +0.00012 ]
LCAOMinimize: Iter:   0  F: -1434.4395572084906689  |grad|_K:  1.549e-02  alpha:  1.000e+00
LCAOMinimize: 	Step increased F by 5.930779e+01, reducing alpha to 2.073120e-02.
	FillingsUpdate:  mu: -0.479434718  nElectrons: 266.000000  magneticMoment: [ Abs: 0.00297  Tot: +0.00005 ]
LCAOMinimize: Iter:   1  F: -1439.6999615669624291  |grad|_K:  9.875e-03  alpha:  2.073e-02  linmin: -1.600e-01  cgtest:  8.421e-01  t[s]:     54.25
LCAOMinimize: Encountered beta<0, resetting CG.
	FillingsUpdate:  mu: +0.241975126  nElectrons: 266.000000  magneticMoment: [ Abs: 0.00267  Tot: -0.00004 ]
LCAOMinimize: Iter:   2  F: -1441.9719038035386802  |grad|_K:  1.243e-02  alpha:  5.752e-02  linmin:  4.468e-02  cgtest: -2.099e-01  t[s]:     70.99
	FillingsUpdate:  mu: +0.322881393  nElectrons: 266.000000  magneticMoment: [ Abs: 0.00260  Tot: +0.00018 ]
LCAOMinimize: Iter:   3  F: -1442.4985874077449353  |grad|_K:  8.904e-03  alpha:  8.888e-03  linmin: -1.417e-02  cgtest:  9.111e-01  t[s]:     87.74
LCAOMinimize: Encountered beta<0, resetting CG.
	FillingsUpdate:  mu: +0.174814021  nElectrons: 266.000000  magneticMoment: [ Abs: 0.00256  Tot: +0.00009 ]
LCAOMinimize: Iter:   4  F: -1443.2567904724214713  |grad|_K:  5.690e-03  alpha:  1.513e-02  linmin:  1.862e-04  cgtest: -2.342e-03  t[s]:    104.43
	FillingsUpdate:  mu: -0.099949085  nElectrons: 266.000000  magneticMoment: [ Abs: 0.00255  Tot: -0.00015 ]
LCAOMinimize: Iter:   5  F: -1444.0358969304800212  |grad|_K:  2.950e-03  alpha:  4.518e-02  linmin:  6.182e-02  cgtest: -2.010e-01  t[s]:    121.18
	FillingsUpdate:  mu: +0.159863406  nElectrons: 266.000000  magneticMoment: [ Abs: 0.00237  Tot: +0.00017 ]
LCAOMinimize: Iter:   6  F: -1444.4929548598802285  |grad|_K:  2.010e-03  alpha:  1.348e-01  linmin:  1.816e-02  cgtest:  4.895e-01  t[s]:    137.90
	FillingsUpdate:  mu: +0.137826255  nElectrons: 266.000000  magneticMoment: [ Abs: 0.00234  Tot: +0.00018 ]
LCAOMinimize: Iter:   7  F: -1444.5644305221183004  |grad|_K:  1.308e-03  alpha:  2.168e-02  linmin: -7.863e-02  cgtest:  4.738e-01  t[s]:    154.69
	FillingsUpdate:  mu: +0.181167113  nElectrons: 266.000000  magneticMoment: [ Abs: 0.00230  Tot: +0.00018 ]
LCAOMinimize: Iter:   8  F: -1444.6324414779705876  |grad|_K:  1.578e-03  alpha:  6.283e-02  linmin:  1.737e-02  cgtest: -1.666e-01  t[s]:    171.45
	FillingsUpdate:  mu: +0.177588812  nElectrons: 266.000000  magneticMoment: [ Abs: 0.00227  Tot: +0.00013 ]
LCAOMinimize: Iter:   9  F: -1444.6601729395326856  |grad|_K:  1.073e-03  alpha:  1.821e-02  linmin: -1.433e-02  cgtest:  7.354e-01  t[s]:    188.26
LCAOMinimize: Encountered beta<0, resetting CG.
	FillingsUpdate:  mu: +0.142407021  nElectrons: 266.000000  magneticMoment: [ Abs: 0.00227  Tot: +0.00012 ]
LCAOMinimize: Iter:  10  F: -1444.6882025603442798  |grad|_K:  9.030e-04  alpha:  3.697e-02  linmin: -7.205e-03  cgtest:  2.819e-02  t[s]:    204.99
	FillingsUpdate:  mu: +0.106131142  nElectrons: 266.000000  magneticMoment: [ Abs: 0.00227  Tot: +0.00010 ]
LCAOMinimize: Iter:  11  F: -1444.7027545493865546  |grad|_K:  5.238e-04  alpha:  2.696e-02  linmin: -1.355e-03  cgtest: -1.123e-01  t[s]:    221.77
LCAOMinimize: 	Predicted alpha/alphaT>3.000000, increasing alphaT to 8.087778e-02.
	FillingsUpdate:  mu: +0.097332335  nElectrons: 266.000000  magneticMoment: [ Abs: 0.00221  Tot: +0.00006 ]
LCAOMinimize: Iter:  12  F: -1444.7452392870279709  |grad|_K:  7.023e-04  alpha:  2.381e-01  linmin:  2.388e-04  cgtest:  6.504e-02  t[s]:    243.30
	FillingsUpdate:  mu: +0.093153093  nElectrons: 266.000000  magneticMoment: [ Abs: 0.00221  Tot: +0.00006 ]
LCAOMinimize: Iter:  13  F: -1444.7535061232838416  |grad|_K:  4.329e-04  alpha:  2.205e-02  linmin: -1.821e-02  cgtest:  2.687e-01  t[s]:    260.05
	FillingsUpdate:  mu: +0.118354386  nElectrons: 266.000000  magneticMoment: [ Abs: 0.00221  Tot: +0.00008 ]
LCAOMinimize: Iter:  14  F: -1444.7599303809381581  |grad|_K:  3.457e-04  alpha:  4.902e-02  linmin:  2.436e-03  cgtest: -1.864e-01  t[s]:    276.85
	FillingsUpdate:  mu: +0.126779729  nElectrons: 266.000000  magneticMoment: [ Abs: 0.00221  Tot: +0.00009 ]
LCAOMinimize: Iter:  15  F: -1444.7621633705591648  |grad|_K:  2.804e-04  alpha:  2.962e-02  linmin: -6.771e-05  cgtest:  1.198e-01  t[s]:    293.62
	FillingsUpdate:  mu: +0.126758598  nElectrons: 266.000000  magneticMoment: [ Abs: 0.00222  Tot: +0.00010 ]
LCAOMinimize: Iter:  16  F: -1444.7658031873993423  |grad|_K:  1.073e-04  alpha:  7.173e-02  linmin:  7.403e-04  cgtest: -1.278e-01  t[s]:    310.40
	FillingsUpdate:  mu: +0.124953049  nElectrons: 266.000000  magneticMoment: [ Abs: 0.00222  Tot: +0.00010 ]
LCAOMinimize: Iter:  17  F: -1444.7659384166161090  |grad|_K:  5.049e-05  alpha:  1.853e-02  linmin:  2.926e-03  cgtest: -1.896e-02  t[s]:    327.21
LCAOMinimize: 	Predicted alpha/alphaT>3.000000, increasing alphaT to 5.559555e-02.
	FillingsUpdate:  mu: +0.122238006  nElectrons: 266.000000  magneticMoment: [ Abs: 0.00223  Tot: +0.00010 ]
LCAOMinimize: Iter:  18  F: -1444.7660365817612274  |grad|_K:  3.624e-05  alpha:  6.029e-02  linmin: -6.517e-05  cgtest:  2.267e-02  t[s]:    348.72
	FillingsUpdate:  mu: +0.121770981  nElectrons: 266.000000  magneticMoment: [ Abs: 0.00224  Tot: +0.00011 ]
LCAOMinimize: Iter:  19  F: -1444.7661102461972860  |grad|_K:  4.671e-05  alpha:  8.671e-02  linmin: -9.046e-06  cgtest: -7.374e-03  t[s]:    365.50
	FillingsUpdate:  mu: +0.122051287  nElectrons: 266.000000  magneticMoment: [ Abs: 0.00224  Tot: +0.00012 ]
LCAOMinimize: Iter:  20  F: -1444.7661428658032037  |grad|_K:  2.247e-05  alpha:  2.278e-02  linmin: -1.656e-03  cgtest:  2.866e-02  t[s]:    382.29
LCAOMinimize: 	Predicted alpha/alphaT>3.000000, increasing alphaT to 6.832519e-02.
	FillingsUpdate:  mu: +0.122181388  nElectrons: 266.000000  magneticMoment: [ Abs: 0.00225  Tot: +0.00013 ]
LCAOMinimize: Iter:  21  F: -1444.7661786771095649  |grad|_K:  1.786e-05  alpha:  1.084e-01  linmin:  2.415e-05  cgtest: -3.116e-02  t[s]:    403.75
	FillingsUpdate:  mu: +0.121954572  nElectrons: 266.000000  magneticMoment: [ Abs: 0.00226  Tot: +0.00014 ]
LCAOMinimize: Iter:  22  F: -1444.7661857272969428  |grad|_K:  1.675e-05  alpha:  3.418e-02  linmin: -1.921e-05  cgtest:  3.697e-03  t[s]:    420.50
	FillingsUpdate:  mu: +0.121401831  nElectrons: 266.000000  magneticMoment: [ Abs: 0.00227  Tot: +0.00014 ]
LCAOMinimize: Iter:  23  F: -1444.7661926061994109  |grad|_K:  9.776e-06  alpha:  3.791e-02  linmin: -1.528e-04  cgtest:  9.873e-04  t[s]:    437.26
LCAOMinimize: 	Predicted alpha/alphaT>3.000000, increasing alphaT to 1.137366e-01.
	FillingsUpdate:  mu: +0.121870701  nElectrons: 266.000000  magneticMoment: [ Abs: 0.00228  Tot: +0.00016 ]
LCAOMinimize: Iter:  24  F: -1444.7662004827802775  |grad|_K:  9.542e-06  alpha:  1.274e-01  linmin:  2.875e-05  cgtest: -2.182e-03  t[s]:    458.70
	FillingsUpdate:  mu: +0.121981402  nElectrons: 266.000000  magneticMoment: [ Abs: 0.00228  Tot: +0.00016 ]
LCAOMinimize: Iter:  25  F: -1444.7662016841538843  |grad|_K:  5.316e-06  alpha:  2.038e-02  linmin: -1.813e-04  cgtest:  4.045e-03  t[s]:    475.41
LCAOMinimize: 	Predicted alpha/alphaT>3.000000, increasing alphaT to 6.115416e-02.
	FillingsUpdate:  mu: +0.122287866  nElectrons: 266.000000  magneticMoment: [ Abs: 0.00229  Tot: +0.00017 ]
LCAOMinimize: Iter:  26  F: -1444.7662028261815976  |grad|_K:  3.622e-06  alpha:  6.241e-02  linmin:  4.793e-05  cgtest: -5.512e-03  t[s]:    496.84
	FillingsUpdate:  mu: +0.122175034  nElectrons: 266.000000  magneticMoment: [ Abs: 0.00229  Tot: +0.00018 ]
LCAOMinimize: Iter:  27  F: -1444.7662035310793271  |grad|_K:  4.405e-06  alpha:  8.315e-02  linmin: -9.942e-06  cgtest:  1.532e-03  t[s]:    513.74
	FillingsUpdate:  mu: +0.122123908  nElectrons: 266.000000  magneticMoment: [ Abs: 0.00230  Tot: +0.00018 ]
LCAOMinimize: Iter:  28  F: -1444.7662038195703644  |grad|_K:  2.340e-06  alpha:  2.298e-02  linmin: -6.696e-06  cgtest: -9.516e-04  t[s]:    530.51
LCAOMinimize: Converged (|Delta F|<1.000000e-06 for 2 iters).
----- createFluidSolver() ----- (Fluid-side solver setup)
   Initializing fluid molecule 'H2O'
     Initializing site 'O'
       Electron density: proportional to exp(-r/0.36935)*erfc((r-0.51523)/0.36823) with norm 6.826
       Charge density: gaussian nuclear width 0.478731 with net site charge 0.826
       Polarizability: cuspless exponential with width 0.32 and norm 3.73
       Hard sphere radius: 2.57003 bohrs
       Positions in reference frame:
         [ +0.000000 +0.000000 +0.000000 ]
     Initializing site 'H'
       Electron density: proportional to exp(-r/0.34641)*erfc((r-0)/0.390882) with norm 0.587
       Charge density: gaussian nuclear width 0.377945 with net site charge -0.413
       Polarizability: cuspless exponential with width 0.39 and norm 3.3
       Positions in reference frame:
         [ +0.000000 -1.441945 +1.122523 ]
         [ +0.000000 +1.441945 +1.122523 ]
     Net charge: 0   dipole magnitude: 0.927204
     Initializing spherical shell mfKernel with radius 2.61727 Bohr
     deltaS corrections:
       site 'O': -7.54299
       site 'H': -6.83917
   Initializing fluid molecule 'Na+'
     Initializing site 'Na'
       Electron density: proportional to exp(-r/0.19682)*erfc((r-0.71491)/0.41314) with norm 8.1383
       Charge density: gaussian nuclear width 0.365347 with net site charge -1
       Hard sphere radius: 1.86327 bohrs
       Positions in reference frame:
         [ +0.000000 +0.000000 +0.000000 ]
     Net charge: -1   dipole magnitude: 0
     Initializing gaussian mfKernel with width: 1.55004 Bohr
     deltaS corrections:
       site 'Na': -22.3555
   Initializing fluid molecule 'F-'
     Initializing site 'F'
       Electron density: proportional to exp(-r/0.38886)*erfc((r-0)/0.438782) with norm 8
       Charge density: gaussian nuclear width 0.374796 with net site charge 1
       Hard sphere radius: 2.39995 bohrs
       Positions in reference frame:
         [ +0.000000 +0.000000 +0.000000 ]
     Net charge: 1   dipole magnitude: 0
     Initializing gaussian mfKernel with width: 1.59012 Bohr
     deltaS corrections:
       site 'F': -9.04335

Correction to mu due to finite nuclear width = -0.0542941
   Cavity determined by nc: 0.00142 and sigma: 0.707107
   Nonlocal vdW cavity from gaussian model electron density with norm = 8 and sigma = 0.993594 bohr
   Charge asymmetry in cavity with sensitivity pCavity = 36.5 e-bohr/Eh
   Electrostatic cavity expanded by eta = 1.46 bohrs
   Weighted density cavitation model constrained by Nbulk: 0.0049383 bohr^-3, Pvap: 3.14029 kPa, Rvdw: 2.61727 bohr and sigmaBulk: 4.62e-05 Eh/bohr^2 at T: 298 K.
   Weighted density dispersion model using vdW pair potentials with single solvent site with sqrtC6eff: 0.77 SI.


---- Citations for features of the code used in this run ----

   Software package:
      R. Sundararaman, K. Letchworth-Weaver, K.A. Schwarz, D. Gunceler, Y. Ozhabes and T.A. Arias, 'JDFTx: software for joint density-functional theory', SoftwareX 6, 278 (2017)

   gga-PBE exchange-correlation functional:
      J.P. Perdew, K. Burke and M. Ernzerhof, Phys. Rev. Lett. 77, 3865 (1996)

   Pseudopotentials:
      KF Garrity, JW Bennett, KM Rabe and D Vanderbilt, Comput. Mater. Sci. 81, 446 (2014)

   DFT-D3 dispersion correction:
      S. Grimme, J. Antony, S. Ehrlich and H. Krieg, J. Chem. Phys. 132, 154104 (2010)

   DFT-D2 dispersion correction:
      S. Grimme, J. Comput. Chem. 27, 1787 (2006)

   Charge-asymmetric nonlocally-determined local-electric (CANDLE) solvation model:
      R. Sundararaman and W.A. Goddard III, J. Chem. Phys. 142, 064107 (2015)

   Total energy minimization with Auxiliary Hamiltonian:
      C. Freysoldt, S. Boeck, and J. Neugebauer, Phys. Rev. B 79, 241103(R) (2009)

   Linear-tetrahedron sampling for density of states:
      G. Lehmann and M. Taut, Phys. status solidi (b) 54, 469 (1972)

This list may not be complete. Please suggest additional citations or
report any other bugs at https://github.com/shankar1729/jdftx/issues

Initialization completed successfully at t[s]:    535.98


Computing DFT-D3 correction:
# coordination-number Pt 9.613 9.621 9.613 9.621 6.480 6.480 7.504 7.504 6.437 6.437 6.437 6.437 9.605 9.605 9.605 9.605
# coordination-number C 3.082
# coordination-number O 1.140
# diagonal-C6 Pt 336.87 336.87 336.87 336.87 336.87 336.87 336.87 336.87 336.87 336.87 336.87 336.87 336.87 336.87 336.87 336.87
# diagonal-C6 C 25.49
# diagonal-C6 O 12.68
EvdW_6 =   -0.119404
EvdW_8 =   -0.210043
Fluid solver invoked on fresh (random / LCAO) wavefunctions
Running a vacuum solve first:

-------- Initial electronic minimization -----------
	FillingsUpdate:  mu: +0.122123910  nElectrons: 266.000000  magneticMoment: [ Abs: 0.00230  Tot: +0.00018 ]
ElecMinimize: Iter:   0  F: -1444.766203819570592  |grad|_K:  8.253e-05  alpha:  1.000e+00
	FillingsUpdate:  mu: +0.159565931  nElectrons: 266.000000  magneticMoment: [ Abs: 0.00178  Tot: +0.00021 ]
	SubspaceRotationAdjust: set factor to 0.999
ElecMinimize: Iter:   1  F: -1445.076612764333049  |grad|_K:  4.209e-05  alpha:  4.336e-01  linmin:  9.167e-05  t[s]:    572.74
	FillingsUpdate:  mu: +0.177609996  nElectrons: 266.000000  magneticMoment: [ Abs: 0.00163  Tot: +0.00020 ]
	SubspaceRotationAdjust: set factor to 0.543
ElecMinimize: Iter:   2  F: -1445.100841136937333  |grad|_K:  1.027e-04  alpha:  1.367e-01  linmin:  1.363e-04  t[s]:    595.74
	FillingsUpdate:  mu: +0.120559701  nElectrons: 266.000000  magneticMoment: [ Abs: 0.00139  Tot: +0.00022 ]
	SubspaceRotationAdjust: set factor to 0.439
ElecMinimize: Iter:   3  F: -1445.137926583637864  |grad|_K:  3.428e-05  alpha:  3.563e-02  linmin:  1.399e-04  t[s]:    618.76
ElecMinimize: 	Predicted alpha/alphaT>3.000000, increasing alphaT to 1.068951e-01.
	FillingsUpdate:  mu: +0.145016239  nElectrons: 266.000000  magneticMoment: [ Abs: 0.00125  Tot: +0.00025 ]
	SubspaceRotationAdjust: set factor to 0.348
ElecMinimize: Iter:   4  F: -1445.151354593516317  |grad|_K:  2.810e-05  alpha:  1.106e-01  linmin:  9.615e-05  t[s]:    648.77
	FillingsUpdate:  mu: +0.150688875  nElectrons: 266.000000  magneticMoment: [ Abs: 0.00119  Tot: +0.00025 ]
	SubspaceRotationAdjust: set factor to 0.247
ElecMinimize: Iter:   5  F: -1445.155372526745623  |grad|_K:  1.955e-05  alpha:  4.749e-02  linmin: -7.150e-05  t[s]:    671.81
ElecMinimize: 	Predicted alpha/alphaT>3.000000, increasing alphaT to 1.424584e-01.
	FillingsUpdate:  mu: +0.150883148  nElectrons: 266.000000  magneticMoment: [ Abs: 0.00097  Tot: +0.00026 ]
	SubspaceRotationAdjust: set factor to 0.16
ElecMinimize: Iter:   6  F: -1445.163907799344315  |grad|_K:  1.854e-05  alpha:  2.055e-01  linmin:  3.675e-06  t[s]:    701.01
	FillingsUpdate:  mu: +0.143017932  nElectrons: 266.000000  magneticMoment: [ Abs: 0.00090  Tot: +0.00027 ]
	SubspaceRotationAdjust: set factor to 0.13
	SubspaceRotationAdjust: resetting CG because factor has changed by 0.130323
ElecMinimize: 	State modified externally: resetting search direction.
ElecMinimize: Iter:   7  F: -1445.166125334377512  |grad|_K:  8.969e-06  alpha:  6.156e-02
ElecMinimize: 	Predicted alpha/alphaT>3.000000, increasing alphaT to 1.846853e-01.
	FillingsUpdate:  mu: +0.141885224  nElectrons: 266.000000  magneticMoment: [ Abs: 0.00082  Tot: +0.00027 ]
	SubspaceRotationAdjust: set factor to 0.184
ElecMinimize: Iter:   8  F: -1445.168672026237346  |grad|_K:  5.512e-06  alpha:  2.967e-01  linmin: -3.705e-05  t[s]:    765.53
	FillingsUpdate:  mu: +0.141443260  nElectrons: 266.000000  magneticMoment: [ Abs: 0.00076  Tot: +0.00027 ]
	SubspaceRotationAdjust: set factor to 0.137
ElecMinimize: Iter:   9  F: -1445.169443301821730  |grad|_K:  6.280e-06  alpha:  2.380e-01  linmin: -1.189e-05  t[s]:    788.55
	FillingsUpdate:  mu: +0.142802300  nElectrons: 266.000000  magneticMoment: [ Abs: 0.00064  Tot: +0.00027 ]
	SubspaceRotationAdjust: set factor to 0.074
ElecMinimize: Iter:  10  F: -1445.170459644821449  |grad|_K:  3.505e-06  alpha:  2.414e-01  linmin: -3.615e-06  t[s]:    811.55
	FillingsUpdate:  mu: +0.142819405  nElectrons: 266.000000  magneticMoment: [ Abs: 0.00057  Tot: +0.00027 ]
	SubspaceRotationAdjust: set factor to 0.0462
ElecMinimize: Iter:  11  F: -1445.170890750970557  |grad|_K:  2.968e-06  alpha:  3.289e-01  linmin:  3.814e-06  t[s]:    834.58
	FillingsUpdate:  mu: +0.142990766  nElectrons: 266.000000  magneticMoment: [ Abs: 0.00053  Tot: +0.00027 ]
	SubspaceRotationAdjust: set factor to 0.0422
ElecMinimize: Iter:  12  F: -1445.171187469876486  |grad|_K:  1.668e-06  alpha:  3.157e-01  linmin:  5.999e-06  t[s]:    857.58
	FillingsUpdate:  mu: +0.143369805  nElectrons: 266.000000  magneticMoment: [ Abs: 0.00051  Tot: +0.00027 ]
	SubspaceRotationAdjust: set factor to 0.0486
ElecMinimize: Iter:  13  F: -1445.171341096771584  |grad|_K:  1.139e-06  alpha:  5.179e-01  linmin:  9.616e-06  t[s]:    880.67
	FillingsUpdate:  mu: +0.143145439  nElectrons: 266.000000  magneticMoment: [ Abs: 0.00050  Tot: +0.00027 ]
	SubspaceRotationAdjust: set factor to 0.0465
ElecMinimize: Iter:  14  F: -1445.171396453222314  |grad|_K:  8.709e-07  alpha:  4.001e-01  linmin:  6.590e-07  t[s]:    903.80
	FillingsUpdate:  mu: +0.143019566  nElectrons: 266.000000  magneticMoment: [ Abs: 0.00048  Tot: +0.00027 ]
	SubspaceRotationAdjust: set factor to 0.0524
ElecMinimize: Iter:  15  F: -1445.171443951562424  |grad|_K:  7.786e-07  alpha:  5.872e-01  linmin:  6.278e-06  t[s]:    926.81
	FillingsUpdate:  mu: +0.142977122  nElectrons: 266.000000  magneticMoment: [ Abs: 0.00048  Tot: +0.00027 ]
	SubspaceRotationAdjust: set factor to 0.0615
ElecMinimize: Iter:  16  F: -1445.171481034250746  |grad|_K:  6.661e-07  alpha:  5.736e-01  linmin:  3.822e-06  t[s]:    949.94
	FillingsUpdate:  mu: +0.142962062  nElectrons: 266.000000  magneticMoment: [ Abs: 0.00047  Tot: +0.00027 ]
	SubspaceRotationAdjust: set factor to 0.0679
ElecMinimize: Iter:  17  F: -1445.171505697848488  |grad|_K:  6.131e-07  alpha:  5.212e-01  linmin:  1.253e-06  t[s]:    972.97
	FillingsUpdate:  mu: +0.143152782  nElectrons: 266.000000  magneticMoment: [ Abs: 0.00045  Tot: +0.00028 ]
	SubspaceRotationAdjust: set factor to 0.0692
ElecMinimize: Iter:  18  F: -1445.171527906004940  |grad|_K:  6.540e-07  alpha:  5.538e-01  linmin:  9.663e-07  t[s]:    995.97
	FillingsUpdate:  mu: +0.143095009  nElectrons: 266.000000  magneticMoment: [ Abs: 0.00043  Tot: +0.00028 ]
	SubspaceRotationAdjust: set factor to 0.07
ElecMinimize: Iter:  19  F: -1445.171553359098198  |grad|_K:  6.164e-07  alpha:  5.579e-01  linmin:  3.722e-07  t[s]:   1018.98
	FillingsUpdate:  mu: +0.143028045  nElectrons: 266.000000  magneticMoment: [ Abs: 0.00040  Tot: +0.00028 ]
	SubspaceRotationAdjust: set factor to 0.0718
ElecMinimize: Iter:  20  F: -1445.171577989366824  |grad|_K:  5.719e-07  alpha:  6.075e-01  linmin: -3.088e-07  t[s]:   1041.99
	FillingsUpdate:  mu: +0.142927249  nElectrons: 266.000000  magneticMoment: [ Abs: 0.00038  Tot: +0.00028 ]
	SubspaceRotationAdjust: set factor to 0.0749
ElecMinimize: Iter:  21  F: -1445.171593785133382  |grad|_K:  4.366e-07  alpha:  4.527e-01  linmin: -3.745e-07  t[s]:   1065.01
	FillingsUpdate:  mu: +0.142942593  nElectrons: 266.000000  magneticMoment: [ Abs: 0.00036  Tot: +0.00028 ]
	SubspaceRotationAdjust: set factor to 0.0797
ElecMinimize: Iter:  22  F: -1445.171604401821014  |grad|_K:  3.548e-07  alpha:  5.219e-01  linmin: -1.283e-06  t[s]:   1088.07
	FillingsUpdate:  mu: +0.142923682  nElectrons: 266.000000  magneticMoment: [ Abs: 0.00034  Tot: +0.00028 ]
	SubspaceRotationAdjust: set factor to 0.0846
ElecMinimize: Iter:  23  F: -1445.171612047974349  |grad|_K:  2.885e-07  alpha:  5.691e-01  linmin: -1.266e-06  t[s]:   1111.08
	FillingsUpdate:  mu: +0.142887758  nElectrons: 266.000000  magneticMoment: [ Abs: 0.00033  Tot: +0.00027 ]
	SubspaceRotationAdjust: set factor to 0.0874
ElecMinimize: Iter:  24  F: -1445.171616407555121  |grad|_K:  2.260e-07  alpha:  4.907e-01  linmin: -8.229e-07  t[s]:   1134.12
	FillingsUpdate:  mu: +0.142951750  nElectrons: 266.000000  magneticMoment: [ Abs: 0.00032  Tot: +0.00027 ]
	SubspaceRotationAdjust: set factor to 0.0815
ElecMinimize: Iter:  25  F: -1445.171618634545439  |grad|_K:  1.918e-07  alpha:  4.086e-01  linmin: -4.584e-07  t[s]:   1157.16
	FillingsUpdate:  mu: +0.142940359  nElectrons: 266.000000  magneticMoment: [ Abs: 0.00032  Tot: +0.00027 ]
	SubspaceRotationAdjust: set factor to 0.0673
ElecMinimize: Iter:  26  F: -1445.171619982209904  |grad|_K:  1.532e-07  alpha:  3.435e-01  linmin: -6.784e-07  t[s]:   1180.26
	FillingsUpdate:  mu: +0.142967566  nElectrons: 266.000000  magneticMoment: [ Abs: 0.00031  Tot: +0.00027 ]
	SubspaceRotationAdjust: set factor to 0.0658
ElecMinimize: Iter:  27  F: -1445.171620908269460  |grad|_K:  1.165e-07  alpha:  3.696e-01  linmin:  3.939e-07  t[s]:   1203.27
	FillingsUpdate:  mu: +0.142972176  nElectrons: 266.000000  magneticMoment: [ Abs: 0.00030  Tot: +0.00027 ]
	SubspaceRotationAdjust: set factor to 0.0783
ElecMinimize: Iter:  28  F: -1445.171621636075315  |grad|_K:  9.110e-08  alpha:  5.028e-01  linmin:  4.228e-07  t[s]:   1226.29
	FillingsUpdate:  mu: +0.142983872  nElectrons: 266.000000  magneticMoment: [ Abs: 0.00030  Tot: +0.00026 ]
	SubspaceRotationAdjust: set factor to 0.0816
ElecMinimize: Iter:  29  F: -1445.171622048505924  |grad|_K:  7.838e-08  alpha:  4.658e-01  linmin:  2.730e-07  t[s]:   1249.35
	FillingsUpdate:  mu: +0.143010214  nElectrons: 266.000000  magneticMoment: [ Abs: 0.00030  Tot: +0.00026 ]
	SubspaceRotationAdjust: set factor to 0.0716
ElecMinimize: Iter:  30  F: -1445.171622271801425  |grad|_K:  6.682e-08  alpha:  3.406e-01  linmin:  5.118e-07  t[s]:   1272.35
	FillingsUpdate:  mu: +0.143001472  nElectrons: 266.000000  magneticMoment: [ Abs: 0.00029  Tot: +0.00026 ]
	SubspaceRotationAdjust: set factor to 0.0738
ElecMinimize: Iter:  31  F: -1445.171622476941820  |grad|_K:  5.358e-08  alpha:  4.306e-01  linmin: -5.100e-07  t[s]:   1295.39
	FillingsUpdate:  mu: +0.143003457  nElectrons: 266.000000  magneticMoment: [ Abs: 0.00029  Tot: +0.00026 ]
	SubspaceRotationAdjust: set factor to 0.0855
ElecMinimize: Iter:  32  F: -1445.171622644442778  |grad|_K:  4.532e-08  alpha:  5.467e-01  linmin: -3.580e-07  t[s]:   1318.38
	FillingsUpdate:  mu: +0.143016655  nElectrons: 266.000000  magneticMoment: [ Abs: 0.00028  Tot: +0.00025 ]
	SubspaceRotationAdjust: set factor to 0.0873
ElecMinimize: Iter:  33  F: -1445.171622756018905  |grad|_K:  4.292e-08  alpha:  5.089e-01  linmin: -5.168e-07  t[s]:   1341.39
	FillingsUpdate:  mu: +0.143012430  nElectrons: 266.000000  magneticMoment: [ Abs: 0.00028  Tot: +0.00025 ]
	SubspaceRotationAdjust: set factor to 0.0706
ElecMinimize: Iter:  34  F: -1445.171622822229210  |grad|_K:  3.728e-08  alpha:  3.371e-01  linmin:  4.950e-07  t[s]:   1364.43
	FillingsUpdate:  mu: +0.143019214  nElectrons: 266.000000  magneticMoment: [ Abs: 0.00027  Tot: +0.00025 ]
	SubspaceRotationAdjust: set factor to 0.0664
ElecMinimize: Iter:  35  F: -1445.171622877934851  |grad|_K:  2.833e-08  alpha:  3.759e-01  linmin:  1.451e-06  t[s]:   1387.41
ElecMinimize: Converged (|Delta F|<1.000000e-07 for 2 iters).
Setting wave functions to eigenvectors of Hamiltonian
Converging empty states (this may take a while): |deigs|: 3.034e-03
Vacuum energy after initial minimize, F = -1445.171622877934851


-------- Electronic minimization -----------
	Linear fluid (dielectric constant: 78.4, screening length: 8.12261 Bohr) occupying 0.449430 of unit cell:	Completed after 25 iterations at t[s]:   1486.12
	FillingsUpdate:  mu: -0.206865946  nElectrons: 266.000000  magneticMoment: [ Abs: 0.00024  Tot: +0.00022 ]
ElecMinimize: Iter:   0  F: -1445.175336119322537  |grad|_K:  1.236e-06  alpha:  1.000e+00
	Linear fluid (dielectric constant: 78.4, screening length: 8.12261 Bohr) occupying 0.450111 of unit cell:	Completed after 16 iterations at t[s]:   1506.64
	Linear fluid (dielectric constant: 78.4, screening length: 8.12261 Bohr) occupying 0.450001 of unit cell:	Completed after 10 iterations at t[s]:   1514.63
	FillingsUpdate:  mu: -0.206667794  nElectrons: 266.000000  magneticMoment: [ Abs: 0.00024  Tot: +0.00022 ]
	SubspaceRotationAdjust: set factor to 0.0654
ElecMinimize: Iter:   1  F: -1445.175473220482445  |grad|_K:  1.224e-06  alpha:  8.416e-01  linmin: -2.671e-07  t[s]:   1524.02
	Linear fluid (dielectric constant: 78.4, screening length: 8.12261 Bohr) occupying 0.450760 of unit cell:	Completed after 17 iterations at t[s]:   1534.10
	Linear fluid (dielectric constant: 78.4, screening length: 8.12261 Bohr) occupying 0.450482 of unit cell:	Completed after 11 iterations at t[s]:   1542.24
	FillingsUpdate:  mu: -0.206785148  nElectrons: 266.000000  magneticMoment: [ Abs: 0.00023  Tot: +0.00022 ]
	SubspaceRotationAdjust: set factor to 0.0693
ElecMinimize: Iter:   2  F: -1445.175558261803189  |grad|_K:  9.004e-07  alpha:  5.319e-01  linmin:  3.443e-08  t[s]:   1551.61
	Linear fluid (dielectric constant: 78.4, screening length: 8.12261 Bohr) occupying 0.450781 of unit cell:	Completed after 13 iterations at t[s]:   1561.31
	Linear fluid (dielectric constant: 78.4, screening length: 8.12261 Bohr) occupying 0.450852 of unit cell:	Completed after 8 iterations at t[s]:   1569.16
	FillingsUpdate:  mu: -0.206252987  nElectrons: 266.000000  magneticMoment: [ Abs: 0.00023  Tot: +0.00022 ]
	SubspaceRotationAdjust: set factor to 0.0816
ElecMinimize: Iter:   3  F: -1445.175615312141190  |grad|_K:  7.598e-07  alpha:  6.596e-01  linmin: -1.191e-07  t[s]:   1578.53
	Linear fluid (dielectric constant: 78.4, screening length: 8.12261 Bohr) occupying 0.451086 of unit cell:	Completed after 11 iterations at t[s]:   1588.08
	Linear fluid (dielectric constant: 78.4, screening length: 8.12261 Bohr) occupying 0.451100 of unit cell:	Completed after 2 iterations at t[s]:   1595.34
	FillingsUpdate:  mu: -0.205923905  nElectrons: 266.000000  magneticMoment: [ Abs: 0.00023  Tot: +0.00021 ]
	SubspaceRotationAdjust: set factor to 0.0966
ElecMinimize: Iter:   4  F: -1445.175658502595297  |grad|_K:  6.804e-07  alpha:  7.007e-01  linmin: -1.897e-07  t[s]:   1604.65
	Linear fluid (dielectric constant: 78.4, screening length: 8.12261 Bohr) occupying 0.451269 of unit cell:	Completed after 12 iterations at t[s]:   1614.23
	Linear fluid (dielectric constant: 78.4, screening length: 8.12261 Bohr) occupying 0.451268 of unit cell:	Completed after 0 iterations at t[s]:   1621.20
	FillingsUpdate:  mu: -0.205695638  nElectrons: 266.000000  magneticMoment: [ Abs: 0.00022  Tot: +0.00021 ]
	SubspaceRotationAdjust: set factor to 0.111
ElecMinimize: Iter:   5  F: -1445.175693055810143  |grad|_K:  6.101e-07  alpha:  6.986e-01  linmin: -1.036e-07  t[s]:   1630.54
	Linear fluid (dielectric constant: 78.4, screening length: 8.12261 Bohr) occupying 0.451370 of unit cell:	Completed after 10 iterations at t[s]:   1639.90
	Linear fluid (dielectric constant: 78.4, screening length: 8.12261 Bohr) occupying 0.451368 of unit cell:	Completed after 2 iterations at t[s]:   1647.24
	FillingsUpdate:  mu: -0.205674905  nElectrons: 266.000000  magneticMoment: [ Abs: 0.00022  Tot: +0.00021 ]
	SubspaceRotationAdjust: set factor to 0.125
ElecMinimize: Iter:   6  F: -1445.175720254587759  |grad|_K:  5.052e-07  alpha:  6.842e-01  linmin: -6.329e-08  t[s]:   1656.60
	Linear fluid (dielectric constant: 78.4, screening length: 8.12261 Bohr) occupying 0.451419 of unit cell:	Completed after 9 iterations at t[s]:   1665.89
	Linear fluid (dielectric constant: 78.4, screening length: 8.12261 Bohr) occupying 0.451415 of unit cell:	Completed after 2 iterations at t[s]:   1673.15
	FillingsUpdate:  mu: -0.205737286  nElectrons: 266.000000  magneticMoment: [ Abs: 0.00022  Tot: +0.00020 ]
	SubspaceRotationAdjust: set factor to 0.138
ElecMinimize: Iter:   7  F: -1445.175737402000323  |grad|_K:  4.261e-07  alpha:  6.293e-01  linmin:  4.091e-08  t[s]:   1682.49
	Linear fluid (dielectric constant: 78.4, screening length: 8.12261 Bohr) occupying 0.451434 of unit cell:	Completed after 10 iterations at t[s]:   1691.88
	Linear fluid (dielectric constant: 78.4, screening length: 8.12261 Bohr) occupying 0.451430 of unit cell:	Completed after 8 iterations at t[s]:   1699.71
	FillingsUpdate:  mu: -0.205793354  nElectrons: 266.000000  magneticMoment: [ Abs: 0.00021  Tot: +0.00020 ]
	SubspaceRotationAdjust: set factor to 0.134
ElecMinimize: Iter:   8  F: -1445.175746487659126  |grad|_K:  3.610e-07  alpha:  4.696e-01  linmin: -3.156e-08  t[s]:   1709.09
	Linear fluid (dielectric constant: 78.4, screening length: 8.12261 Bohr) occupying 0.451457 of unit cell:	Completed after 10 iterations at t[s]:   1718.49
	Linear fluid (dielectric constant: 78.4, screening length: 8.12261 Bohr) occupying 0.451452 of unit cell:	Completed after 6 iterations at t[s]:   1726.08
	FillingsUpdate:  mu: -0.205658896  nElectrons: 266.000000  magneticMoment: [ Abs: 0.00021  Tot: +0.00019 ]
	SubspaceRotationAdjust: set factor to 0.11
ElecMinimize: Iter:   9  F: -1445.175751854267219  |grad|_K:  2.919e-07  alpha:  3.860e-01  linmin:  2.166e-09  t[s]:   1735.43
	Linear fluid (dielectric constant: 78.4, screening length: 8.12261 Bohr) occupying 0.451458 of unit cell:	Completed after 9 iterations at t[s]:   1744.65
	Linear fluid (dielectric constant: 78.4, screening length: 8.12261 Bohr) occupying 0.451458 of unit cell:	Completed after 0 iterations at t[s]:   1751.65
	FillingsUpdate:  mu: -0.205643656  nElectrons: 266.000000  magneticMoment: [ Abs: 0.00020  Tot: +0.00019 ]
	SubspaceRotationAdjust: set factor to 0.0991
ElecMinimize: Iter:  10  F: -1445.175755377963014  |grad|_K:  2.213e-07  alpha:  3.876e-01  linmin: -1.783e-07  t[s]:   1761.04
	Linear fluid (dielectric constant: 78.4, screening length: 8.12261 Bohr) occupying 0.451472 of unit cell:	Completed after 7 iterations at t[s]:   1770.17
	Linear fluid (dielectric constant: 78.4, screening length: 8.12261 Bohr) occupying 0.451475 of unit cell:	Completed after 2 iterations at t[s]:   1777.45
	FillingsUpdate:  mu: -0.205560357  nElectrons: 266.000000  magneticMoment: [ Abs: 0.00020  Tot: +0.00019 ]
	SubspaceRotationAdjust: set factor to 0.121
ElecMinimize: Iter:  11  F: -1445.175757779276410  |grad|_K:  1.623e-07  alpha:  4.582e-01  linmin: -9.189e-08  t[s]:   1786.79
	Linear fluid (dielectric constant: 78.4, screening length: 8.12261 Bohr) occupying 0.451491 of unit cell:	Completed after 8 iterations at t[s]:   1796.07
	Linear fluid (dielectric constant: 78.4, screening length: 8.12261 Bohr) occupying 0.451493 of unit cell:	Completed after 0 iterations at t[s]:   1802.98
	FillingsUpdate:  mu: -0.205476162  nElectrons: 266.000000  magneticMoment: [ Abs: 0.00020  Tot: +0.00018 ]
	SubspaceRotationAdjust: set factor to 0.136
ElecMinimize: Iter:  12  F: -1445.175759199304366  |grad|_K:  1.301e-07  alpha:  5.038e-01  linmin: -9.654e-07  t[s]:   1812.35
	Linear fluid (dielectric constant: 78.4, screening length: 8.12261 Bohr) occupying 0.451504 of unit cell:	Completed after 8 iterations at t[s]:   1821.55
	Linear fluid (dielectric constant: 78.4, screening length: 8.12261 Bohr) occupying 0.451503 of unit cell:	Completed after 2 iterations at t[s]:   1828.82
	FillingsUpdate:  mu: -0.205434501  nElectrons: 266.000000  magneticMoment: [ Abs: 0.00019  Tot: +0.00018 ]
	SubspaceRotationAdjust: set factor to 0.128
ElecMinimize: Iter:  13  F: -1445.175760035219810  |grad|_K:  1.157e-07  alpha:  4.573e-01  linmin:  1.376e-06  t[s]:   1838.15
	Linear fluid (dielectric constant: 78.4, screening length: 8.12261 Bohr) occupying 0.451521 of unit cell:	Completed after 8 iterations at t[s]:   1848.92
	Linear fluid (dielectric constant: 78.4, screening length: 8.12261 Bohr) occupying 0.451517 of unit cell:	Completed after 3 iterations at t[s]:   1856.41
	FillingsUpdate:  mu: -0.205367917  nElectrons: 266.000000  magneticMoment: [ Abs: 0.00019  Tot: +0.00018 ]
	SubspaceRotationAdjust: set factor to 0.106
ElecMinimize: Iter:  14  F: -1445.175760535400514  |grad|_K:  9.294e-08  alpha:  3.558e-01  linmin:  1.942e-07  t[s]:   1865.71
	Linear fluid (dielectric constant: 78.4, screening length: 8.12261 Bohr) occupying 0.451524 of unit cell:	Completed after 6 iterations at t[s]:   1874.71
	Linear fluid (dielectric constant: 78.4, screening length: 8.12261 Bohr) occupying 0.451526 of unit cell:	Completed after 2 iterations at t[s]:   1881.97
	FillingsUpdate:  mu: -0.205359550  nElectrons: 266.000000  magneticMoment: [ Abs: 0.00019  Tot: +0.00018 ]
	SubspaceRotationAdjust: set factor to 0.115
ElecMinimize: Iter:  15  F: -1445.175760953665531  |grad|_K:  6.252e-08  alpha:  4.523e-01  linmin: -2.333e-06  t[s]:   1891.34
	Linear fluid (dielectric constant: 78.4, screening length: 8.12261 Bohr) occupying 0.451531 of unit cell:	Completed after 2 iterations at t[s]:   1899.98
	Linear fluid (dielectric constant: 78.4, screening length: 8.12261 Bohr) occupying 0.451532 of unit cell:	Completed after 2 iterations at t[s]:   1907.24
	FillingsUpdate:  mu: -0.205344566  nElectrons: 266.000000  magneticMoment: [ Abs: 0.00018  Tot: +0.00017 ]
	SubspaceRotationAdjust: set factor to 0.133
ElecMinimize: Iter:  16  F: -1445.175761196760504  |grad|_K:  5.140e-08  alpha:  5.719e-01  linmin: -2.641e-07  t[s]:   1916.66
	Linear fluid (dielectric constant: 78.4, screening length: 8.12261 Bohr) occupying 0.451538 of unit cell:	Completed after 3 iterations at t[s]:   1925.38
	Linear fluid (dielectric constant: 78.4, screening length: 8.12261 Bohr) occupying 0.451537 of unit cell:	Completed after 2 iterations at t[s]:   1932.63
	FillingsUpdate:  mu: -0.205333431  nElectrons: 266.000000  magneticMoment: [ Abs: 0.00018  Tot: +0.00017 ]
	SubspaceRotationAdjust: set factor to 0.13
ElecMinimize: Iter:  17  F: -1445.175761328575391  |grad|_K:  4.187e-08  alpha:  4.700e-01  linmin:  4.394e-07  t[s]:   1941.96
	Linear fluid (dielectric constant: 78.4, screening length: 8.12261 Bohr) occupying 0.451538 of unit cell:	Completed after 6 iterations at t[s]:   1951.00
	Linear fluid (dielectric constant: 78.4, screening length: 8.12261 Bohr) occupying 0.451538 of unit cell:	Completed after 0 iterations at t[s]:   1957.98
	FillingsUpdate:  mu: -0.205355950  nElectrons: 266.000000  magneticMoment: [ Abs: 0.00018  Tot: +0.00017 ]
	SubspaceRotationAdjust: set factor to 0.107
ElecMinimize: Iter:  18  F: -1445.175761405814228  |grad|_K:  3.968e-08  alpha:  4.088e-01  linmin:  1.250e-05  t[s]:   1967.36
	Linear fluid (dielectric constant: 78.4, screening length: 8.12261 Bohr) occupying 0.451540 of unit cell:	Completed after 3 iterations at t[s]:   1976.18
	Linear fluid (dielectric constant: 78.4, screening length: 8.12261 Bohr) occupying 0.451539 of unit cell:	Completed after 2 iterations at t[s]:   1983.42
	FillingsUpdate:  mu: -0.205343773  nElectrons: 266.000000  magneticMoment: [ Abs: 0.00018  Tot: +0.00016 ]
	SubspaceRotationAdjust: set factor to 0.0935
ElecMinimize: Iter:  19  F: -1445.175761454032454  |grad|_K:  2.456e-08  alpha:  3.229e-01  linmin: -8.371e-06  t[s]:   1992.77
ElecMinimize: Converged (|Delta F|<1.000000e-07 for 2 iters).
Setting wave functions to eigenvectors of Hamiltonian
Converging empty states (this may take a while): |deigs|: 6.077e-05
Single-point solvation energy estimate, DeltaF = -0.004138576097603

Computing DFT-D3 correction:
# coordination-number Pt 9.613 9.621 9.613 9.621 6.480 6.480 7.504 7.504 6.437 6.437 6.437 6.437 9.605 9.605 9.605 9.605
# coordination-number C 3.082
# coordination-number O 1.140
# diagonal-C6 Pt 336.87 336.87 336.87 336.87 336.87 336.87 336.87 336.87 336.87 336.87 336.87 336.87 336.87 336.87 336.87 336.87
# diagonal-C6 C 25.49
# diagonal-C6 O 12.68
EvdW_6 =   -0.119404
EvdW_8 =   -0.210043

# Ionic positions in cartesian coordinates:
ion Pt  10.463971000000001  10.463988444444444  38.836613999999997 0
ion Pt  10.463971000000001   5.231992444444445  38.836613999999997 0
ion Pt   5.231975000000000  10.463988444444444  38.836613999999997 0
ion Pt   5.231975000000000   5.231992444444445  38.836613999999997 0
ion Pt   2.615977000000000   2.615994444444445  42.501416999999996 0
ion Pt   2.615977000000000   7.847990444444444  42.501416999999996 0
ion Pt   7.847973000000000   2.615994444444445  42.501416999999996 0
ion Pt   7.847973000000000   7.847990444444444  42.501416999999996 0
ion Pt   0.000021000000000  -0.000003555555555  31.488006000000002 0
ion Pt   0.000021000000000   5.231992444444446  31.488006000000002 0
ion Pt   5.232006000000000  -0.000003555555555  31.488006000000002 0
ion Pt   5.232006000000000   5.231992444444446  31.488006000000002 0
ion Pt   2.616019000000001   2.615994444444445  35.157116000000002 0
ion Pt   2.616019000000001   7.847990444444446  35.157116000000002 0
ion Pt   7.848015000000000   2.615994444444445  35.157116000000002 0
ion Pt   7.848015000000000   7.847990444444446  35.157116000000002 0
ion C   7.847973000000000   5.231992444444445   0.554049000000000 1  Linear 0 0 1
ion O   7.908068000000000   5.231992444444445   2.709424000000000 1  Linear 0 0 1

# Forces in Cartesian coordinates:
force Pt  -0.000035554352193   0.000000000000000  -0.004569586634300 0
force Pt   0.005512305358690   0.000000000000000  -0.009757640845174 0
force Pt  -0.000146999929471   0.000000000000000  -0.004929497209253 0
force Pt  -0.005487236136623   0.000000000000000  -0.009725370436801 0
force Pt   0.000012906716612  -0.001956940650139  -0.000650244593824 0
force Pt   0.000012906716612   0.001956940650139  -0.000650244593824 0
force Pt  -0.000437193092123  -0.034907885616538  -0.014453479566085 0
force Pt  -0.000437193092123   0.034907885616538  -0.014453479566085 0
force Pt  -0.001082112846477   0.000000000000000   0.001105269094666 0
force Pt  -0.001097705176894   0.000000000000000  -0.001019914900288 0
force Pt   0.001071833067340   0.000000000000000   0.001108860060880 0
force Pt   0.001134236134655   0.000000000000000  -0.001091228302206 0
force Pt   0.000014795442534   0.001305973058165  -0.004749635380142 0
force Pt   0.000014795442534  -0.001305973058165  -0.004749635380142 0
force Pt  -0.000010894766056   0.000164904790040   0.000711300516083 0
force Pt  -0.000010894766056  -0.000164904790040   0.000711300516083 0
force C  -0.000590055898400   0.000000000000000  -0.035515538598362 1  Linear 0 0 1
force O   0.001519491833920   0.000000000000000   0.102816699866016 1  Linear 0 0 1

# Energy components:
   A_diel =       -0.0052056165802934
   Eewald =     5242.1307003585961866
       EH =     6553.2823835857434460
     Eloc =   -13496.1729226792904228
      Enl =      -13.7063306189050671
     EvdW =       -0.3294469982525801
      Exc =     -460.5680444690399327
 Exc_core =      262.3608538878601735
       KE =      467.8350075823566385
-------------------------------------
     Etot =    -1445.1730049675127248
       TS =        0.0027564865196601
-------------------------------------
        F =    -1445.1757614540324539


Dumping 'jdft.fillings' ... done
Dumping 'jdft.wfns' ... done
Dumping 'jdft.fluidState' ... done
Dumping 'jdft.ionpos' ... done
Dumping 'jdft.lattice' ... done
Dumping 'jdft.eigenvals' ... done
Dumping 'jdft.eigStats' ... 
	eMin: -2.160401 at state 0 ( [ +0.000000 +0.000000 +0.000000 ] spin 1 )
	HOMO: -0.205613 at state 17 ( [ +0.000000 +0.166667 +0.000000 ] spin -1 )
	mu  : -0.205344
	LUMO: -0.205276 at state 3 ( [ +0.000000 +0.500000 +0.000000 ] spin 1 )
	eMax: +0.091172 at state 15 ( [ +0.500000 +0.500000 +0.000000 ] spin 1 )
	HOMO-LUMO gap: +0.000337
	Optical gap  : +0.000696 at state 1 ( [ +0.000000 +0.166667 +0.000000 ] spin 1 )
Dumping 'jdft.Ecomponents' ... done
IonicMinimize: Iter:   0  F: -1445.175761454032454  |grad|_K:  7.692e-02  t[s]:   2088.80

#--- Lowdin population analysis ---
# oxidation-state Pt -0.034 -0.006 -0.034 -0.006 +0.016 +0.016 -0.036 -0.036 +0.036 +0.033 +0.036 +0.033 -0.006 -0.006 +0.001 +0.001
# magnetic-moments Pt +0.000 +0.000 +0.000 +0.000 +0.000 +0.000 +0.000 +0.000 +0.000 +0.000 +0.000 +0.000 +0.000 +0.000 +0.000 +0.000
# oxidation-state C +0.409
# magnetic-moments C +0.000
# oxidation-state O -0.137
# magnetic-moments O +0.000


Computing DFT-D3 correction:
# coordination-number Pt 9.613 9.622 9.613 9.622 6.481 6.481 7.493 7.493 6.437 6.437 6.437 6.437 9.605 9.605 9.605 9.605
# coordination-number C 3.087
# coordination-number O 1.115
# diagonal-C6 Pt 336.87 336.87 336.87 336.87 336.87 336.87 336.87 336.87 336.87 336.87 336.87 336.87 336.87 336.87 336.87 336.87
# diagonal-C6 C 25.48
# diagonal-C6 O 12.71
EvdW_6 =   -0.119380
EvdW_8 =   -0.210083

-------- Electronic minimization -----------
	Linear fluid (dielectric constant: 78.4, screening length: 8.12261 Bohr) occupying 0.451152 of unit cell:	Completed after 21 iterations at t[s]:   2099.63
	FillingsUpdate:  mu: -0.196406916  nElectrons: 266.000000  magneticMoment: [ Abs: 0.00016  Tot: +0.00015 ]
ElecMinimize: Iter:   0  F: -1445.083208928285103  |grad|_K:  4.626e-05  alpha:  1.000e+00
	Linear fluid (dielectric constant: 78.4, screening length: 8.12261 Bohr) occupying 0.451157 of unit cell:	Completed after 23 iterations at t[s]:   2120.87
	Linear fluid (dielectric constant: 78.4, screening length: 8.12261 Bohr) occupying 0.451000 of unit cell:	Completed after 22 iterations at t[s]:   2130.09
	FillingsUpdate:  mu: -0.201745939  nElectrons: 266.000000  magneticMoment: [ Abs: 0.00016  Tot: +0.00015 ]
	SubspaceRotationAdjust: set factor to 0.0922
ElecMinimize: Iter:   1  F: -1445.168170670883910  |grad|_K:  1.348e-05  alpha:  3.798e-01  linmin:  9.132e-03  t[s]:   2139.35
	Linear fluid (dielectric constant: 78.4, screening length: 8.12261 Bohr) occupying 0.450859 of unit cell:	Completed after 19 iterations at t[s]:   2149.94
	Linear fluid (dielectric constant: 78.4, screening length: 8.12261 Bohr) occupying 0.450875 of unit cell:	Completed after 15 iterations at t[s]:   2158.46
	FillingsUpdate:  mu: -0.203562213  nElectrons: 266.000000  magneticMoment: [ Abs: 0.00016  Tot: +0.00015 ]
	SubspaceRotationAdjust: set factor to 0.0884
ElecMinimize: Iter:   2  F: -1445.174106017150052  |grad|_K:  5.770e-06  alpha:  3.122e-01  linmin: -2.967e-04  t[s]:   2167.81
	Linear fluid (dielectric constant: 78.4, screening length: 8.12261 Bohr) occupying 0.450735 of unit cell:	Completed after 18 iterations at t[s]:   2177.97
	Linear fluid (dielectric constant: 78.4, screening length: 8.12261 Bohr) occupying 0.450673 of unit cell:	Completed after 16 iterations at t[s]:   2186.81
	FillingsUpdate:  mu: -0.206921913  nElectrons: 266.000000  magneticMoment: [ Abs: 0.00015  Tot: +0.00014 ]
	SubspaceRotationAdjust: set factor to 0.0897
ElecMinimize: Iter:   3  F: -1445.175717340962137  |grad|_K:  3.546e-06  alpha:  4.530e-01  linmin: -4.896e-05  t[s]:   2196.11
	Linear fluid (dielectric constant: 78.4, screening length: 8.12261 Bohr) occupying 0.450543 of unit cell:	Completed after 18 iterations at t[s]:   2206.28
	Linear fluid (dielectric constant: 78.4, screening length: 8.12261 Bohr) occupying 0.450541 of unit cell:	Completed after 6 iterations at t[s]:   2213.82
	FillingsUpdate:  mu: -0.207520217  nElectrons: 266.000000  magneticMoment: [ Abs: 0.00015  Tot: +0.00014 ]
	SubspaceRotationAdjust: set factor to 0.0906
ElecMinimize: Iter:   4  F: -1445.176337714365445  |grad|_K:  2.571e-06  alpha:  4.622e-01  linmin:  6.749e-06  t[s]:   2223.25
	Linear fluid (dielectric constant: 78.4, screening length: 8.12261 Bohr) occupying 0.450319 of unit cell:	Completed after 18 iterations at t[s]:   2233.39
	Linear fluid (dielectric constant: 78.4, screening length: 8.12261 Bohr) occupying 0.450287 of unit cell:	Completed after 10 iterations at t[s]:   2241.42
	FillingsUpdate:  mu: -0.209420203  nElectrons: 266.000000  magneticMoment: [ Abs: 0.00015  Tot: +0.00014 ]
	SubspaceRotationAdjust: set factor to 0.101
ElecMinimize: Iter:   5  F: -1445.176710896745135  |grad|_K:  2.184e-06  alpha:  5.294e-01  linmin:  2.295e-05  t[s]:   2250.75
	Linear fluid (dielectric constant: 78.4, screening length: 8.12261 Bohr) occupying 0.450190 of unit cell:	Completed after 15 iterations at t[s]:   2260.61
	Linear fluid (dielectric constant: 78.4, screening length: 8.12261 Bohr) occupying 0.450169 of unit cell:	Completed after 9 iterations at t[s]:   2268.52
	FillingsUpdate:  mu: -0.210167496  nElectrons: 266.000000  magneticMoment: [ Abs: 0.00015  Tot: +0.00014 ]
	SubspaceRotationAdjust: set factor to 0.12
ElecMinimize: Iter:   6  F: -1445.177039199941419  |grad|_K:  1.839e-06  alpha:  6.462e-01  linmin:  2.471e-05  t[s]:   2277.88
	Linear fluid (dielectric constant: 78.4, screening length: 8.12261 Bohr) occupying 0.450160 of unit cell:	Completed after 12 iterations at t[s]:   2287.47
	Linear fluid (dielectric constant: 78.4, screening length: 8.12261 Bohr) occupying 0.450154 of unit cell:	Completed after 7 iterations at t[s]:   2295.17
	FillingsUpdate:  mu: -0.210447517  nElectrons: 266.000000  magneticMoment: [ Abs: 0.00015  Tot: +0.00014 ]
	SubspaceRotationAdjust: set factor to 0.137
ElecMinimize: Iter:   7  F: -1445.177349589414916  |grad|_K:  1.788e-06  alpha:  8.633e-01  linmin:  3.967e-05  t[s]:   2304.52
	Linear fluid (dielectric constant: 78.4, screening length: 8.12261 Bohr) occupying 0.450395 of unit cell:	Completed after 13 iterations at t[s]:   2314.21
	Linear fluid (dielectric constant: 78.4, screening length: 8.12261 Bohr) occupying 0.450326 of unit cell:	Completed after 10 iterations at t[s]:   2322.23
	FillingsUpdate:  mu: -0.210884827  nElectrons: 266.000000  magneticMoment: [ Abs: 0.00014  Tot: +0.00013 ]
	SubspaceRotationAdjust: set factor to 0.15
ElecMinimize: Iter:   8  F: -1445.177559188688747  |grad|_K:  1.546e-06  alpha:  6.156e-01  linmin:  3.972e-06  t[s]:   2331.57
	Linear fluid (dielectric constant: 78.4, screening length: 8.12261 Bohr) occupying 0.450439 of unit cell:	Completed after 13 iterations at t[s]:   2341.31
	Linear fluid (dielectric constant: 78.4, screening length: 8.12261 Bohr) occupying 0.450430 of unit cell:	Completed after 8 iterations at t[s]:   2349.09
	FillingsUpdate:  mu: -0.210650208  nElectrons: 266.000000  magneticMoment: [ Abs: 0.00014  Tot: +0.00013 ]
	SubspaceRotationAdjust: set factor to 0.146
ElecMinimize: Iter:   9  F: -1445.177702474971966  |grad|_K:  1.342e-06  alpha:  5.622e-01  linmin:  1.342e-05  t[s]:   2358.41
	Linear fluid (dielectric constant: 78.4, screening length: 8.12261 Bohr) occupying 0.450654 of unit cell:	Completed after 17 iterations at t[s]:   2368.51
	Linear fluid (dielectric constant: 78.4, screening length: 8.12261 Bohr) occupying 0.450559 of unit cell:	Completed after 13 iterations at t[s]:   2376.85
	FillingsUpdate:  mu: -0.210124180  nElectrons: 266.000000  magneticMoment: [ Abs: 0.00014  Tot: +0.00013 ]
	SubspaceRotationAdjust: set factor to 0.114
ElecMinimize: Iter:  10  F: -1445.177764721733865  |grad|_K:  1.165e-06  alpha:  3.242e-01  linmin: -9.644e-07  t[s]:   2386.16
	Linear fluid (dielectric constant: 78.4, screening length: 8.12261 Bohr) occupying 0.450570 of unit cell:	Completed after 10 iterations at t[s]:   2395.62
	Linear fluid (dielectric constant: 78.4, screening length: 8.12261 Bohr) occupying 0.450573 of unit cell:	Completed after 8 iterations at t[s]:   2403.43
	FillingsUpdate:  mu: -0.210333561  nElectrons: 266.000000  magneticMoment: [ Abs: 0.00013  Tot: +0.00012 ]
	SubspaceRotationAdjust: set factor to 0.105
ElecMinimize: Iter:  11  F: -1445.177822337570888  |grad|_K:  7.898e-07  alpha:  3.982e-01  linmin:  8.912e-06  t[s]:   2412.77
	Linear fluid (dielectric constant: 78.4, screening length: 8.12261 Bohr) occupying 0.450583 of unit cell:	Completed after 10 iterations at t[s]:   2422.20
	Linear fluid (dielectric constant: 78.4, screening length: 8.12261 Bohr) occupying 0.450585 of unit cell:	Completed after 3 iterations at t[s]:   2429.52
	FillingsUpdate:  mu: -0.210108183  nElectrons: 266.000000  magneticMoment: [ Abs: 0.00013  Tot: +0.00012 ]
	SubspaceRotationAdjust: set factor to 0.124
ElecMinimize: Iter:  12  F: -1445.177856472789017  |grad|_K:  5.929e-07  alpha:  5.136e-01  linmin:  3.458e-06  t[s]:   2438.87
	Linear fluid (dielectric constant: 78.4, screening length: 8.12261 Bohr) occupying 0.450573 of unit cell:	Completed after 11 iterations at t[s]:   2449.76
	Linear fluid (dielectric constant: 78.4, screening length: 8.12261 Bohr) occupying 0.450574 of unit cell:	Completed after 3 iterations at t[s]:   2457.24
	FillingsUpdate:  mu: -0.209907606  nElectrons: 266.000000  magneticMoment: [ Abs: 0.00013  Tot: +0.00012 ]
	SubspaceRotationAdjust: set factor to 0.135
ElecMinimize: Iter:  13  F: -1445.177874108191872  |grad|_K:  4.726e-07  alpha:  4.705e-01  linmin:  1.372e-07  t[s]:   2466.56
	Linear fluid (dielectric constant: 78.4, screening length: 8.12261 Bohr) occupying 0.450527 of unit cell:	Completed after 9 iterations at t[s]:   2475.84
	Linear fluid (dielectric constant: 78.4, screening length: 8.12261 Bohr) occupying 0.450535 of unit cell:	Completed after 7 iterations at t[s]:   2483.59
	FillingsUpdate:  mu: -0.209947201  nElectrons: 266.000000  magneticMoment: [ Abs: 0.00013  Tot: +0.00012 ]
	SubspaceRotationAdjust: set factor to 0.123
ElecMinimize: Iter:  14  F: -1445.177883489283658  |grad|_K:  3.758e-07  alpha:  3.939e-01  linmin: -1.017e-05  t[s]:   2492.99
	Linear fluid (dielectric constant: 78.4, screening length: 8.12261 Bohr) occupying 0.450527 of unit cell:	Completed after 10 iterations at t[s]:   2502.38
	Linear fluid (dielectric constant: 78.4, screening length: 8.12261 Bohr) occupying 0.450527 of unit cell:	Completed after 2 iterations at t[s]:   2509.65
	FillingsUpdate:  mu: -0.209799594  nElectrons: 266.000000  magneticMoment: [ Abs: 0.00012  Tot: +0.00012 ]
	SubspaceRotationAdjust: set factor to 0.105
ElecMinimize: Iter:  15  F: -1445.177889160785298  |grad|_K:  2.883e-07  alpha:  3.762e-01  linmin:  3.007e-05  t[s]:   2518.95
	Linear fluid (dielectric constant: 78.4, screening length: 8.12261 Bohr) occupying 0.450502 of unit cell:	Completed after 8 iterations at t[s]:   2528.16
	Linear fluid (dielectric constant: 78.4, screening length: 8.12261 Bohr) occupying 0.450501 of unit cell:	Completed after 0 iterations at t[s]:   2535.08
	FillingsUpdate:  mu: -0.209770304  nElectrons: 266.000000  magneticMoment: [ Abs: 0.00012  Tot: +0.00011 ]
	SubspaceRotationAdjust: set factor to 0.115
ElecMinimize: Iter:  16  F: -1445.177892596966785  |grad|_K:  1.970e-07  alpha:  3.884e-01  linmin: -1.188e-04  t[s]:   2544.44
	Linear fluid (dielectric constant: 78.4, screening length: 8.12261 Bohr) occupying 0.450488 of unit cell:	Completed after 6 iterations at t[s]:   2553.47
	Linear fluid (dielectric constant: 78.4, screening length: 8.12261 Bohr) occupying 0.450483 of unit cell:	Completed after 2 iterations at t[s]:   2560.74
	FillingsUpdate:  mu: -0.209744673  nElectrons: 266.000000  magneticMoment: [ Abs: 0.00012  Tot: +0.00011 ]
	SubspaceRotationAdjust: set factor to 0.134
ElecMinimize: Iter:  17  F: -1445.177894790192340  |grad|_K:  1.438e-07  alpha:  5.249e-01  linmin: -2.058e-04  t[s]:   2570.12
	Linear fluid (dielectric constant: 78.4, screening length: 8.12261 Bohr) occupying 0.450480 of unit cell:	Completed after 8 iterations at t[s]:   2579.33
	Linear fluid (dielectric constant: 78.4, screening length: 8.12261 Bohr) occupying 0.450480 of unit cell:	Completed after 4 iterations at t[s]:   2586.80
	FillingsUpdate:  mu: -0.209696158  nElectrons: 266.000000  magneticMoment: [ Abs: 0.00012  Tot: +0.00011 ]
	SubspaceRotationAdjust: set factor to 0.118
ElecMinimize: Iter:  18  F: -1445.177895768303188  |grad|_K:  1.348e-07  alpha:  4.390e-01  linmin:  2.850e-04  t[s]:   2596.17
	Linear fluid (dielectric constant: 78.4, screening length: 8.12261 Bohr) occupying 0.450465 of unit cell:	Completed after 7 iterations at t[s]:   2605.34
	Linear fluid (dielectric constant: 78.4, screening length: 8.12261 Bohr) occupying 0.450469 of unit cell:	Completed after 6 iterations at t[s]:   2612.98
	FillingsUpdate:  mu: -0.209726213  nElectrons: 266.000000  magneticMoment: [ Abs: 0.00012  Tot: +0.00011 ]
	SubspaceRotationAdjust: set factor to 0.101
ElecMinimize: Iter:  19  F: -1445.177896401469525  |grad|_K:  8.941e-08  alpha:  3.297e-01  linmin: -3.038e-05  t[s]:   2622.31
	Linear fluid (dielectric constant: 78.4, screening length: 8.12261 Bohr) occupying 0.450467 of unit cell:	Completed after 3 iterations at t[s]:   2631.03
	Linear fluid (dielectric constant: 78.4, screening length: 8.12261 Bohr) occupying 0.450465 of unit cell:	Completed after 3 iterations at t[s]:   2638.37
	FillingsUpdate:  mu: -0.209728932  nElectrons: 266.000000  magneticMoment: [ Abs: 0.00012  Tot: +0.00011 ]
	SubspaceRotationAdjust: set factor to 0.123
ElecMinimize: Iter:  20  F: -1445.177896847343845  |grad|_K:  6.944e-08  alpha:  5.228e-01  linmin:  1.648e-05  t[s]:   2647.70
	Linear fluid (dielectric constant: 78.4, screening length: 8.12261 Bohr) occupying 0.450464 of unit cell:	Completed after 6 iterations at t[s]:   2656.69
	Linear fluid (dielectric constant: 78.4, screening length: 8.12261 Bohr) occupying 0.450464 of unit cell:	Completed after 0 iterations at t[s]:   2663.67
	FillingsUpdate:  mu: -0.209718021  nElectrons: 266.000000  magneticMoment: [ Abs: 0.00011  Tot: +0.00011 ]
	SubspaceRotationAdjust: set factor to 0.137
ElecMinimize: Iter:  21  F: -1445.177897102052839  |grad|_K:  6.054e-08  alpha:  4.957e-01  linmin: -5.758e-06  t[s]:   2673.02
	Linear fluid (dielectric constant: 78.4, screening length: 8.12261 Bohr) occupying 0.450459 of unit cell:	Completed after 6 iterations at t[s]:   2682.04
	Linear fluid (dielectric constant: 78.4, screening length: 8.12261 Bohr) occupying 0.450460 of unit cell:	Completed after 2 iterations at t[s]:   2689.30
	FillingsUpdate:  mu: -0.209750603  nElectrons: 266.000000  magneticMoment: [ Abs: 0.00011  Tot: +0.00011 ]
	SubspaceRotationAdjust: set factor to 0.121
ElecMinimize: Iter:  22  F: -1445.177897250058777  |grad|_K:  5.677e-08  alpha:  3.800e-01  linmin:  7.760e-05  t[s]:   2698.62
	Linear fluid (dielectric constant: 78.4, screening length: 8.12261 Bohr) occupying 0.450461 of unit cell:	Completed after 6 iterations at t[s]:   2707.62
	Linear fluid (dielectric constant: 78.4, screening length: 8.12261 Bohr) occupying 0.450461 of unit cell:	Completed after 0 iterations at t[s]:   2714.56
	FillingsUpdate:  mu: -0.209749917  nElectrons: 266.000000  magneticMoment: [ Abs: 0.00011  Tot: +0.00010 ]
	SubspaceRotationAdjust: set factor to 0.124
ElecMinimize: Iter:  23  F: -1445.177897381963476  |grad|_K:  4.287e-08  alpha:  3.869e-01  linmin: -1.119e-04  t[s]:   2723.91
	Linear fluid (dielectric constant: 78.4, screening length: 8.12261 Bohr) occupying 0.450460 of unit cell:	Completed after 1 iterations at t[s]:   2732.46
	Linear fluid (dielectric constant: 78.4, screening length: 8.12261 Bohr) occupying 0.450460 of unit cell:	Completed after 0 iterations at t[s]:   2739.39
	FillingsUpdate:  mu: -0.209756169  nElectrons: 266.000000  magneticMoment: [ Abs: 0.00011  Tot: +0.00010 ]
	SubspaceRotationAdjust: set factor to 0.154
ElecMinimize: Iter:  24  F: -1445.177897493384080  |grad|_K:  3.694e-08  alpha:  5.557e-01  linmin: -8.892e-05  t[s]:   2749.64
	Linear fluid (dielectric constant: 78.4, screening length: 8.12261 Bohr) occupying 0.450458 of unit cell:	Completed after 6 iterations at t[s]:   2758.69
	Linear fluid (dielectric constant: 78.4, screening length: 8.12261 Bohr) occupying 0.450458 of unit cell:	Completed after 2 iterations at t[s]:   2765.89
	FillingsUpdate:  mu: -0.209783465  nElectrons: 266.000000  magneticMoment: [ Abs: 0.00011  Tot: +0.00010 ]
	SubspaceRotationAdjust: set factor to 0.145
ElecMinimize: Iter:  25  F: -1445.177897558020504  |grad|_K:  3.731e-08  alpha:  4.426e-01  linmin: -3.660e-05  t[s]:   2775.24
	Linear fluid (dielectric constant: 78.4, screening length: 8.12261 Bohr) occupying 0.450460 of unit cell:	Completed after 6 iterations at t[s]:   2784.26
	Linear fluid (dielectric constant: 78.4, screening length: 8.12261 Bohr) occupying 0.450459 of unit cell:	Completed after 2 iterations at t[s]:   2791.47
	FillingsUpdate:  mu: -0.209787522  nElectrons: 266.000000  magneticMoment: [ Abs: 0.00010  Tot: +0.00010 ]
	SubspaceRotationAdjust: set factor to 0.109
ElecMinimize: Iter:  26  F: -1445.177897601107816  |grad|_K:  2.967e-08  alpha:  2.897e-01  linmin:  1.436e-04  t[s]:   2800.81
ElecMinimize: Converged (|Delta F|<1.000000e-07 for 2 iters).
Setting wave functions to eigenvectors of Hamiltonian
Converging empty states (this may take a while): |deigs|: 3.762e-05

Computing DFT-D3 correction:
# coordination-number Pt 9.613 9.622 9.613 9.622 6.481 6.481 7.493 7.493 6.437 6.437 6.437 6.437 9.605 9.605 9.605 9.605
# coordination-number C 3.087
# coordination-number O 1.115
# diagonal-C6 Pt 336.87 336.87 336.87 336.87 336.87 336.87 336.87 336.87 336.87 336.87 336.87 336.87 336.87 336.87 336.87 336.87
# diagonal-C6 C 25.48
# diagonal-C6 O 12.71
EvdW_6 =   -0.119380
EvdW_8 =   -0.210083

# Ionic positions in cartesian coordinates:
ion Pt  10.463971000000001  10.463988444444444  38.836613999999997 0
ion Pt  10.463971000000001   5.231992444444445  38.836613999999997 0
ion Pt   5.231975000000000  10.463988444444444  38.836613999999997 0
ion Pt   5.231975000000000   5.231992444444445  38.836613999999997 0
ion Pt   2.615977000000000   2.615994444444445  42.501416999999996 0
ion Pt   2.615977000000000   7.847990444444444  42.501416999999996 0
ion Pt   7.847973000000000   2.615994444444445  42.501416999999996 0
ion Pt   7.847973000000000   7.847990444444444  42.501416999999996 0
ion Pt   0.000021000000000  -0.000003555555555  31.488006000000002 0
ion Pt   0.000021000000000   5.231992444444446  31.488006000000002 0
ion Pt   5.232006000000000  -0.000003555555555  31.488006000000002 0
ion Pt   5.232006000000000   5.231992444444446  31.488006000000002 0
ion Pt   2.616019000000001   2.615994444444445  35.157116000000002 0
ion Pt   2.616019000000001   7.847990444444446  35.157116000000002 0
ion Pt   7.848015000000000   2.615994444444445  35.157116000000002 0
ion Pt   7.848015000000000   7.847990444444446  35.157116000000002 0
ion C   7.847973000000000   5.231992444444445   0.519506422145776 1  Linear 0 0 1
ion O   7.908068000000000   5.231992444444445   2.809424000000000 1  Linear 0 0 1

# Forces in Cartesian coordinates:
force Pt  -0.000113785493187   0.000000000000000  -0.004557334141255 0
force Pt   0.005625419558712   0.000000000000000  -0.009974567504845 0
force Pt  -0.000069277734335   0.000000000000000  -0.004907713103308 0
force Pt  -0.005600176518403   0.000000000000000  -0.009941702954989 0
force Pt   0.000007850129158  -0.002063559063454  -0.000635886835838 0
force Pt   0.000007850129158   0.002063559063454  -0.000635886835838 0
force Pt  -0.000374676278315  -0.036027683403451  -0.012800873291417 0
force Pt  -0.000374676278315   0.036027683403451  -0.012800873291417 0
force Pt  -0.001051794494891   0.000000000000000   0.001109823048243 0
force Pt  -0.001151846010137   0.000000000000000  -0.001136081618243 0
force Pt   0.001041193941277   0.000000000000000   0.001111341088323 0
force Pt   0.001190239976356   0.000000000000000  -0.001208023317315 0
force Pt   0.000014243477180   0.001364876082044  -0.004845122803531 0
force Pt   0.000014243477180  -0.001364876082044  -0.004845122803531 0
force Pt  -0.000010786872301   0.000158938024278   0.000830866220755 0
force Pt  -0.000010786872301  -0.000158938024278   0.000830866220755 0
force C   0.002579731528939   0.000000000000000   0.090510575659204 1  Linear 0 0 1
force O  -0.001755820354592   0.000000000000000  -0.025607263303431 1  Linear 0 0 1

# Energy components:
   A_diel =       -0.0074148015381937
   Eewald =     5237.9414010870132188
       EH =     6548.1500154653285790
     Eloc =   -13486.7118227457467583
      Enl =      -13.7494006727795401
     EvdW =       -0.3294633805935591
      Exc =     -460.5176128364875581
 Exc_core =      262.3608698558602441
       KE =      467.6882923588219114
-------------------------------------
     Etot =    -1445.1751356701217901
       TS =        0.0027619309859137
-------------------------------------
        F =    -1445.1778976011078157


Dumping 'jdft.fillings' ... done
Dumping 'jdft.wfns' ... done
Dumping 'jdft.fluidState' ... done
Dumping 'jdft.ionpos' ... done
Dumping 'jdft.lattice' ... done
Dumping 'jdft.eigenvals' ... done
Dumping 'jdft.eigStats' ... 
	eMin: -2.166547 at state 0 ( [ +0.000000 +0.000000 +0.000000 ] spin 1 )
	HOMO: -0.209803 at state 19 ( [ +0.000000 +0.500000 +0.000000 ] spin -1 )
	mu  : -0.209788
	LUMO: -0.209636 at state 5 ( [ +0.166667 +0.166667 +0.000000 ] spin 1 )
	eMax: +0.091342 at state 31 ( [ +0.500000 +0.500000 +0.000000 ] spin -1 )
	HOMO-LUMO gap: +0.000166
	Optical gap  : +0.000684 at state 1 ( [ +0.000000 +0.166667 +0.000000 ] spin 1 )
Dumping 'jdft.Ecomponents' ... done
IonicMinimize: Iter:   1  F: -1445.177897601107816  |grad|_K:  6.651e-02  alpha:  9.726e-01  linmin:  4.875e-01  t[s]:   2866.78

#--- Lowdin population analysis ---
# oxidation-state Pt -0.035 -0.006 -0.035 -0.006 +0.024 +0.024 -0.021 -0.021 +0.042 +0.040 +0.042 +0.039 -0.006 -0.006 +0.001 +0.001
# magnetic-moments Pt +0.000 +0.000 +0.000 +0.000 +0.000 +0.000 +0.000 +0.000 +0.000 +0.000 +0.000 +0.000 +0.000 +0.000 +0.000 +0.000
# oxidation-state C +0.387
# magnetic-moments C -0.000
# oxidation-state O -0.193
# magnetic-moments O -0.000


Computing DFT-D3 correction:
# coordination-number Pt 9.613 9.621 9.613 9.621 6.480 6.480 7.494 7.494 6.437 6.437 6.437 6.437 9.605 9.605 9.605 9.605
# coordination-number C 3.082
# coordination-number O 1.118
# diagonal-C6 Pt 336.87 336.87 336.87 336.87 336.87 336.87 336.87 336.87 336.87 336.87 336.87 336.87 336.87 336.87 336.87 336.87
# diagonal-C6 C 25.49
# diagonal-C6 O 12.71
EvdW_6 =   -0.119372
EvdW_8 =   -0.210048

-------- Electronic minimization -----------
	Linear fluid (dielectric constant: 78.4, screening length: 8.12261 Bohr) occupying 0.450443 of unit cell:	Completed after 18 iterations at t[s]:   2877.49
	FillingsUpdate:  mu: -0.206655850  nElectrons: 266.000000  magneticMoment: [ Abs: 0.00009  Tot: +0.00009 ]
ElecMinimize: Iter:   0  F: -1445.175585545378226  |grad|_K:  1.001e-05  alpha:  1.000e+00
	Linear fluid (dielectric constant: 78.4, screening length: 8.12261 Bohr) occupying 0.450459 of unit cell:	Completed after 19 iterations at t[s]:   2898.20
[...]
ElecMinimize: Iter:   6  F: -1445.189094290030198  |grad|_K:  7.632e-08  alpha:  4.764e-01  linmin:  1.057e-04  t[s]:   6829.75
	Linear fluid (dielectric constant: 78.4, screening length: 8.12261 Bohr) occupying 0.445658 of unit cell:	Completed after 8 iterations at t[s]:   6838.97
	Linear fluid (dielectric constant: 78.4, screening length: 8.12261 Bohr) occupying 0.445658 of unit cell:	Completed after 3 iterations at t[s]:   6846.31
	FillingsUpdate:  mu: -0.205568237  nElectrons: 266.000000  magneticMoment: [ Abs: 0.00001  Tot: +0.00001 ]
	SubspaceRotationAdjust: set factor to 0.0872
ElecMinimize: Iter:   7  F: -1445.189094508930339  |grad|_K:  5.892e-08  alpha:  3.548e-01  linmin:  1.177e-04  t[s]:   6855.69
	Linear fluid (dielectric constant: 78.4, screening length: 8.12261 Bohr) occupying 0.445657 of unit cell:	Completed after 6 iterations at t[s]:   6864.70
	Linear fluid (dielectric constant: 78.4, screening length: 8.12261 Bohr) occupying 0.445657 of unit cell:	Completed after 0 iterations at t[s]:   6871.75
	FillingsUpdate:  mu: -0.205573668  nElectrons: 266.000000  magneticMoment: [ Abs: 0.00001  Tot: +0.00001 ]
	SubspaceRotationAdjust: set factor to 0.0926
ElecMinimize: Iter:   8  F: -1445.189094670067334  |grad|_K:  3.778e-08  alpha:  4.329e-01  linmin: -1.120e-03  t[s]:   6881.18
	Linear fluid (dielectric constant: 78.4, screening length: 8.12261 Bohr) occupying 0.445657 of unit cell:	Completed after 2 iterations at t[s]:   6889.79
	Linear fluid (dielectric constant: 78.4, screening length: 8.12261 Bohr) occupying 0.445657 of unit cell:	Completed after 0 iterations at t[s]:   6896.85
	FillingsUpdate:  mu: -0.205568182  nElectrons: 266.000000  magneticMoment: [ Abs: 0.00001  Tot: +0.00001 ]
	SubspaceRotationAdjust: set factor to 0.0978
ElecMinimize: Iter:   9  F: -1445.189094748402113  |grad|_K:  2.684e-08  alpha:  4.868e-01  linmin: -1.394e-03  t[s]:   6906.17
	Linear fluid (dielectric constant: 78.4, screening length: 8.12261 Bohr) occupying 0.445660 of unit cell:	Completed after 3 iterations at t[s]:   6914.93
	Linear fluid (dielectric constant: 78.4, screening length: 8.12261 Bohr) occupying 0.445660 of unit cell:	Completed after 0 iterations at t[s]:   6921.81
	FillingsUpdate:  mu: -0.205553710  nElectrons: 266.000000  magneticMoment: [ Abs: 0.00001  Tot: +0.00001 ]
	SubspaceRotationAdjust: set factor to 0.0831
ElecMinimize: Iter:  10  F: -1445.189094780666210  |grad|_K:  2.204e-08  alpha:  3.944e-01  linmin:  3.003e-03  t[s]:   6931.16
ElecMinimize: Converged (|Delta F|<1.000000e-07 for 2 iters).
Setting wave functions to eigenvectors of Hamiltonian
Converging empty states (this may take a while): |deigs|: 1.167e-08

Computing DFT-D3 correction:
# coordination-number Pt 9.613 9.618 9.613 9.618 6.473 6.473 7.454 7.454 6.437 6.437 6.437 6.437 9.605 9.605 9.605 9.605
# coordination-number C 3.031
# coordination-number O 1.069
# diagonal-C6 Pt 336.87 336.87 336.87 336.87 336.87 336.87 336.87 336.87 336.87 336.87 336.87 336.87 336.87 336.87 336.87 336.87
# diagonal-C6 C 25.61
# diagonal-C6 O 12.75
EvdW_6 =   -0.119145
EvdW_8 =   -0.209661

# Ionic positions in cartesian coordinates:
ion Pt  10.463971000000001  10.463988444444444  38.836613999999997 0
ion Pt  10.463971000000001   5.231992444444445  38.836613999999997 0
ion Pt   5.231975000000000  10.463988444444444  38.836613999999997 0
ion Pt   5.231975000000000   5.231992444444445  38.836613999999997 0
ion Pt   2.615977000000000   2.615994444444445  42.501416999999996 0
ion Pt   2.615977000000000   7.847990444444444  42.501416999999996 0
ion Pt   7.847973000000000   2.615994444444445  42.501416999999996 0
ion Pt   7.847973000000000   7.847990444444444  42.501416999999996 0
ion Pt   0.000021000000000  -0.000003555555555  31.488006000000002 0
ion Pt   0.000021000000000   5.231992444444446  31.488006000000002 0
ion Pt   5.232006000000000  -0.000003555555555  31.488006000000002 0
ion Pt   5.232006000000000   5.231992444444446  31.488006000000002 0
ion Pt   2.616019000000001   2.615994444444445  35.157116000000002 0
ion Pt   2.616019000000001   7.847990444444446  35.157116000000002 0
ion Pt   7.848015000000000   2.615994444444445  35.157116000000002 0
ion Pt   7.848015000000000   7.847990444444446  35.157116000000002 0
ion C   7.847973000000000   5.231992444444445   0.866768190298019 1  Linear 0 0 1
ion O   7.908068000000000   5.231992444444445   3.096211834800494 1  Linear 0 0 1

# Forces in Cartesian coordinates:
force Pt  -0.001621302300228   0.000000000000000  -0.002291851439480 0
force Pt   0.005321336077079   0.000000000000000  -0.008945225969944 0
force Pt   0.001426083627117   0.000000000000000  -0.002624514278345 0
force Pt  -0.005308659388477   0.000000000000000  -0.008909952729401 0
force Pt  -0.000003919265292  -0.000961348961987  -0.000413505214694 0
force Pt  -0.000003919265292   0.000961348961987  -0.000413505214694 0
force Pt  -0.000257655714691  -0.008441253510057   0.015838297139040 0
force Pt  -0.000257655714691   0.008441253510057   0.015838297139040 0
force Pt  -0.000917093439708   0.000000000000000   0.000987759070637 0
force Pt  -0.001116560336633   0.000000000000000  -0.001000275472959 0
force Pt   0.000908845792310   0.000000000000000   0.000988822900203 0
force Pt   0.001143687963681   0.000000000000000  -0.001057657930862 0
force Pt   0.000008251228958   0.001198353579063  -0.004185861256470 0
force Pt   0.000008251228958  -0.001198353579063  -0.004185861256470 0
force Pt  -0.000011574207090   0.000155510330344   0.000666574650549 0
force Pt  -0.000011574207090  -0.000155510330344   0.000666574650549 0
force C   0.001704588490992   0.000000000000000   0.000102727246408 1  Linear 0 0 1
force O  -0.001016572138478   0.000000000000000  -0.000201328995952 1  Linear 0 0 1

# Energy components:
   A_diel =       -0.0049796657478284
   Eewald =     5212.0062662911968800
       EH =     6523.2242213407434974
     Eloc =   -13435.7370259037015785
      Enl =      -13.7805610581258318
     EvdW =       -0.3288063986755093
      Exc =     -460.4466819578024115
 Exc_core =      262.3608621570690502
       KE =      467.5203957816252114
-------------------------------------
     Etot =    -1445.1863094134193943
       TS =        0.0027853672468537
-------------------------------------
        F =    -1445.1890947806662098


Dumping 'jdft.fillings' ... done
Dumping 'jdft.wfns' ... done
Dumping 'jdft.fluidState' ... done
Dumping 'jdft.ionpos' ... done
Dumping 'jdft.lattice' ... done
Dumping 'jdft.eigenvals' ... done
Dumping 'jdft.eigStats' ... 
	eMin: -2.156852 at state 0 ( [ +0.000000 +0.000000 +0.000000 ] spin 1 )
	HOMO: -0.205691 at state 17 ( [ +0.000000 +0.166667 +0.000000 ] spin -1 )
	mu  : -0.205554
	LUMO: -0.205531 at state 5 ( [ +0.166667 +0.166667 +0.000000 ] spin 1 )
	eMax: +0.091112 at state 31 ( [ +0.500000 +0.500000 +0.000000 ] spin -1 )
	HOMO-LUMO gap: +0.000160
	Optical gap  : +0.000763 at state 1 ( [ +0.000000 +0.166667 +0.000000 ] spin 1 )
Dumping 'jdft.Ecomponents' ... done
IonicMinimize: Iter:   8  F: -1445.189094780666210  |grad|_K:  1.598e-04  alpha:  1.000e+00  linmin:  2.319e-03  t[s]:   6956.29

#--- Lowdin population analysis ---
# oxidation-state Pt -0.027 -0.003 -0.027 -0.003 +0.019 +0.019 -0.051 -0.051 +0.036 +0.033 +0.036 +0.033 -0.007 -0.007 +0.000 +0.000
# magnetic-moments Pt +0.000 +0.000 +0.000 +0.000 +0.000 +0.000 +0.000 +0.000 +0.000 +0.000 +0.000 +0.000 +0.000 +0.000 +0.000 +0.000
# oxidation-state C +0.417
# magnetic-moments C -0.000
# oxidation-state O -0.147
# magnetic-moments O +0.000


Computing DFT-D3 correction:
# coordination-number Pt 9.613 9.618 9.613 9.618 6.473 6.473 7.455 7.455 6.437 6.437 6.437 6.437 9.605 9.605 9.605 9.605
# coordination-number C 3.031
# coordination-number O 1.069
# diagonal-C6 Pt 336.87 336.87 336.87 336.87 336.87 336.87 336.87 336.87 336.87 336.87 336.87 336.87 336.87 336.87 336.87 336.87
# diagonal-C6 C 25.61
# diagonal-C6 O 12.75
EvdW_6 =   -0.119145
EvdW_8 =   -0.209662

-------- Electronic minimization -----------
	Linear fluid (dielectric constant: 78.4, screening length: 8.12261 Bohr) occupying 0.445661 of unit cell:	Completed after 9 iterations at t[s]:   6966.81
	FillingsUpdate:  mu: -0.205607096  nElectrons: 266.000000  magneticMoment: [ Abs: 0.00001  Tot: +0.00001 ]
ElecMinimize: Iter:   0  F: -1445.189089563509242  |grad|_K:  4.935e-07  alpha:  1.000e+00
	Linear fluid (dielectric constant: 78.4, screening length: 8.12261 Bohr) occupying 0.445730 of unit cell:	Completed after 12 iterations at t[s]:   6987.13
	Linear fluid (dielectric constant: 78.4, screening length: 8.12261 Bohr) occupying 0.445674 of unit cell:	Completed after 12 iterations at t[s]:   6995.26
	FillingsUpdate:  mu: -0.205489423  nElectrons: 266.000000  magneticMoment: [ Abs: 0.00001  Tot: +0.00001 ]
	SubspaceRotationAdjust: set factor to 0.198
ElecMinimize: Iter:   1  F: -1445.189094620007609  |grad|_K:  7.528e-08  alpha:  1.955e-01  linmin:  7.099e-04  t[s]:   7004.61
	Linear fluid (dielectric constant: 78.4, screening length: 8.12261 Bohr) occupying 0.445675 of unit cell:	Completed after 3 iterations at t[s]:   7013.36
	Linear fluid (dielectric constant: 78.4, screening length: 8.12261 Bohr) occupying 0.445675 of unit cell:	Completed after 4 iterations at t[s]:   7020.72
	FillingsUpdate:  mu: -0.205514865  nElectrons: 266.000000  magneticMoment: [ Abs: 0.00001  Tot: +0.00001 ]
	SubspaceRotationAdjust: set factor to 0.243
ElecMinimize: Iter:   2  F: -1445.189094842454097  |grad|_K:  3.591e-08  alpha:  3.662e-01  linmin: -2.433e-03  t[s]:   7030.08
	Linear fluid (dielectric constant: 78.4, screening length: 8.12261 Bohr) occupying 0.445676 of unit cell:	Completed after 6 iterations at t[s]:   7039.07
	Linear fluid (dielectric constant: 78.4, screening length: 8.12261 Bohr) occupying 0.445676 of unit cell:	Completed after 0 iterations at t[s]:   7046.14
	FillingsUpdate:  mu: -0.205514596  nElectrons: 266.000000  magneticMoment: [ Abs: 0.00001  Tot: +0.00001 ]
	SubspaceRotationAdjust: set factor to 0.175
ElecMinimize: Iter:   3  F: -1445.189094884410679  |grad|_K:  4.554e-08  alpha:  3.033e-01  linmin:  1.860e-03  t[s]:   7055.49
	Linear fluid (dielectric constant: 78.4, screening length: 8.12261 Bohr) occupying 0.445675 of unit cell:	Completed after 6 iterations at t[s]:   7064.49
	Linear fluid (dielectric constant: 78.4, screening length: 8.12261 Bohr) occupying 0.445676 of unit cell:	Completed after 3 iterations at t[s]:   7071.85
	FillingsUpdate:  mu: -0.205534669  nElectrons: 266.000000  magneticMoment: [ Abs: 0.00001  Tot: +0.00001 ]
	SubspaceRotationAdjust: set factor to 0.11
ElecMinimize: Iter:   4  F: -1445.189094908955667  |grad|_K:  2.181e-08  alpha:  1.276e-01  linmin:  1.324e-03  t[s]:   7081.19
ElecMinimize: Converged (|Delta F|<1.000000e-07 for 2 iters).
Setting wave functions to eigenvectors of Hamiltonian
Converging empty states (this may take a while): |deigs|: 4.528e-09

Computing DFT-D3 correction:
# coordination-number Pt 9.613 9.618 9.613 9.618 6.473 6.473 7.455 7.455 6.437 6.437 6.437 6.437 9.605 9.605 9.605 9.605
# coordination-number C 3.031
# coordination-number O 1.069
# diagonal-C6 Pt 336.87 336.87 336.87 336.87 336.87 336.87 336.87 336.87 336.87 336.87 336.87 336.87 336.87 336.87 336.87 336.87
# diagonal-C6 C 25.61
# diagonal-C6 O 12.75
EvdW_6 =   -0.119145
EvdW_8 =   -0.209662
IonicMinimize: 	Wolfe criterion not satisfied: alpha: 1  (E-E0)/|gdotd0|: -1.30325  gdotd/gdotd0: 1.12955 (taking cubic step)

Computing DFT-D3 correction:
# coordination-number Pt 9.613 9.618 9.613 9.618 6.473 6.473 7.455 7.455 6.437 6.437 6.437 6.437 9.605 9.605 9.605 9.605
# coordination-number C 3.031
# coordination-number O 1.069
# diagonal-C6 Pt 336.87 336.87 336.87 336.87 336.87 336.87 336.87 336.87 336.87 336.87 336.87 336.87 336.87 336.87 336.87 336.87
# diagonal-C6 C 25.61
# diagonal-C6 O 12.75
EvdW_6 =   -0.119146
EvdW_8 =   -0.209663

-------- Electronic minimization -----------
	Linear fluid (dielectric constant: 78.4, screening length: 8.12261 Bohr) occupying 0.445690 of unit cell:	Completed after 9 iterations at t[s]:   7115.85
	FillingsUpdate:  mu: -0.205457815  nElectrons: 266.000000  magneticMoment: [ Abs: 0.00001  Tot: +0.00000 ]
ElecMinimize: Iter:   0  F: -1445.189093477928509  |grad|_K:  2.914e-07  alpha:  1.000e+00
	Linear fluid (dielectric constant: 78.4, screening length: 8.12261 Bohr) occupying 0.445645 of unit cell:	Completed after 13 iterations at t[s]:   7136.31
	Linear fluid (dielectric constant: 78.4, screening length: 8.12261 Bohr) occupying 0.445683 of unit cell:	Completed after 12 iterations at t[s]:   7144.40
	FillingsUpdate:  mu: -0.205548253  nElectrons: 266.000000  magneticMoment: [ Abs: 0.00001  Tot: +0.00000 ]
	SubspaceRotationAdjust: set factor to 0.248
ElecMinimize: Iter:   1  F: -1445.189094921433707  |grad|_K:  3.474e-08  alpha:  1.601e-01  linmin:  1.067e-03  t[s]:   7153.82
	Linear fluid (dielectric constant: 78.4, screening length: 8.12261 Bohr) occupying 0.445682 of unit cell:	Completed after 2 iterations at t[s]:   7162.46
	Linear fluid (dielectric constant: 78.4, screening length: 8.12261 Bohr) occupying 0.445682 of unit cell:	Completed after 2 iterations at t[s]:   7169.70
	FillingsUpdate:  mu: -0.205541920  nElectrons: 266.000000  magneticMoment: [ Abs: 0.00001  Tot: +0.00000 ]
	SubspaceRotationAdjust: set factor to 0.307
ElecMinimize: Iter:   2  F: -1445.189094967003030  |grad|_K:  1.630e-08  alpha:  3.447e-01  linmin: -9.608e-03  t[s]:   7179.04
	Linear fluid (dielectric constant: 78.4, screening length: 8.12261 Bohr) occupying 0.445682 of unit cell:	Completed after 2 iterations at t[s]:   7187.66
	Linear fluid (dielectric constant: 78.4, screening length: 8.12261 Bohr) occupying 0.445682 of unit cell:	Completed after 0 iterations at t[s]:   7194.61
	FillingsUpdate:  mu: -0.205542796  nElectrons: 266.000000  magneticMoment: [ Abs: 0.00001  Tot: +0.00000 ]
	SubspaceRotationAdjust: set factor to 0.212
ElecMinimize: Iter:   3  F: -1445.189094976774641  |grad|_K:  1.818e-08  alpha:  3.308e-01  linmin: -9.039e-04  t[s]:   7204.05
ElecMinimize: Converged (|Delta F|<1.000000e-07 for 2 iters).
Setting wave functions to eigenvectors of Hamiltonian
Converging empty states (this may take a while): |deigs|: 4.488e-09

Computing DFT-D3 correction:
# coordination-number Pt 9.613 9.618 9.613 9.618 6.473 6.473 7.455 7.455 6.437 6.437 6.437 6.437 9.605 9.605 9.605 9.605
# coordination-number C 3.031
# coordination-number O 1.069
# diagonal-C6 Pt 336.87 336.87 336.87 336.87 336.87 336.87 336.87 336.87 336.87 336.87 336.87 336.87 336.87 336.87 336.87 336.87
# diagonal-C6 C 25.61
# diagonal-C6 O 12.75
EvdW_6 =   -0.119146
EvdW_8 =   -0.209663

# Ionic positions in cartesian coordinates:
ion Pt  10.463971000000001  10.463988444444444  38.836613999999997 0
ion Pt  10.463971000000001   5.231992444444445  38.836613999999997 0
ion Pt   5.231975000000000  10.463988444444444  38.836613999999997 0
ion Pt   5.231975000000000   5.231992444444445  38.836613999999997 0
ion Pt   2.615977000000000   2.615994444444445  42.501416999999996 0
ion Pt   2.615977000000000   7.847990444444444  42.501416999999996 0
ion Pt   7.847973000000000   2.615994444444445  42.501416999999996 0
ion Pt   7.847973000000000   7.847990444444444  42.501416999999996 0
ion Pt   0.000021000000000  -0.000003555555555  31.488006000000002 0
ion Pt   0.000021000000000   5.231992444444446  31.488006000000002 0
ion Pt   5.232006000000000  -0.000003555555555  31.488006000000002 0
ion Pt   5.232006000000000   5.231992444444446  31.488006000000002 0
ion Pt   2.616019000000001   2.615994444444445  35.157116000000002 0
ion Pt   2.616019000000001   7.847990444444446  35.157116000000002 0
ion Pt   7.848015000000000   2.615994444444445  35.157116000000002 0
ion Pt   7.848015000000000   7.847990444444446  35.157116000000002 0
ion C   7.847973000000000   5.231992444444445   0.865844548464113 1  Linear 0 0 1
ion O   7.908068000000000   5.231992444444445   3.094985935991209 1  Linear 0 0 1

# Forces in Cartesian coordinates:
force Pt  -0.001623753938605   0.000000000000000  -0.002454322040786 0
force Pt   0.005307386672275   0.000000000000000  -0.009099777838264 0
force Pt   0.001428612456334   0.000000000000000  -0.002786957287197 0
force Pt  -0.005294598576177   0.000000000000000  -0.009064416419818 0
force Pt  -0.000003629140798  -0.000962215026569  -0.000296019409839 0
force Pt  -0.000003629140798   0.000962215026569  -0.000296019409839 0
force Pt  -0.000258519380653  -0.008456236799306   0.015923178029672 0
force Pt  -0.000258519380653   0.008456236799306   0.015923178029672 0
force Pt  -0.000919826994117   0.000000000000000   0.001033705672006 0
force Pt  -0.001115606803231   0.000000000000000  -0.000950035936629 0
force Pt   0.000911559089066   0.000000000000000   0.001034952681816 0
force Pt   0.001142817035132   0.000000000000000  -0.001007392621229 0
force Pt   0.000008303156129   0.001202528342768  -0.004440000789350 0
force Pt   0.000008303156129  -0.001202528342768  -0.004440000789350 0
force Pt  -0.000011641138037   0.000158334721436   0.000420739508545 0
force Pt  -0.000011641138037  -0.000158334721436   0.000420739508545 0
force C   0.001694308394466   0.000000000000000  -0.000082708886938 1  Linear 0 0 1
force O  -0.001009969243399   0.000000000000000   0.000071592459020 1  Linear 0 0 1

# Energy components:
   A_diel =       -0.0049742711384018
   Eewald =     5212.0983855854010471
       EH =     6523.3175688340188572
     Eloc =   -13435.9232364273721032
      Enl =      -13.7804031255607740
     EvdW =       -0.3288085114551905
      Exc =     -460.4470460479880671
 Exc_core =      262.3608622756420345
       KE =      467.5213419695261337
-------------------------------------
     Etot =    -1445.1863097189270775
       TS =        0.0027852578475086
-------------------------------------
        F =    -1445.1890949767746406


Dumping 'jdft.fillings' ... done
Dumping 'jdft.wfns' ... done
Dumping 'jdft.fluidState' ... done
Dumping 'jdft.ionpos' ... done
Dumping 'jdft.lattice' ... done
Dumping 'jdft.eigenvals' ... done
Dumping 'jdft.eigStats' ... 
	eMin: -2.156882 at state 0 ( [ +0.000000 +0.000000 +0.000000 ] spin 1 )
	HOMO: -0.205670 at state 17 ( [ +0.000000 +0.166667 +0.000000 ] spin -1 )
	mu  : -0.205543
	LUMO: -0.205532 at state 5 ( [ +0.166667 +0.166667 +0.000000 ] spin 1 )
	eMax: +0.091112 at state 31 ( [ +0.500000 +0.500000 +0.000000 ] spin -1 )
	HOMO-LUMO gap: +0.000138
	Optical gap  : +0.000756 at state 1 ( [ +0.000000 +0.166667 +0.000000 ] spin 1 )
Dumping 'jdft.Ecomponents' ... done
IonicMinimize: Iter:   9  F: -1445.189094976774641  |grad|_K:  7.735e-05  alpha:  1.543e+00  linmin:  2.408e-04  t[s]:   7228.39
IonicMinimize: Converged (|grad|_K<1.000000e-04).

#--- Lowdin population analysis ---
# oxidation-state Pt -0.028 -0.004 -0.028 -0.004 +0.018 +0.018 -0.052 -0.052 +0.038 +0.035 +0.038 +0.035 -0.006 -0.006 +0.001 +0.001
# magnetic-moments Pt +0.000 +0.000 +0.000 +0.000 +0.000 +0.000 +0.000 +0.000 +0.000 +0.000 +0.000 +0.000 +0.000 +0.000 +0.000 +0.000
# oxidation-state C +0.417
# magnetic-moments C -0.000
# oxidation-state O -0.147
# magnetic-moments O +0.000


Dumping 'jdft.n_up' ... done
Dumping 'jdft.n_dn' ... done
Dumping 'jdft.tau_up' ... done
Dumping 'jdft.tau_dn' ... done
Dumping 'jdft.eigenvals' ... done
Dumping 'jdft.eigStats' ... 
	eMin: -2.156882 at state 0 ( [ +0.000000 +0.000000 +0.000000 ] spin 1 )
	HOMO: -0.205670 at state 17 ( [ +0.000000 +0.166667 +0.000000 ] spin -1 )
	mu  : -0.205543
	LUMO: -0.205532 at state 5 ( [ +0.166667 +0.166667 +0.000000 ] spin 1 )
	eMax: +0.091112 at state 31 ( [ +0.500000 +0.500000 +0.000000 ] spin -1 )
	HOMO-LUMO gap: +0.000138
	Optical gap  : +0.000756 at state 1 ( [ +0.000000 +0.166667 +0.000000 ] spin 1 )
Dumping 'jdft.kPts' ... done
Dumping 'jdft.kMap' ... done
Dumping 'jdft.dosUp' ... done.
Dumping 'jdft.dosDn' ... done.
End date and time: Thu Feb 17 06:18:19 2022  (Duration: 0-2:00:44.80)
Done!
