
*************** JDFTx 1.6.0  ***************

Start date and time: Mon Dec  6 17:10:40 2021
Executable /projects/musgravc/apps/jdftx-1.6.1/build/jdftx with command-line: -i in
Running on hosts (process indices):  shas0549.rc.int.colorado.edu (0-23)
Divided in process groups (process indices):  0 (0)  1 (1)  2 (2)  3 (3)  4 (4)  5 (5)  6 (6)  7 (7)  8 (8)  9 (9)  10 (10)  11 (11)  12 (12)  13 (13)  14 (14)  15 (15)  16 (16)  17 (17)  18 (18)  19 (19)  20 (20)  21 (21)  22 (22)  23 (23)
Resource initialization completed at t[s]:      0.00
Run totals: 24 processes, 24 threads, 0 GPUs


Input parsed successfully to the following command list (including defaults):

basis kpoint-dependent
converge-empty-states yes
coords-type Cartesian
core-overlap-check none
coulomb-interaction Periodic
davidson-band-ratio 1.1
density-of-states Etol 1.000000e-06 Esigma 1.000000e-03 \
		Complete \
	Total \
	OrthoOrbital Ag 1   s \
	OrthoOrbital Ag 1   p \
	OrthoOrbital Ag 1   px \
	OrthoOrbital Ag 1   py \
	OrthoOrbital Ag 1   pz \
	OrthoOrbital Ag 1   d \
	OrthoOrbital Ag 1   dxy \
	OrthoOrbital Ag 1   dyz \
	OrthoOrbital Ag 1   dz2 \
	OrthoOrbital Ag 1   dxz \
	OrthoOrbital Ag 1   dx2-y2 \
	OrthoOrbital Ag 2   s \
	OrthoOrbital Ag 2   p \
	OrthoOrbital Ag 2   px \
	OrthoOrbital Ag 2   py \
	OrthoOrbital Ag 2   pz \
	OrthoOrbital Ag 2   d \
	OrthoOrbital Ag 2   dxy \
	OrthoOrbital Ag 2   dyz \
	OrthoOrbital Ag 2   dz2 \
	OrthoOrbital Ag 2   dxz \
	OrthoOrbital Ag 2   dx2-y2 \
	OrthoOrbital Ag 3   s \
	OrthoOrbital Ag 3   p \
	OrthoOrbital Ag 3   px \
	OrthoOrbital Ag 3   py \
	OrthoOrbital Ag 3   pz \
	OrthoOrbital Ag 3   d \
	OrthoOrbital Ag 3   dxy \
	OrthoOrbital Ag 3   dyz \
	OrthoOrbital Ag 3   dz2 \
	OrthoOrbital Ag 3   dxz \
	OrthoOrbital Ag 3   dx2-y2 \
	OrthoOrbital Ag 4   s \
	OrthoOrbital Ag 4   p \
	OrthoOrbital Ag 4   px \
	OrthoOrbital Ag 4   py \
	OrthoOrbital Ag 4   pz \
	OrthoOrbital Ag 4   d \
	OrthoOrbital Ag 4   dxy \
	OrthoOrbital Ag 4   dyz \
	OrthoOrbital Ag 4   dz2 \
	OrthoOrbital Ag 4   dxz \
	OrthoOrbital Ag 4   dx2-y2 \
	OrthoOrbital Ag 5   s \
	OrthoOrbital Ag 5   p \
	OrthoOrbital Ag 5   px \
	OrthoOrbital Ag 5   py \
	OrthoOrbital Ag 5   pz \
	OrthoOrbital Ag 5   d \
	OrthoOrbital Ag 5   dxy \
	OrthoOrbital Ag 5   dyz \
	OrthoOrbital Ag 5   dz2 \
	OrthoOrbital Ag 5   dxz \
	OrthoOrbital Ag 5   dx2-y2 \
	OrthoOrbital Ag 6   s \
	OrthoOrbital Ag 6   p \
	OrthoOrbital Ag 6   px \
	OrthoOrbital Ag 6   py \
	OrthoOrbital Ag 6   pz \
	OrthoOrbital Ag 6   d \
	OrthoOrbital Ag 6   dxy \
	OrthoOrbital Ag 6   dyz \
	OrthoOrbital Ag 6   dz2 \
	OrthoOrbital Ag 6   dxz \
	OrthoOrbital Ag 6   dx2-y2 \
	OrthoOrbital Ag 7   s \
	OrthoOrbital Ag 7   p \
	OrthoOrbital Ag 7   px \
	OrthoOrbital Ag 7   py \
	OrthoOrbital Ag 7   pz \
	OrthoOrbital Ag 7   d \
	OrthoOrbital Ag 7   dxy \
	OrthoOrbital Ag 7   dyz \
	OrthoOrbital Ag 7   dz2 \
	OrthoOrbital Ag 7   dxz \
	OrthoOrbital Ag 7   dx2-y2 \
	OrthoOrbital Ag 8   s \
	OrthoOrbital Ag 8   p \
	OrthoOrbital Ag 8   px \
	OrthoOrbital Ag 8   py \
	OrthoOrbital Ag 8   pz \
	OrthoOrbital Ag 8   d \
	OrthoOrbital Ag 8   dxy \
	OrthoOrbital Ag 8   dyz \
	OrthoOrbital Ag 8   dz2 \
	OrthoOrbital Ag 8   dxz \
	OrthoOrbital Ag 8   dx2-y2 \
	OrthoOrbital Ag 9   s \
	OrthoOrbital Ag 9   p \
	OrthoOrbital Ag 9   px \
	OrthoOrbital Ag 9   py \
	OrthoOrbital Ag 9   pz \
	OrthoOrbital Ag 9   d \
	OrthoOrbital Ag 9   dxy \
	OrthoOrbital Ag 9   dyz \
	OrthoOrbital Ag 9   dz2 \
	OrthoOrbital Ag 9   dxz \
	OrthoOrbital Ag 9   dx2-y2 \
	OrthoOrbital Ag 10   s \
	OrthoOrbital Ag 10   p \
	OrthoOrbital Ag 10   px \
	OrthoOrbital Ag 10   py \
	OrthoOrbital Ag 10   pz \
	OrthoOrbital Ag 10   d \
	OrthoOrbital Ag 10   dxy \
	OrthoOrbital Ag 10   dyz \
	OrthoOrbital Ag 10   dz2 \
	OrthoOrbital Ag 10   dxz \
	OrthoOrbital Ag 10   dx2-y2 \
	OrthoOrbital Ag 11   s \
	OrthoOrbital Ag 11   p \
	OrthoOrbital Ag 11   px \
	OrthoOrbital Ag 11   py \
	OrthoOrbital Ag 11   pz \
	OrthoOrbital Ag 11   d \
	OrthoOrbital Ag 11   dxy \
	OrthoOrbital Ag 11   dyz \
	OrthoOrbital Ag 11   dz2 \
	OrthoOrbital Ag 11   dxz \
	OrthoOrbital Ag 11   dx2-y2 \
	OrthoOrbital Ag 12   s \
	OrthoOrbital Ag 12   p \
	OrthoOrbital Ag 12   px \
	OrthoOrbital Ag 12   py \
	OrthoOrbital Ag 12   pz \
	OrthoOrbital Ag 12   d \
	OrthoOrbital Ag 12   dxy \
	OrthoOrbital Ag 12   dyz \
	OrthoOrbital Ag 12   dz2 \
	OrthoOrbital Ag 12   dxz \
	OrthoOrbital Ag 12   dx2-y2 \
	OrthoOrbital Ag 13   s \
	OrthoOrbital Ag 13   p \
	OrthoOrbital Ag 13   px \
	OrthoOrbital Ag 13   py \
	OrthoOrbital Ag 13   pz \
	OrthoOrbital Ag 13   d \
	OrthoOrbital Ag 13   dxy \
	OrthoOrbital Ag 13   dyz \
	OrthoOrbital Ag 13   dz2 \
	OrthoOrbital Ag 13   dxz \
	OrthoOrbital Ag 13   dx2-y2 \
	OrthoOrbital Ag 14   s \
	OrthoOrbital Ag 14   p \
	OrthoOrbital Ag 14   px \
	OrthoOrbital Ag 14   py \
	OrthoOrbital Ag 14   pz \
	OrthoOrbital Ag 14   d \
	OrthoOrbital Ag 14   dxy \
	OrthoOrbital Ag 14   dyz \
	OrthoOrbital Ag 14   dz2 \
	OrthoOrbital Ag 14   dxz \
	OrthoOrbital Ag 14   dx2-y2 \
	OrthoOrbital Ag 15   s \
	OrthoOrbital Ag 15   p \
	OrthoOrbital Ag 15   px \
	OrthoOrbital Ag 15   py \
	OrthoOrbital Ag 15   pz \
	OrthoOrbital Ag 15   d \
	OrthoOrbital Ag 15   dxy \
	OrthoOrbital Ag 15   dyz \
	OrthoOrbital Ag 15   dz2 \
	OrthoOrbital Ag 15   dxz \
	OrthoOrbital Ag 15   dx2-y2 \
	OrthoOrbital Ag 16   s \
	OrthoOrbital Ag 16   p \
	OrthoOrbital Ag 16   px \
	OrthoOrbital Ag 16   py \
	OrthoOrbital Ag 16   pz \
	OrthoOrbital Ag 16   d \
	OrthoOrbital Ag 16   dxy \
	OrthoOrbital Ag 16   dyz \
	OrthoOrbital Ag 16   dz2 \
	OrthoOrbital Ag 16   dxz \
	OrthoOrbital Ag 16   dx2-y2 \
	OrthoOrbital Ag 17   s \
	OrthoOrbital Ag 17   p \
	OrthoOrbital Ag 17   px \
	OrthoOrbital Ag 17   py \
	OrthoOrbital Ag 17   pz \
	OrthoOrbital Ag 17   d \
	OrthoOrbital Ag 17   dxy \
	OrthoOrbital Ag 17   dyz \
	OrthoOrbital Ag 17   dz2 \
	OrthoOrbital Ag 17   dxz \
	OrthoOrbital Ag 17   dx2-y2 \
	OrthoOrbital Ag 18   s \
	OrthoOrbital Ag 18   p \
	OrthoOrbital Ag 18   px \
	OrthoOrbital Ag 18   py \
	OrthoOrbital Ag 18   pz \
	OrthoOrbital Ag 18   d \
	OrthoOrbital Ag 18   dxy \
	OrthoOrbital Ag 18   dyz \
	OrthoOrbital Ag 18   dz2 \
	OrthoOrbital Ag 18   dxz \
	OrthoOrbital Ag 18   dx2-y2 \
	OrthoOrbital Ag 19   s \
	OrthoOrbital Ag 19   p \
	OrthoOrbital Ag 19   px \
	OrthoOrbital Ag 19   py \
	OrthoOrbital Ag 19   pz \
	OrthoOrbital Ag 19   d \
	OrthoOrbital Ag 19   dxy \
	OrthoOrbital Ag 19   dyz \
	OrthoOrbital Ag 19   dz2 \
	OrthoOrbital Ag 19   dxz \
	OrthoOrbital Ag 19   dx2-y2
dump End ElecDensity KEdensity BandEigs EigStats RhoAtom DOS Kpoints
dump Ionic State IonicPositions Lattice EigStats Ecomponents
dump 
dump 
dump 
dump 
dump 
dump 
dump 
dump 
dump-name jdft.$VAR
elec-cutoff 20
elec-eigen-algo Davidson
elec-ex-corr gga-PBE
elec-initial-magnetization 0.000000 no
elec-n-bands 217
elec-smearing Fermi 0.001
electronic-minimize  \
	dirUpdateScheme      FletcherReeves \
	linminMethod         DirUpdateRecommended \
	nIterations          100 \
	history              15 \
	knormThreshold       0 \
	energyDiffThreshold  1e-07 \
	nEnergyDiff          2 \
	alphaTstart          1 \
	alphaTmin            1e-10 \
	updateTestStepSize   yes \
	alphaTreduceFactor   0.1 \
	alphaTincreaseFactor 3 \
	nAlphaAdjustMax      3 \
	wolfeEnergy          0.0001 \
	wolfeGradient        0.9 \
	fdTest               no
exchange-regularization WignerSeitzTruncated
fluid LinearPCM 298.000000 1.013250
fluid-anion F- 0.5 MeanFieldLJ \
	epsBulk 1 \
	pMol 0 \
	epsInf 1 \
	Pvap 0 \
	sigmaBulk 0 \
	Rvdw 2.24877 \
	Res 0 \
	tauNuc 343133
fluid-cation Na+ 0.5 MeanFieldLJ \
	epsBulk 1 \
	pMol 0 \
	epsInf 1 \
	Pvap 0 \
	sigmaBulk 0 \
	Rvdw 2.19208 \
	Res 0 \
	tauNuc 343133
fluid-ex-corr lda-TF lda-PZ
fluid-gummel-loop 10 1.000000e-05
fluid-minimize  \
	dirUpdateScheme      PolakRibiere \
	linminMethod         DirUpdateRecommended \
	nIterations          400 \
	history              15 \
	knormThreshold       1e-11 \
	energyDiffThreshold  0 \
	nEnergyDiff          2 \
	alphaTstart          1 \
	alphaTmin            1e-10 \
	updateTestStepSize   yes \
	alphaTreduceFactor   0.1 \
	alphaTincreaseFactor 3 \
	nAlphaAdjustMax      6 \
	wolfeEnergy          0.0001 \
	wolfeGradient        0.9 \
	fdTest               no
fluid-solvent H2O 55.338 ScalarEOS \
	epsBulk 78.4 \
	pMol 0.92466 \
	epsInf 1.77 \
	Pvap 1.06736e-10 \
	sigmaBulk 4.62e-05 \
	Rvdw 2.61727 \
	Res 1.42 \
	tauNuc 343133 \
	poleEl 15 7 1
forces-output-coords Positions
ion Ag  -0.000002000000000   7.461215000000000  65.948428000000007 1
ion Ag   2.710224000000000   3.108840000000000  64.189788999999990 1
ion Ag   2.710222000000000  10.570055000000000  62.431216999999997 1
ion Ag   2.710224000000000  11.813589000000000  34.293193000000002 1
ion Ag  -0.000000000000000   6.217681000000001  60.672577999999994 1
ion Ag   2.710221000000000   1.865307000000000  58.913938999999992 1
ion Ag   2.710224000000000   9.326521000000001  57.155299999999990 1
ion Ag  -0.000002000000000   4.974147000000000  55.396660999999995 1
ion Ag   2.710224000000000   0.621773000000000  53.638089000000001 1
ion Ag   2.710221000000000   8.082987000000001  51.879449999999999 1
ion Ag   0.000003000000000   3.730601000000001  50.120810999999996 1
ion Ag   0.000000999999999  11.191816000000001  48.362171999999994 1
ion Ag   2.710227000000000   6.839442000000001  46.603532999999992 1
ion Ag   0.000000000000000   2.487068000000000  44.844960000000000 1
ion Ag   0.000004000000000   9.948282000000003  43.086320999999991 1
ion Ag   2.710223999999999   5.595908000000001  41.327681999999996 1
ion Ag   0.000003000000000   1.243534000000000  39.569042999999994 1
ion Ag   0.000001000000000   8.704748000000000  37.810403999999998 1
ion Ag   2.710227000000000   4.352374000000000  36.051831999999997 1
ion-species /projects/musgravc/apps/jdftx-1.6.0/build/pseudopotentials/GBRV_v1.5/$ID_pbe_v1.uspp
ion-species /projects/musgravc/apps/jdftx-1.6.0/build/pseudopotentials/GBRV_v1.5/$ID_pbe_v1.2.uspp
ion-species /projects/musgravc/apps/jdftx-1.6.0/build/pseudopotentials/GBRV_v1.5/$ID_pbe_v1.4.uspp
ion-species /projects/musgravc/apps/jdftx-1.6.0/build/pseudopotentials/GBRV_v1.5/$ID_pbe_v1.5.uspp
ion-width Ecut
ionic-minimize  \
	dirUpdateScheme      L-BFGS \
	linminMethod         DirUpdateRecommended \
	nIterations          100 \
	history              15 \
	knormThreshold       0.0001 \
	energyDiffThreshold  1e-06 \
	nEnergyDiff          2 \
	alphaTstart          1 \
	alphaTmin            1e-10 \
	updateTestStepSize   yes \
	alphaTreduceFactor   0.1 \
	alphaTincreaseFactor 3 \
	nAlphaAdjustMax      3 \
	wolfeEnergy          0.0001 \
	wolfeGradient        0.9 \
	fdTest               no
kpoint   0.000000000000   0.000000000000   0.000000000000  1.00000000000000
kpoint-folding 11 5 1 
latt-move-scale 0 0 0
latt-scale 1 1 1 
lattice  \
	   5.420447000000000   -2.710223000000000    0.000000000000000  \
	   0.000000000000000   11.813589000000000    0.000000000000000  \
	   0.000000000000000   -0.000000000000000   66.827747000000002 
lattice-minimize  \
	dirUpdateScheme      L-BFGS \
	linminMethod         DirUpdateRecommended \
	nIterations          0 \
	history              15 \
	knormThreshold       0 \
	energyDiffThreshold  1e-06 \
	nEnergyDiff          2 \
	alphaTstart          1 \
	alphaTmin            1e-10 \
	updateTestStepSize   yes \
	alphaTreduceFactor   0.1 \
	alphaTincreaseFactor 3 \
	nAlphaAdjustMax      3 \
	wolfeEnergy          0.0001 \
	wolfeGradient        0.9 \
	fdTest               no
lcao-params 30 1e-06 0.001
pcm-variant CANDLE
spintype z-spin
subspace-rotation-factor 1 yes
symmetries none
symmetry-threshold 0.0001
van-der-waals D3


Applied RMS atom displacement 0 bohrs to make symmetries exact.

---------- Initializing the Grid ----------
R = 
[      5.42045     -2.71022            0  ]
[            0      11.8136            0  ]
[            0            0      66.8277  ]
unit cell volume = 4279.31
G =
[    1.15916    0.26593         -0  ]
[          0   0.531861          0  ]
[         -0          0  0.0940206  ]
Minimum fftbox size, Smin = [  24  52  272  ]
Chosen fftbox size, S = [  24  54  280  ]

---------- Exchange Correlation functional ----------
Initalized PBE GGA exchange.
Initalized PBE GGA correlation.

---------- Setting up pseudopotentials ----------
Width of ionic core gaussian charges (only for fluid interactions / plotting) set to 0.397384

Reading pseudopotential file '/projects/musgravc/apps/jdftx-1.6.0/build/pseudopotentials/GBRV_v1.5/ag_pbe_v1.4.uspp':
  Title: Ag.  Created by USPP 7.3.6 on 1-4-15
  Reference state energy: -147.606242.  19 valence electrons in orbitals:
    |400>  occupation: 2  eigenvalue: -3.637437
    |410>  occupation: 6  eigenvalue: -2.297267
    |420>  occupation: 10  eigenvalue: -0.417763
    |500>  occupation: 0.5  eigenvalue: -0.283525
    |510>  occupation: 0  eigenvalue: -0.122889
  lMax: 2  lLocal: 0  QijEcut: 5.5
  6 projectors sampled on a log grid with 717 points:
    l: 0  eig: -0.283528  rCut: 1.5
    l: 0  eig: -3.637440  rCut: 1.5
    l: 1  eig: -0.122892  rCut: 1.5
    l: 1  eig: -2.297267  rCut: 1.5
    l: 2  eig: -0.417762  rCut: 1.7
    l: 2  eig: -1.000000  rCut: 1.7
  Partial core density with radius 1.2
  Transforming core density to a uniform radial grid of dG=0.02 with 1304 points.
  Transforming local potential to a uniform radial grid of dG=0.02 with 1304 points.
  Transforming nonlocal projectors to a uniform radial grid of dG=0.02 with 432 points.
  Transforming density augmentations to a uniform radial grid of dG=0.02 with 1304 points.
  Transforming atomic orbitals to a uniform radial grid of dG=0.02 with 432 points.
  Core radius for overlap checks: 1.70 bohrs.

Initialized 1 species with 19 total atoms.

Folded 1 k-points by 11x5x1 to 55 k-points.

---------- Setting up k-points, bands, fillings ----------
No reducable k-points. 
Computing the number of bands and number of electrons
Calculating initial fillings.
nElectrons: 361.000000   nBands: 217   nStates: 110

----- Setting up reduced wavefunction bases (one per k-point) -----
average nbasis = 18279.473 , ideal nbasis = 18281.540

----- Initializing Supercell corresponding to k-point mesh -----
Lattice vector linear combinations in supercell:
[  11   0   0  ]
[   0   5   0  ]
[   0   0   1  ]
Supercell lattice vectors:
[  59.6249  -13.5511  0  ]
[  0  59.0679  0  ]
[  0  0  66.8277  ]

Initializing DFT-D3 calculator:
	Parameters set for gga-PBE functional
	s6:  1.000  s_r6:  1.217
	s8:  0.722  s_r8:  1.000
	Per-atom parameters loaded for:
	Ag:  sqrtQ[a0]:  5.443  Rcov[a0]:  2.173  CN: [ 0.00 0.97 ]

Initializing DFT-D2 calculator for fluid / solvation:
	Ag:  C6:  427.91 Eh-a0^6  R0: 3.097 a0

---------- Setting up ewald sum ----------
Optimum gaussian width for ewald sums = 3.964993 bohr.
Real space sum over 1045 unit cells with max indices [  9  5  2  ]
Reciprocal space sum over 6435 terms with max indices [  4  6  27  ]

Computing DFT-D3 correction:
# coordination-number Ag 5.361 6.893 8.404 5.361 9.196 9.205 9.210 9.212 9.212 9.212 9.212 9.212 9.212 9.212 9.210 9.205 9.196 8.404 6.893
# diagonal-C6 Ag 268.61 268.61 268.61 268.61 268.61 268.61 268.61 268.61 268.61 268.61 268.61 268.61 268.61 268.61 268.61 268.61 268.61 268.61 268.61
EvdW_6 =   -0.130477
EvdW_8 =   -0.172538

---------- Allocating electronic variables ----------
Initializing wave functions:  linear combination of atomic orbitals
Ag pseudo-atom occupations:   s ( 2 1 )  p ( 6 0 )  d ( 10 )
	FillingsUpdate:  mu: +0.135735757  nElectrons: 361.000000  magneticMoment: [ Abs: 0.00155  Tot: -0.00005 ]
LCAOMinimize: Iter:   0  F: -2804.2788230992487115  |grad|_K:  7.924e-04  alpha:  1.000e+00
	FillingsUpdate:  mu: +0.214633108  nElectrons: 361.000000  magneticMoment: [ Abs: 0.00147  Tot: -0.00002 ]
LCAOMinimize: Iter:   1  F: -2804.3682318382197991  |grad|_K:  3.445e-04  alpha:  3.540e-02  linmin: -9.768e-02  cgtest:  4.588e-01  t[s]:    133.44
LCAOMinimize: Encountered beta<0, resetting CG.
LCAOMinimize: 	Predicted alpha/alphaT>3.000000, increasing alphaT to 1.062019e-01.
	FillingsUpdate:  mu: +0.241163697  nElectrons: 361.000000  magneticMoment: [ Abs: 0.00112  Tot: -0.00006 ]
LCAOMinimize: Iter:   2  F: -2804.5055296408258982  |grad|_K:  2.638e-04  alpha:  3.165e-01  linmin: -2.678e-02  cgtest:  2.013e-01  t[s]:    201.11
	FillingsUpdate:  mu: +0.286125154  nElectrons: 361.000000  magneticMoment: [ Abs: 0.00103  Tot: -0.00003 ]
LCAOMinimize: Iter:   3  F: -2804.5286286965879299  |grad|_K:  2.586e-04  alpha:  1.016e-01  linmin:  1.043e-02  cgtest: -2.588e-01  t[s]:    254.97
	FillingsUpdate:  mu: +0.257570658  nElectrons: 361.000000  magneticMoment: [ Abs: 0.00096  Tot: +0.00001 ]
LCAOMinimize: Iter:   4  F: -2804.5450901879785306  |grad|_K:  1.338e-04  alpha:  8.559e-02  linmin: -1.038e-03  cgtest:  6.709e-01  t[s]:    308.88
LCAOMinimize: Encountered beta<0, resetting CG.
	FillingsUpdate:  mu: +0.241963383  nElectrons: 361.000000  magneticMoment: [ Abs: 0.00096  Tot: +0.00000 ]
LCAOMinimize: Iter:   5  F: -2804.5480055473981338  |grad|_K:  6.588e-05  alpha:  4.818e-02  linmin:  1.912e-04  cgtest:  2.114e-04  t[s]:    362.54
	FillingsUpdate:  mu: +0.245082395  nElectrons: 361.000000  magneticMoment: [ Abs: 0.00096  Tot: +0.00000 ]
LCAOMinimize: Iter:   6  F: -2804.5489211233430069  |grad|_K:  7.066e-05  alpha:  6.245e-02  linmin:  1.525e-04  cgtest:  8.910e-04  t[s]:    417.09
	FillingsUpdate:  mu: +0.250829001  nElectrons: 361.000000  magneticMoment: [ Abs: 0.00095  Tot: +0.00000 ]
LCAOMinimize: Iter:   7  F: -2804.5495613373109336  |grad|_K:  1.835e-05  alpha:  3.800e-02  linmin:  2.724e-05  cgtest: -1.156e-03  t[s]:    470.79
LCAOMinimize: 	Predicted alpha/alphaT>3.000000, increasing alphaT to 1.140063e-01.
LCAOMinimize: 	Predicted alpha/alphaT>3.000000, increasing alphaT to 3.420189e-01.
	FillingsUpdate:  mu: +0.248407656  nElectrons: 361.000000  magneticMoment: [ Abs: 0.00094  Tot: +0.00001 ]
LCAOMinimize: Iter:   8  F: -2804.5500325801444887  |grad|_K:  6.319e-06  alpha:  4.137e-01  linmin: -6.095e-05  cgtest: -2.547e-02  t[s]:    552.33
	FillingsUpdate:  mu: +0.248180699  nElectrons: 361.000000  magneticMoment: [ Abs: 0.00094  Tot: +0.00001 ]
LCAOMinimize: Iter:   9  F: -2804.5500433859579061  |grad|_K:  9.511e-06  alpha:  8.009e-02  linmin:  5.697e-05  cgtest: -3.210e-04  t[s]:    605.94
	FillingsUpdate:  mu: +0.248292834  nElectrons: 361.000000  magneticMoment: [ Abs: 0.00094  Tot: +0.00002 ]
LCAOMinimize: Iter:  10  F: -2804.5500621608321126  |grad|_K:  4.670e-06  alpha:  6.144e-02  linmin: -3.057e-05  cgtest:  3.816e-03  t[s]:    659.83
	FillingsUpdate:  mu: +0.248965952  nElectrons: 361.000000  magneticMoment: [ Abs: 0.00094  Tot: +0.00002 ]
LCAOMinimize: Iter:  11  F: -2804.5500654303959891  |grad|_K:  1.007e-06  alpha:  4.432e-02  linmin:  1.123e-06  cgtest: -6.021e-03  t[s]:    713.56
LCAOMinimize: 	Predicted alpha/alphaT>3.000000, increasing alphaT to 1.329690e-01.
LCAOMinimize: 	Predicted alpha/alphaT>3.000000, increasing alphaT to 3.989069e-01.
	FillingsUpdate:  mu: +0.248995228  nElectrons: 361.000000  magneticMoment: [ Abs: 0.00094  Tot: +0.00002 ]
LCAOMinimize: Iter:  12  F: -2804.5500669256698529  |grad|_K:  7.059e-07  alpha:  4.357e-01  linmin: -6.661e-05  cgtest:  6.388e-04  t[s]:    795.15
	FillingsUpdate:  mu: +0.248996412  nElectrons: 361.000000  magneticMoment: [ Abs: 0.00094  Tot: +0.00002 ]
LCAOMinimize: Iter:  13  F: -2804.5500669751918394  |grad|_K:  5.089e-07  alpha:  2.943e-02  linmin: -1.820e-05  cgtest: -6.189e-04  t[s]:    848.85
LCAOMinimize: 	Predicted alpha/alphaT>3.000000, increasing alphaT to 8.827855e-02.
	FillingsUpdate:  mu: +0.249012384  nElectrons: 361.000000  magneticMoment: [ Abs: 0.00094  Tot: +0.00002 ]
LCAOMinimize: Iter:  14  F: -2804.5500671036897984  |grad|_K:  3.674e-07  alpha:  1.470e-01  linmin:  2.952e-04  cgtest: -1.569e-03  t[s]:    916.38
LCAOMinimize: Converged (|Delta F|<1.000000e-06 for 2 iters).
----- createFluidSolver() ----- (Fluid-side solver setup)
   Initializing fluid molecule 'H2O'
     Initializing site 'O'
       Electron density: proportional to exp(-r/0.36935)*erfc((r-0.51523)/0.36823) with norm 6.826
       Charge density: gaussian nuclear width 0.478731 with net site charge 0.826
       Polarizability: cuspless exponential with width 0.32 and norm 3.73
       Hard sphere radius: 2.57003 bohrs
       Positions in reference frame:
         [ +0.000000 +0.000000 +0.000000 ]
     Initializing site 'H'
       Electron density: proportional to exp(-r/0.34641)*erfc((r-0)/0.390882) with norm 0.587
       Charge density: gaussian nuclear width 0.377945 with net site charge -0.413
       Polarizability: cuspless exponential with width 0.39 and norm 3.3
       Positions in reference frame:
         [ +0.000000 -1.441945 +1.122523 ]
         [ +0.000000 +1.441945 +1.122523 ]
     Net charge: 0   dipole magnitude: 0.927204
     Initializing spherical shell mfKernel with radius 2.61727 Bohr
     deltaS corrections:
       site 'O': -7.54299
       site 'H': -6.83917
   Initializing fluid molecule 'Na+'
     Initializing site 'Na'
       Electron density: proportional to exp(-r/0.19682)*erfc((r-0.71491)/0.41314) with norm 8.1383
       Charge density: gaussian nuclear width 0.365347 with net site charge -1
       Hard sphere radius: 1.86327 bohrs
       Positions in reference frame:
         [ +0.000000 +0.000000 +0.000000 ]
     Net charge: -1   dipole magnitude: 0
     Initializing gaussian mfKernel with width: 1.55004 Bohr
     deltaS corrections:
       site 'Na': -22.3555
   Initializing fluid molecule 'F-'
     Initializing site 'F'
       Electron density: proportional to exp(-r/0.38886)*erfc((r-0)/0.438782) with norm 8
       Charge density: gaussian nuclear width 0.374796 with net site charge 1
       Hard sphere radius: 2.39995 bohrs
       Positions in reference frame:
         [ +0.000000 +0.000000 +0.000000 ]
     Net charge: 1   dipole magnitude: 0
     Initializing gaussian mfKernel with width: 1.59012 Bohr
     deltaS corrections:
       site 'F': -9.04335

Correction to mu due to finite nuclear width = -0.0837015
   Cavity determined by nc: 0.00142 and sigma: 0.707107
   Nonlocal vdW cavity from gaussian model electron density with norm = 8 and sigma = 0.993594 bohr
   Charge asymmetry in cavity with sensitivity pCavity = 36.5 e-bohr/Eh
   Electrostatic cavity expanded by eta = 1.46 bohrs
   Weighted density cavitation model constrained by Nbulk: 0.0049383 bohr^-3, Pvap: 3.14029 kPa, Rvdw: 2.61727 bohr and sigmaBulk: 4.62e-05 Eh/bohr^2 at T: 298 K.
   Weighted density dispersion model using vdW pair potentials with single solvent site with sqrtC6eff: 0.77 SI.


---- Citations for features of the code used in this run ----

   Software package:
      R. Sundararaman, K. Letchworth-Weaver, K.A. Schwarz, D. Gunceler, Y. Ozhabes and T.A. Arias, 'JDFTx: software for joint density-functional theory', SoftwareX 6, 278 (2017)

   gga-PBE exchange-correlation functional:
      J.P. Perdew, K. Burke and M. Ernzerhof, Phys. Rev. Lett. 77, 3865 (1996)

   Pseudopotentials:
      KF Garrity, JW Bennett, KM Rabe and D Vanderbilt, Comput. Mater. Sci. 81, 446 (2014)

   DFT-D3 dispersion correction:
      S. Grimme, J. Antony, S. Ehrlich and H. Krieg, J. Chem. Phys. 132, 154104 (2010)

   DFT-D2 dispersion correction:
      S. Grimme, J. Comput. Chem. 27, 1787 (2006)

   Charge-asymmetric nonlocally-determined local-electric (CANDLE) solvation model:
      R. Sundararaman and W.A. Goddard III, J. Chem. Phys. 142, 064107 (2015)

   Total energy minimization with Auxiliary Hamiltonian:
      C. Freysoldt, S. Boeck, and J. Neugebauer, Phys. Rev. B 79, 241103(R) (2009)

   Linear-tetrahedron sampling for density of states:
      G. Lehmann and M. Taut, Phys. status solidi (b) 54, 469 (1972)

This list may not be complete. Please suggest additional citations or
report any other bugs at https://github.com/shankar1729/jdftx/issues

Initialization completed successfully at t[s]:    928.95


Computing DFT-D3 correction:
# coordination-number Ag 5.361 6.893 8.404 5.361 9.196 9.205 9.210 9.212 9.212 9.212 9.212 9.212 9.212 9.212 9.210 9.205 9.196 8.404 6.893
# diagonal-C6 Ag 268.61 268.61 268.61 268.61 268.61 268.61 268.61 268.61 268.61 268.61 268.61 268.61 268.61 268.61 268.61 268.61 268.61 268.61 268.61
EvdW_6 =   -0.130477
EvdW_8 =   -0.172538
Fluid solver invoked on fresh (random / LCAO) wavefunctions
Running a vacuum solve first:

-------- Initial electronic minimization -----------
	FillingsUpdate:  mu: +0.249012385  nElectrons: 361.000000  magneticMoment: [ Abs: 0.00094  Tot: +0.00002 ]
ElecMinimize: Iter:   0  F: -2804.550067103696620  |grad|_K:  2.068e-05  alpha:  1.000e+00
	FillingsUpdate:  mu: +0.255562026  nElectrons: 361.000000  magneticMoment: [ Abs: 0.00072  Tot: +0.00003 ]
	SubspaceRotationAdjust: set factor to 1
ElecMinimize: Iter:   1  F: -2804.629947668986460  |grad|_K:  1.408e-05  alpha:  4.266e-01  linmin:  2.819e-05  t[s]:   1059.15
	FillingsUpdate:  mu: +0.240052699  nElectrons: 361.000000  magneticMoment: [ Abs: 0.00055  Tot: +0.00002 ]
	SubspaceRotationAdjust: set factor to 0.905
ElecMinimize: Iter:   2  F: -2804.653508381230495  |grad|_K:  8.853e-06  alpha:  2.703e-01  linmin: -1.180e-05  t[s]:   1140.22
	FillingsUpdate:  mu: +0.257187697  nElectrons: 361.000000  magneticMoment: [ Abs: 0.00051  Tot: +0.00002 ]
	SubspaceRotationAdjust: set factor to 0.559
ElecMinimize: Iter:   3  F: -2804.655927602691008  |grad|_K:  7.507e-06  alpha:  7.093e-02  linmin:  5.866e-05  t[s]:   1221.54
	FillingsUpdate:  mu: +0.255699268  nElectrons: 361.000000  magneticMoment: [ Abs: 0.00040  Tot: +0.00002 ]
	SubspaceRotationAdjust: set factor to 0.311
ElecMinimize: Iter:   4  F: -2804.660048099410233  |grad|_K:  9.244e-06  alpha:  1.684e-01  linmin:  3.777e-05  t[s]:   1302.71
	FillingsUpdate:  mu: +0.252677816  nElectrons: 361.000000  magneticMoment: [ Abs: 0.00034  Tot: +0.00001 ]
	SubspaceRotationAdjust: set factor to 0.255
ElecMinimize: Iter:   5  F: -2804.661954116392280  |grad|_K:  2.959e-06  alpha:  5.052e-02  linmin: -7.329e-05  t[s]:   1384.25
ElecMinimize: 	Predicted alpha/alphaT>3.000000, increasing alphaT to 1.515674e-01.
	FillingsUpdate:  mu: +0.247398535  nElectrons: 361.000000  magneticMoment: [ Abs: 0.00026  Tot: +0.00001 ]
	SubspaceRotationAdjust: set factor to 0.167
ElecMinimize: Iter:   6  F: -2804.663218879243686  |grad|_K:  3.335e-06  alpha:  3.272e-01  linmin:  4.313e-05  t[s]:   1486.33
	FillingsUpdate:  mu: +0.248860466  nElectrons: 361.000000  magneticMoment: [ Abs: 0.00022  Tot: +0.00001 ]
	SubspaceRotationAdjust: set factor to 0.148
ElecMinimize: Iter:   7  F: -2804.663771547814576  |grad|_K:  1.872e-06  alpha:  1.136e-01  linmin:  8.412e-06  t[s]:   1567.97
	FillingsUpdate:  mu: +0.253878567  nElectrons: 361.000000  magneticMoment: [ Abs: 0.00017  Tot: +0.00001 ]
	SubspaceRotationAdjust: set factor to 0.145
ElecMinimize: Iter:   8  F: -2804.664193048738980  |grad|_K:  1.527e-06  alpha:  2.743e-01  linmin: -3.665e-06  t[s]:   1649.35
	FillingsUpdate:  mu: +0.254214743  nElectrons: 361.000000  magneticMoment: [ Abs: 0.00015  Tot: +0.00001 ]
	SubspaceRotationAdjust: set factor to 0.142
ElecMinimize: Iter:   9  F: -2804.664392558376676  |grad|_K:  1.135e-06  alpha:  1.947e-01  linmin: -1.164e-06  t[s]:   1730.69
	FillingsUpdate:  mu: +0.251703982  nElectrons: 361.000000  magneticMoment: [ Abs: 0.00014  Tot: +0.00001 ]
	SubspaceRotationAdjust: set factor to 0.175
ElecMinimize: Iter:  10  F: -2804.664530473240575  |grad|_K:  8.011e-07  alpha:  2.439e-01  linmin:  2.536e-05  t[s]:   1811.97
	FillingsUpdate:  mu: +0.251360719  nElectrons: 361.000000  magneticMoment: [ Abs: 0.00013  Tot: +0.00001 ]
	SubspaceRotationAdjust: set factor to 0.149
ElecMinimize: Iter:  11  F: -2804.664596068944775  |grad|_K:  7.946e-07  alpha:  2.332e-01  linmin:  7.928e-06  t[s]:   1893.19
	FillingsUpdate:  mu: +0.252725105  nElectrons: 361.000000  magneticMoment: [ Abs: 0.00013  Tot: +0.00001 ]
	SubspaceRotationAdjust: set factor to 0.216
ElecMinimize: Iter:  12  F: -2804.664664013445417  |grad|_K:  5.227e-07  alpha:  2.453e-01  linmin:  6.190e-06  t[s]:   1974.80
	FillingsUpdate:  mu: +0.253231954  nElectrons: 361.000000  magneticMoment: [ Abs: 0.00014  Tot: +0.00001 ]
	SubspaceRotationAdjust: set factor to 0.157
ElecMinimize: Iter:  13  F: -2804.664697369635633  |grad|_K:  6.157e-07  alpha:  2.784e-01  linmin:  4.552e-06  t[s]:   2056.49
	FillingsUpdate:  mu: +0.253089381  nElectrons: 361.000000  magneticMoment: [ Abs: 0.00014  Tot: +0.00001 ]
	SubspaceRotationAdjust: set factor to 0.172
ElecMinimize: Iter:  14  F: -2804.664730308484195  |grad|_K:  4.102e-07  alpha:  1.978e-01  linmin:  1.979e-06  t[s]:   2138.04
	FillingsUpdate:  mu: +0.252497689  nElectrons: 361.000000  magneticMoment: [ Abs: 0.00013  Tot: +0.00001 ]
	SubspaceRotationAdjust: set factor to 0.18
ElecMinimize: Iter:  15  F: -2804.664756360065439  |grad|_K:  4.224e-07  alpha:  3.540e-01  linmin:  2.374e-05  t[s]:   2219.57
	FillingsUpdate:  mu: +0.252712079  nElectrons: 361.000000  magneticMoment: [ Abs: 0.00013  Tot: +0.00001 ]
	SubspaceRotationAdjust: set factor to 0.155
ElecMinimize: Iter:  16  F: -2804.664773961837454  |grad|_K:  3.810e-07  alpha:  2.260e-01  linmin: -2.805e-07  t[s]:   2301.24
	FillingsUpdate:  mu: +0.253447713  nElectrons: 361.000000  magneticMoment: [ Abs: 0.00012  Tot: +0.00001 ]
	SubspaceRotationAdjust: set factor to 0.178
ElecMinimize: Iter:  17  F: -2804.664790728565094  |grad|_K:  2.739e-07  alpha:  2.632e-01  linmin: -4.476e-08  t[s]:   2382.57
	FillingsUpdate:  mu: +0.253403870  nElectrons: 361.000000  magneticMoment: [ Abs: 0.00011  Tot: +0.00000 ]
	SubspaceRotationAdjust: set factor to 0.168
ElecMinimize: Iter:  18  F: -2804.664801132010780  |grad|_K:  2.915e-07  alpha:  3.160e-01  linmin:  3.396e-06  t[s]:   2464.09
	FillingsUpdate:  mu: +0.253181216  nElectrons: 361.000000  magneticMoment: [ Abs: 0.00009  Tot: +0.00000 ]
	SubspaceRotationAdjust: set factor to 0.143
ElecMinimize: Iter:  19  F: -2804.664808340130094  |grad|_K:  1.849e-07  alpha:  1.932e-01  linmin: -1.086e-06  t[s]:   2546.10
	FillingsUpdate:  mu: +0.253195855  nElectrons: 361.000000  magneticMoment: [ Abs: 0.00008  Tot: +0.00000 ]
	SubspaceRotationAdjust: set factor to 0.166
ElecMinimize: Iter:  20  F: -2804.664812994298700  |grad|_K:  1.541e-07  alpha:  3.099e-01  linmin:  4.498e-07  t[s]:   2627.83
	FillingsUpdate:  mu: +0.253311443  nElectrons: 361.000000  magneticMoment: [ Abs: 0.00006  Tot: +0.00000 ]
	SubspaceRotationAdjust: set factor to 0.132
	SubspaceRotationAdjust: resetting CG because factor has changed by 0.131883
ElecMinimize: 	State modified externally: resetting search direction.
ElecMinimize: Iter:  21  F: -2804.664815365504637  |grad|_K:  1.157e-07  alpha:  2.275e-01
	FillingsUpdate:  mu: +0.253301154  nElectrons: 361.000000  magneticMoment: [ Abs: 0.00006  Tot: +0.00000 ]
	SubspaceRotationAdjust: set factor to 0.146
ElecMinimize: Iter:  22  F: -2804.664816822305966  |grad|_K:  7.710e-08  alpha:  2.481e-01  linmin:  3.239e-07  t[s]:   2834.51
	FillingsUpdate:  mu: +0.253311465  nElectrons: 361.000000  magneticMoment: [ Abs: 0.00005  Tot: +0.00000 ]
	SubspaceRotationAdjust: set factor to 0.113
ElecMinimize: Iter:  23  F: -2804.664817849666179  |grad|_K:  7.440e-08  alpha:  3.937e-01  linmin: -5.651e-07  t[s]:   2916.16
	FillingsUpdate:  mu: +0.253312905  nElectrons: 361.000000  magneticMoment: [ Abs: 0.00003  Tot: +0.00000 ]
	SubspaceRotationAdjust: set factor to 0.0955
ElecMinimize: Iter:  24  F: -2804.664818820857818  |grad|_K:  5.015e-08  alpha:  3.997e-01  linmin: -1.334e-07  t[s]:   2997.58
	FillingsUpdate:  mu: +0.253279367  nElectrons: 361.000000  magneticMoment: [ Abs: 0.00002  Tot: +0.00000 ]
	SubspaceRotationAdjust: set factor to 0.0957
ElecMinimize: Iter:  25  F: -2804.664819328866542  |grad|_K:  3.572e-08  alpha:  4.604e-01  linmin:  7.308e-07  t[s]:   3079.57
	FillingsUpdate:  mu: +0.253287183  nElectrons: 361.000000  magneticMoment: [ Abs: 0.00002  Tot: +0.00000 ]
	SubspaceRotationAdjust: set factor to 0.108
ElecMinimize: Iter:  26  F: -2804.664819567974064  |grad|_K:  2.432e-08  alpha:  4.274e-01  linmin:  3.281e-07  t[s]:   3161.32
	FillingsUpdate:  mu: +0.253286551  nElectrons: 361.000000  magneticMoment: [ Abs: 0.00002  Tot: +0.00000 ]
	SubspaceRotationAdjust: set factor to 0.127
ElecMinimize: Iter:  27  F: -2804.664819701089073  |grad|_K:  1.915e-08  alpha:  5.133e-01  linmin:  4.815e-07  t[s]:   3242.80
	FillingsUpdate:  mu: +0.253272776  nElectrons: 361.000000  magneticMoment: [ Abs: 0.00001  Tot: +0.00000 ]
	SubspaceRotationAdjust: set factor to 0.154
ElecMinimize: Iter:  28  F: -2804.664819786328280  |grad|_K:  1.576e-08  alpha:  5.294e-01  linmin: -1.164e-06  t[s]:   3324.48
	FillingsUpdate:  mu: +0.253277998  nElectrons: 361.000000  magneticMoment: [ Abs: 0.00001  Tot: +0.00000 ]
	SubspaceRotationAdjust: set factor to 0.178
ElecMinimize: Iter:  29  F: -2804.664819852765504  |grad|_K:  1.437e-08  alpha:  6.068e-01  linmin:  1.798e-07  t[s]:   3406.01
ElecMinimize: Converged (|Delta F|<1.000000e-07 for 2 iters).
Setting wave functions to eigenvectors of Hamiltonian
Converging empty states (this may take a while): |deigs|: 9.977e-03
Vacuum energy after initial minimize, F = -2804.664819852765504


-------- Electronic minimization -----------
	Linear fluid (dielectric constant: 78.4, screening length: 8.12261 Bohr) occupying 0.373026 of unit cell:	Completed after 23 iterations at t[s]:   3677.76
	FillingsUpdate:  mu: -0.148620787  nElectrons: 361.000000  magneticMoment: [ Abs: 0.00000  Tot: +0.00000 ]
ElecMinimize: Iter:   0  F: -2804.665584583698546  |grad|_K:  4.620e-07  alpha:  1.000e+00
	Linear fluid (dielectric constant: 78.4, screening length: 8.12261 Bohr) occupying 0.373864 of unit cell:	Completed after 22 iterations at t[s]:   3746.26
	Linear fluid (dielectric constant: 78.4, screening length: 8.12261 Bohr) occupying 0.373576 of unit cell:	Completed after 17 iterations at t[s]:   3769.19
	FillingsUpdate:  mu: -0.142480346  nElectrons: 361.000000  magneticMoment: [ Abs: 0.00000  Tot: +0.00000 ]
	SubspaceRotationAdjust: set factor to 0.14
ElecMinimize: Iter:   1  F: -2804.665645369387676  |grad|_K:  5.731e-07  alpha:  6.521e-01  linmin:  2.009e-08  t[s]:   3803.30
	Linear fluid (dielectric constant: 78.4, screening length: 8.12261 Bohr) occupying 0.374602 of unit cell:	Completed after 16 iterations at t[s]:   3832.60
	Linear fluid (dielectric constant: 78.4, screening length: 8.12261 Bohr) occupying 0.374322 of unit cell:	Completed after 14 iterations at t[s]:   3855.35
	FillingsUpdate:  mu: -0.144136588  nElectrons: 361.000000  magneticMoment: [ Abs: 0.00000  Tot: +0.00000 ]
	SubspaceRotationAdjust: set factor to 0.131
ElecMinimize: Iter:   2  F: -2804.665713161316944  |grad|_K:  3.978e-07  alpha:  4.707e-01  linmin: -2.959e-08  t[s]:   3889.28
	Linear fluid (dielectric constant: 78.4, screening length: 8.12261 Bohr) occupying 0.374754 of unit cell:	Completed after 12 iterations at t[s]:   3918.38
	Linear fluid (dielectric constant: 78.4, screening length: 8.12261 Bohr) occupying 0.374846 of unit cell:	Completed after 9 iterations at t[s]:   3940.60
	FillingsUpdate:  mu: -0.143503794  nElectrons: 361.000000  magneticMoment: [ Abs: 0.00000  Tot: +0.00000 ]
	SubspaceRotationAdjust: set factor to 0.157
ElecMinimize: Iter:   3  F: -2804.665752970852282  |grad|_K:  2.826e-07  alpha:  5.725e-01  linmin: -2.615e-07  t[s]:   3974.52
	Linear fluid (dielectric constant: 78.4, screening length: 8.12261 Bohr) occupying 0.375119 of unit cell:	Completed after 15 iterations at t[s]:   4003.92
	Linear fluid (dielectric constant: 78.4, screening length: 8.12261 Bohr) occupying 0.375075 of unit cell:	Completed after 9 iterations at t[s]:   4026.27
	FillingsUpdate:  mu: -0.142850401  nElectrons: 361.000000  magneticMoment: [ Abs: 0.00000  Tot: +0.00000 ]
	SubspaceRotationAdjust: set factor to 0.176
ElecMinimize: Iter:   4  F: -2804.665769786530745  |grad|_K:  2.456e-07  alpha:  4.783e-01  linmin: -2.293e-08  t[s]:   4060.17
	Linear fluid (dielectric constant: 78.4, screening length: 8.12261 Bohr) occupying 0.375238 of unit cell:	Completed after 9 iterations at t[s]:   4089.00
	Linear fluid (dielectric constant: 78.4, screening length: 8.12261 Bohr) occupying 0.375233 of unit cell:	Completed after 2 iterations at t[s]:   4110.67
	FillingsUpdate:  mu: -0.143112184  nElectrons: 361.000000  magneticMoment: [ Abs: 0.00000  Tot: +0.00000 ]
	SubspaceRotationAdjust: set factor to 0.206
ElecMinimize: Iter:   5  F: -2804.665782063206734  |grad|_K:  1.789e-07  alpha:  4.635e-01  linmin: -7.778e-09  t[s]:   4144.51
	Linear fluid (dielectric constant: 78.4, screening length: 8.12261 Bohr) occupying 0.375317 of unit cell:	Completed after 10 iterations at t[s]:   4173.40
	Linear fluid (dielectric constant: 78.4, screening length: 8.12261 Bohr) occupying 0.375338 of unit cell:	Completed after 4 iterations at t[s]:   4195.19
	FillingsUpdate:  mu: -0.143048469  nElectrons: 361.000000  magneticMoment: [ Abs: 0.00000  Tot: +0.00000 ]
	SubspaceRotationAdjust: set factor to 0.238
ElecMinimize: Iter:   6  F: -2804.665790191171254  |grad|_K:  1.418e-07  alpha:  5.783e-01  linmin: -6.908e-08  t[s]:   4229.01
	Linear fluid (dielectric constant: 78.4, screening length: 8.12261 Bohr) occupying 0.375410 of unit cell:	Completed after 11 iterations at t[s]:   4258.04
	Linear fluid (dielectric constant: 78.4, screening length: 8.12261 Bohr) occupying 0.375399 of unit cell:	Completed after 6 iterations at t[s]:   4280.31
	FillingsUpdate:  mu: -0.142838613  nElectrons: 361.000000  magneticMoment: [ Abs: 0.00000  Tot: +0.00000 ]
	SubspaceRotationAdjust: set factor to 0.253
ElecMinimize: Iter:   7  F: -2804.665794553941851  |grad|_K:  1.140e-07  alpha:  4.938e-01  linmin: -8.660e-09  t[s]:   4314.40
	Linear fluid (dielectric constant: 78.4, screening length: 8.12261 Bohr) occupying 0.375443 of unit cell:	Completed after 11 iterations at t[s]:   4343.46
	Linear fluid (dielectric constant: 78.4, screening length: 8.12261 Bohr) occupying 0.375436 of unit cell:	Completed after 7 iterations at t[s]:   4365.57
	FillingsUpdate:  mu: -0.142999330  nElectrons: 361.000000  magneticMoment: [ Abs: 0.00000  Tot: +0.00000 ]
	SubspaceRotationAdjust: set factor to 0.218
ElecMinimize: Iter:   8  F: -2804.665796927118663  |grad|_K:  8.992e-08  alpha:  4.162e-01  linmin:  3.240e-08  t[s]:   4399.61
	Linear fluid (dielectric constant: 78.4, screening length: 8.12261 Bohr) occupying 0.375467 of unit cell:	Completed after 13 iterations at t[s]:   4428.81
	Linear fluid (dielectric constant: 78.4, screening length: 8.12261 Bohr) occupying 0.375460 of unit cell:	Completed after 8 iterations at t[s]:   4451.19
	FillingsUpdate:  mu: -0.142781765  nElectrons: 361.000000  magneticMoment: [ Abs: 0.00000  Tot: +0.00000 ]
	SubspaceRotationAdjust: set factor to 0.166
ElecMinimize: Iter:   9  F: -2804.665798050314152  |grad|_K:  6.576e-08  alpha:  3.169e-01  linmin:  2.421e-08  t[s]:   4485.06
	Linear fluid (dielectric constant: 78.4, screening length: 8.12261 Bohr) occupying 0.375473 of unit cell:	Completed after 9 iterations at t[s]:   4514.15
	Linear fluid (dielectric constant: 78.4, screening length: 8.12261 Bohr) occupying 0.375476 of unit cell:	Completed after 3 iterations at t[s]:   4535.91
	FillingsUpdate:  mu: -0.142864440  nElectrons: 361.000000  magneticMoment: [ Abs: 0.00000  Tot: +0.00000 ]
	SubspaceRotationAdjust: set factor to 0.186
ElecMinimize: Iter:  10  F: -2804.665798826321407  |grad|_K:  4.115e-08  alpha:  4.087e-01  linmin: -3.320e-07  t[s]:   4569.79
	Linear fluid (dielectric constant: 78.4, screening length: 8.12261 Bohr) occupying 0.375484 of unit cell:	Completed after 7 iterations at t[s]:   4598.33
	Linear fluid (dielectric constant: 78.4, screening length: 8.12261 Bohr) occupying 0.375485 of unit cell:	Completed after 0 iterations at t[s]:   4619.76
	FillingsUpdate:  mu: -0.142926638  nElectrons: 361.000000  magneticMoment: [ Abs: 0.00000  Tot: +0.00000 ]
	SubspaceRotationAdjust: set factor to 0.205
ElecMinimize: Iter:  11  F: -2804.665799149624036  |grad|_K:  2.989e-08  alpha:  4.327e-01  linmin: -1.298e-06  t[s]:   4653.46
	Linear fluid (dielectric constant: 78.4, screening length: 8.12261 Bohr) occupying 0.375490 of unit cell:	Completed after 6 iterations at t[s]:   4682.05
	Linear fluid (dielectric constant: 78.4, screening length: 8.12261 Bohr) occupying 0.375489 of unit cell:	Completed after 2 iterations at t[s]:   4703.74
	FillingsUpdate:  mu: -0.142861208  nElectrons: 361.000000  magneticMoment: [ Abs: 0.00000  Tot: +0.00000 ]
	SubspaceRotationAdjust: set factor to 0.191
ElecMinimize: Iter:  12  F: -2804.665799299987157  |grad|_K:  2.139e-08  alpha:  3.796e-01  linmin:  1.278e-06  t[s]:   4737.63
	Linear fluid (dielectric constant: 78.4, screening length: 8.12261 Bohr) occupying 0.375491 of unit cell:	Completed after 6 iterations at t[s]:   4766.22
	Linear fluid (dielectric constant: 78.4, screening length: 8.12261 Bohr) occupying 0.375491 of unit cell:	Completed after 0 iterations at t[s]:   4787.66
	FillingsUpdate:  mu: -0.142897794  nElectrons: 361.000000  magneticMoment: [ Abs: 0.00000  Tot: +0.00000 ]
	SubspaceRotationAdjust: set factor to 0.19
ElecMinimize: Iter:  13  F: -2804.665799379764394  |grad|_K:  1.524e-08  alpha:  4.010e-01  linmin: -3.691e-06  t[s]:   4821.60
	Linear fluid (dielectric constant: 78.4, screening length: 8.12261 Bohr) occupying 0.375490 of unit cell:	Completed after 2 iterations at t[s]:   4850.08
	Linear fluid (dielectric constant: 78.4, screening length: 8.12261 Bohr) occupying 0.375490 of unit cell:	Completed after 0 iterations at t[s]:   4871.56
	FillingsUpdate:  mu: -0.142900536  nElectrons: 361.000000  magneticMoment: [ Abs: 0.00000  Tot: +0.00000 ]
	SubspaceRotationAdjust: set factor to 0.232
ElecMinimize: Iter:  14  F: -2804.665799421111842  |grad|_K:  1.160e-08  alpha:  3.987e-01  linmin:  1.208e-06  t[s]:   4905.35
ElecMinimize: Converged (|Delta F|<1.000000e-07 for 2 iters).
Setting wave functions to eigenvectors of Hamiltonian
Converging empty states (this may take a while): |deigs|: 8.505e-05
Single-point solvation energy estimate, DeltaF = -0.000979568346338

Computing DFT-D3 correction:
# coordination-number Ag 5.361 6.893 8.404 5.361 9.196 9.205 9.210 9.212 9.212 9.212 9.212 9.212 9.212 9.212 9.210 9.205 9.196 8.404 6.893
# diagonal-C6 Ag 268.61 268.61 268.61 268.61 268.61 268.61 268.61 268.61 268.61 268.61 268.61 268.61 268.61 268.61 268.61 268.61 268.61 268.61 268.61
EvdW_6 =   -0.130477
EvdW_8 =   -0.172538

# Ionic positions in cartesian coordinates:
ion Ag  -0.000002000000000   7.461215000000000  65.948428000000007 1
ion Ag   2.710224000000000   3.108840000000000  64.189788999999990 1
ion Ag   2.710222000000000  10.570055000000000  62.431216999999997 1
ion Ag   2.710224000000000  11.813589000000000  34.293193000000002 1
ion Ag  -0.000000000000000   6.217681000000001  60.672577999999994 1
ion Ag   2.710221000000000   1.865307000000000  58.913938999999992 1
ion Ag   2.710224000000000   9.326521000000001  57.155299999999990 1
ion Ag  -0.000002000000000   4.974147000000000  55.396660999999995 1
ion Ag   2.710224000000000   0.621773000000000  53.638089000000001 1
ion Ag   2.710221000000000   8.082987000000001  51.879449999999999 1
ion Ag   0.000003000000000   3.730601000000001  50.120810999999996 1
ion Ag   0.000000999999999  11.191816000000001  48.362171999999994 1
ion Ag   2.710227000000000   6.839442000000001  46.603532999999992 1
ion Ag   0.000000000000000   2.487068000000000  44.844960000000000 1
ion Ag   0.000004000000000   9.948282000000003  43.086320999999991 1
ion Ag   2.710223999999999   5.595908000000001  41.327681999999996 1
ion Ag   0.000003000000000   1.243534000000000  39.569042999999994 1
ion Ag   0.000001000000000   8.704748000000000  37.810403999999998 1
ion Ag   2.710227000000000   4.352374000000000  36.051831999999997 1

# Forces in Cartesian coordinates:
force Ag   0.000008161961146   0.001056370012631  -0.001757702294598 1
force Ag  -0.000020333596324  -0.003117105483724   0.003701981440183 1
force Ag   0.000052684678505   0.002546218513732   0.005025430267747 1
force Ag   0.000009991001986  -0.001095996888666   0.001854085950017 1
force Ag   0.000006038869541   0.000393454913649  -0.001121880950999 1
force Ag  -0.000035452381911  -0.000496843592842  -0.001002218876536 1
force Ag   0.000010113510111  -0.000591839554246  -0.000497407847812 1
force Ag  -0.000030265573741   0.000101945407584   0.000223197157853 1
force Ag   0.000058937141404  -0.000146234690628  -0.000391026648783 1
force Ag   0.000019097183751  -0.000037969290647  -0.000038471923361 1
force Ag   0.000038657816345  -0.000008994530880  -0.000043371069858 1
force Ag  -0.000075040612376   0.000021870740985  -0.000046522589361 1
force Ag  -0.000022444772783   0.000138194449407   0.000309100053231 1
force Ag   0.000022480978071  -0.000087100868202  -0.000292298812193 1
force Ag  -0.000031758186566   0.000596040466904   0.000462387905001 1
force Ag   0.000087528691033   0.000540654939322   0.000996187524038 1
force Ag  -0.000068300603902  -0.000396571544820   0.001136391419676 1
force Ag  -0.000003075763487  -0.002533572005070  -0.004985068923884 1
force Ag  -0.000034309125847   0.003076982150582  -0.003631422404096 1

# Energy components:
   A_diel =       -0.0012382718558232
   Eewald =    15833.0875170978324604
       EH =    18413.2334782796897343
     Eloc =   -37491.5186860154717579
      Enl =       74.9218784159674982
     EvdW =       -0.3030152530563577
      Exc =     -275.4117158295209720
 Exc_core =        3.9552384612395004
       KE =      637.3711121063122391
-------------------------------------
     Etot =    -2804.6654310088642887
       TS =        0.0003684122474313
-------------------------------------
        F =    -2804.6657994211118421


Dumping 'jdft.fillings' ... done
Dumping 'jdft.wfns' ... done
Dumping 'jdft.fluidState' ... done
Dumping 'jdft.ionpos' ... done
Dumping 'jdft.lattice' ... done
Dumping 'jdft.eigenvals' ... done
Dumping 'jdft.eigStats' ... 
	eMin: -3.528569 at state 55 ( [ +0.000000 +0.000000 +0.000000 ] spin -1 )
	HOMO: -0.143153 at state 91 ( [ -0.363636 +0.200000 +0.000000 ] spin -1 )
	mu  : -0.142901
	LUMO: -0.142627 at state 49 ( [ -0.181818 -0.200000 +0.000000 ] spin 1 )
	eMax: +0.208712 at state 51 ( [ -0.090909 +0.200000 +0.000000 ] spin 1 )
	HOMO-LUMO gap: +0.000526
	Optical gap  : +0.003228 at state 14 ( [ +0.181818 -0.200000 +0.000000 ] spin 1 )
Dumping 'jdft.Ecomponents' ... done
IonicMinimize: Iter:   0  F: -2804.665799421111842  |grad|_K:  1.481e-03  t[s]:   5124.44

#--- Lowdin population analysis ---
# oxidation-state Ag +0.102 +0.011 -0.065 +0.102 -0.013 -0.001 +0.003 +0.004 +0.002 +0.001 +0.005 +0.001 +0.002 +0.004 +0.003 -0.001 -0.013 -0.065 +0.011
# magnetic-moments Ag +0.000 +0.000 +0.000 +0.000 +0.000 +0.000 +0.000 +0.000 +0.000 +0.000 +0.000 +0.000 +0.000 +0.000 +0.000 +0.000 +0.000 +0.000 +0.000


Computing DFT-D3 correction:
# coordination-number Ag 5.364 6.888 8.403 5.364 9.187 9.200 9.209 9.213 9.213 9.213 9.213 9.213 9.213 9.213 9.209 9.200 9.187 8.403 6.888
# diagonal-C6 Ag 268.61 268.61 268.61 268.61 268.61 268.61 268.61 268.61 268.61 268.61 268.61 268.61 268.61 268.61 268.61 268.61 268.61 268.61 268.61
EvdW_6 =   -0.130469
EvdW_8 =   -0.172525

-------- Electronic minimization -----------
	Linear fluid (dielectric constant: 78.4, screening length: 8.12261 Bohr) occupying 0.375454 of unit cell:	Completed after 13 iterations at t[s]:   5156.48
	FillingsUpdate:  mu: -0.142747903  nElectrons: 361.000000  magneticMoment: [ Abs: 0.00000  Tot: +0.00000 ]
ElecMinimize: Iter:   0  F: -2804.665885092192184  |grad|_K:  1.795e-07  alpha:  1.000e+00
	Linear fluid (dielectric constant: 78.4, screening length: 8.12261 Bohr) occupying 0.375446 of unit cell:	Completed after 19 iterations at t[s]:   5224.05
	Linear fluid (dielectric constant: 78.4, screening length: 8.12261 Bohr) occupying 0.375450 of unit cell:	Completed after 19 iterations at t[s]:   5247.20
	FillingsUpdate:  mu: -0.143743947  nElectrons: 361.000000  magneticMoment: [ Abs: 0.00000  Tot: +0.00000 ]
	SubspaceRotationAdjust: set factor to 0.145
ElecMinimize: Iter:   1  F: -2804.665891683543578  |grad|_K:  2.242e-07  alpha:  4.660e-01  linmin:  6.943e-07  t[s]:   5281.19
	Linear fluid (dielectric constant: 78.4, screening length: 8.12261 Bohr) occupying 0.375473 of unit cell:	Completed after 17 iterations at t[s]:   5310.66
	Linear fluid (dielectric constant: 78.4, screening length: 8.12261 Bohr) occupying 0.375476 of unit cell:	Completed after 10 iterations at t[s]:   5332.98
	FillingsUpdate:  mu: -0.142731552  nElectrons: 361.000000  magneticMoment: [ Abs: 0.00000  Tot: +0.00000 ]
	SubspaceRotationAdjust: set factor to 0.144
ElecMinimize: Iter:   2  F: -2804.665903585921569  |grad|_K:  1.938e-07  alpha:  5.395e-01  linmin:  4.849e-06  t[s]:   5367.02
	Linear fluid (dielectric constant: 78.4, screening length: 8.12261 Bohr) occupying 0.375491 of unit cell:	Completed after 10 iterations at t[s]:   5395.89
	Linear fluid (dielectric constant: 78.4, screening length: 8.12261 Bohr) occupying 0.375494 of unit cell:	Completed after 2 iterations at t[s]:   5417.47
	FillingsUpdate:  mu: -0.142663371  nElectrons: 361.000000  magneticMoment: [ Abs: 0.00000  Tot: +0.00000 ]
	SubspaceRotationAdjust: set factor to 0.166
ElecMinimize: Iter:   3  F: -2804.665914019845331  |grad|_K:  1.526e-07  alpha:  6.332e-01  linmin: -1.815e-06  t[s]:   5451.48
	Linear fluid (dielectric constant: 78.4, screening length: 8.12261 Bohr) occupying 0.375498 of unit cell:	Completed after 15 iterations at t[s]:   5481.15
	Linear fluid (dielectric constant: 78.4, screening length: 8.12261 Bohr) occupying 0.375496 of unit cell:	Completed after 12 iterations at t[s]:   5503.63
	FillingsUpdate:  mu: -0.143003970  nElectrons: 361.000000  magneticMoment: [ Abs: 0.00000  Tot: +0.00000 ]
	SubspaceRotationAdjust: set factor to 0.158
ElecMinimize: Iter:   4  F: -2804.665917602732861  |grad|_K:  9.185e-08  alpha:  3.502e-01  linmin:  6.199e-06  t[s]:   5537.49
	Linear fluid (dielectric constant: 78.4, screening length: 8.12261 Bohr) occupying 0.375499 of unit cell:	Completed after 10 iterations at t[s]:   5566.55
	Linear fluid (dielectric constant: 78.4, screening length: 8.12261 Bohr) occupying 0.375499 of unit cell:	Completed after 2 iterations at t[s]:   5588.11
	FillingsUpdate:  mu: -0.142874871  nElectrons: 361.000000  magneticMoment: [ Abs: 0.00000  Tot: +0.00000 ]
	SubspaceRotationAdjust: set factor to 0.161
ElecMinimize: Iter:   5  F: -2804.665919052605659  |grad|_K:  4.819e-08  alpha:  3.917e-01  linmin: -4.840e-05  t[s]:   5622.00
	Linear fluid (dielectric constant: 78.4, screening length: 8.12261 Bohr) occupying 0.375498 of unit cell:	Completed after 2 iterations at t[s]:   5650.31
	Linear fluid (dielectric constant: 78.4, screening length: 8.12261 Bohr) occupying 0.375498 of unit cell:	Completed after 0 iterations at t[s]:   5671.77
	FillingsUpdate:  mu: -0.142877929  nElectrons: 361.000000  magneticMoment: [ Abs: 0.00000  Tot: +0.00000 ]
	SubspaceRotationAdjust: set factor to 0.178
ElecMinimize: Iter:   6  F: -2804.665919491850218  |grad|_K:  3.045e-08  alpha:  4.298e-01  linmin: -1.978e-04  t[s]:   5705.62
	Linear fluid (dielectric constant: 78.4, screening length: 8.12261 Bohr) occupying 0.375496 of unit cell:	Completed after 6 iterations at t[s]:   5734.29
	Linear fluid (dielectric constant: 78.4, screening length: 8.12261 Bohr) occupying 0.375496 of unit cell:	Completed after 0 iterations at t[s]:   5755.75
	FillingsUpdate:  mu: -0.142942942  nElectrons: 361.000000  magneticMoment: [ Abs: 0.00000  Tot: +0.00000 ]
	SubspaceRotationAdjust: set factor to 0.187
ElecMinimize: Iter:   7  F: -2804.665919647512510  |grad|_K:  1.960e-08  alpha:  3.801e-01  linmin:  2.322e-04  t[s]:   5789.93
	Linear fluid (dielectric constant: 78.4, screening length: 8.12261 Bohr) occupying 0.375495 of unit cell:	Completed after 4 iterations at t[s]:   5818.37
	Linear fluid (dielectric constant: 78.4, screening length: 8.12261 Bohr) occupying 0.375495 of unit cell:	Completed after 0 iterations at t[s]:   5839.85
	FillingsUpdate:  mu: -0.142906319  nElectrons: 361.000000  magneticMoment: [ Abs: 0.00000  Tot: +0.00000 ]
	SubspaceRotationAdjust: set factor to 0.193
ElecMinimize: Iter:   8  F: -2804.665919713695985  |grad|_K:  1.301e-08  alpha:  3.950e-01  linmin: -8.724e-04  t[s]:   5873.89
	Linear fluid (dielectric constant: 78.4, screening length: 8.12261 Bohr) occupying 0.375494 of unit cell:	Completed after 3 iterations at t[s]:   5902.30
	Linear fluid (dielectric constant: 78.4, screening length: 8.12261 Bohr) occupying 0.375494 of unit cell:	Completed after 0 iterations at t[s]:   5923.64
	FillingsUpdate:  mu: -0.142916180  nElectrons: 361.000000  magneticMoment: [ Abs: 0.00000  Tot: +0.00000 ]
	SubspaceRotationAdjust: set factor to 0.249
ElecMinimize: Iter:   9  F: -2804.665919745651991  |grad|_K:  9.814e-09  alpha:  4.121e-01  linmin: -2.256e-04  t[s]:   5957.40
ElecMinimize: Converged (|Delta F|<1.000000e-07 for 2 iters).
Setting wave functions to eigenvectors of Hamiltonian
Converging empty states (this may take a while): |deigs|: 1.853e-08

Computing DFT-D3 correction:
# coordination-number Ag 5.364 6.888 8.403 5.364 9.187 9.200 9.209 9.213 9.213 9.213 9.213 9.213 9.213 9.213 9.209 9.200 9.187 8.403 6.888
# diagonal-C6 Ag 268.61 268.61 268.61 268.61 268.61 268.61 268.61 268.61 268.61 268.61 268.61 268.61 268.61 268.61 268.61 268.61 268.61 268.61 268.61
EvdW_6 =   -0.130469
EvdW_8 =   -0.172525
IonicMinimize: 	Wolfe criterion not satisfied: alpha: 1  (E-E0)/|gdotd0|: -0.962793  gdotd/gdotd0: 0.933368 (taking cubic step)

Computing DFT-D3 correction:
# coordination-number Ag 5.369 6.878 8.400 5.370 9.169 9.190 9.205 9.216 9.213 9.215 9.213 9.215 9.214 9.216 9.206 9.191 9.169 8.401 6.879
# diagonal-C6 Ag 268.61 268.61 268.61 268.61 268.61 268.61 268.61 268.61 268.61 268.61 268.61 268.61 268.61 268.61 268.61 268.61 268.61 268.61 268.61
EvdW_6 =   -0.130454
EvdW_8 =   -0.172499

-------- Electronic minimization -----------
	Linear fluid (dielectric constant: 78.4, screening length: 8.12261 Bohr) occupying 0.375431 of unit cell:	Completed after 15 iterations at t[s]:   6072.52
	FillingsUpdate:  mu: -0.143317367  nElectrons: 361.000000  magneticMoment: [ Abs: 0.00000  Tot: +0.00000 ]
ElecMinimize: Iter:   0  F: -2804.666002608447343  |grad|_K:  3.316e-07  alpha:  1.000e+00
	Linear fluid (dielectric constant: 78.4, screening length: 8.12261 Bohr) occupying 0.375468 of unit cell:	Completed after 16 iterations at t[s]:   6139.75
	Linear fluid (dielectric constant: 78.4, screening length: 8.12261 Bohr) occupying 0.375469 of unit cell:	Completed after 2 iterations at t[s]:   6161.38
	FillingsUpdate:  mu: -0.142528975  nElectrons: 361.000000  magneticMoment: [ Abs: 0.00000  Tot: +0.00000 ]
	SubspaceRotationAdjust: set factor to 0.327
ElecMinimize: Iter:   1  F: -2804.666051671010791  |grad|_K:  4.235e-07  alpha:  1.017e+00  linmin: -6.969e-07  t[s]:   6195.43
	Linear fluid (dielectric constant: 78.4, screening length: 8.12261 Bohr) occupying 0.375501 of unit cell:	Completed after 21 iterations at t[s]:   6225.29
	Linear fluid (dielectric constant: 78.4, screening length: 8.12261 Bohr) occupying 0.375487 of unit cell:	Completed after 19 iterations at t[s]:   6248.50
	FillingsUpdate:  mu: -0.144043748  nElectrons: 361.000000  magneticMoment: [ Abs: 0.00000  Tot: +0.00000 ]
	SubspaceRotationAdjust: set factor to 0.314
ElecMinimize: Iter:   2  F: -2804.666095963080352  |grad|_K:  4.782e-07  alpha:  5.624e-01  linmin:  2.951e-07  t[s]:   6282.45
	Linear fluid (dielectric constant: 78.4, screening length: 8.12261 Bohr) occupying 0.375571 of unit cell:	Completed after 22 iterations at t[s]:   6312.40
	Linear fluid (dielectric constant: 78.4, screening length: 8.12261 Bohr) occupying 0.375524 of unit cell:	Completed after 19 iterations at t[s]:   6335.57
	FillingsUpdate:  mu: -0.142127926  nElectrons: 361.000000  magneticMoment: [ Abs: 0.00000  Tot: -0.00000 ]
	SubspaceRotationAdjust: set factor to 0.202
ElecMinimize: Iter:   3  F: -2804.666121365541585  |grad|_K:  3.185e-07  alpha:  2.530e-01  linmin:  1.761e-06  t[s]:   6369.60
	Linear fluid (dielectric constant: 78.4, screening length: 8.12261 Bohr) occupying 0.375520 of unit cell:	Completed after 17 iterations at t[s]:   6399.29
	Linear fluid (dielectric constant: 78.4, screening length: 8.12261 Bohr) occupying 0.375520 of unit cell:	Completed after 6 iterations at t[s]:   6421.24
	FillingsUpdate:  mu: -0.143015368  nElectrons: 361.000000  magneticMoment: [ Abs: 0.00000  Tot: -0.00000 ]
	SubspaceRotationAdjust: set factor to 0.157
ElecMinimize: Iter:   4  F: -2804.666133254967917  |grad|_K:  1.687e-07  alpha:  2.671e-01  linmin:  6.757e-06  t[s]:   6455.39
	Linear fluid (dielectric constant: 78.4, screening length: 8.12261 Bohr) occupying 0.375520 of unit cell:	Completed after 7 iterations at t[s]:   6484.13
	Linear fluid (dielectric constant: 78.4, screening length: 8.12261 Bohr) occupying 0.375520 of unit cell:	Completed after 2 iterations at t[s]:   6505.80
	FillingsUpdate:  mu: -0.143042417  nElectrons: 361.000000  magneticMoment: [ Abs: 0.00000  Tot: -0.00000 ]
	SubspaceRotationAdjust: set factor to 0.176
ElecMinimize: Iter:   5  F: -2804.666137736838664  |grad|_K:  8.910e-08  alpha:  3.589e-01  linmin: -1.831e-05  t[s]:   6539.69
	Linear fluid (dielectric constant: 78.4, screening length: 8.12261 Bohr) occupying 0.375521 of unit cell:	Completed after 10 iterations at t[s]:   6568.82
	Linear fluid (dielectric constant: 78.4, screening length: 8.12261 Bohr) occupying 0.375521 of unit cell:	Completed after 0 iterations at t[s]:   6590.36
	FillingsUpdate:  mu: -0.142849077  nElectrons: 361.000000  magneticMoment: [ Abs: 0.00000  Tot: -0.00000 ]
	SubspaceRotationAdjust: set factor to 0.159
ElecMinimize: Iter:   6  F: -2804.666138964385937  |grad|_K:  5.448e-08  alpha:  3.522e-01  linmin:  7.747e-07  t[s]:   6624.44
	Linear fluid (dielectric constant: 78.4, screening length: 8.12261 Bohr) occupying 0.375518 of unit cell:	Completed after 10 iterations at t[s]:   6653.53
	Linear fluid (dielectric constant: 78.4, screening length: 8.12261 Bohr) occupying 0.375518 of unit cell:	Completed after 0 iterations at t[s]:   6675.04
	FillingsUpdate:  mu: -0.142971956  nElectrons: 361.000000  magneticMoment: [ Abs: 0.00000  Tot: -0.00000 ]
	SubspaceRotationAdjust: set factor to 0.129
ElecMinimize: Iter:   7  F: -2804.666139429749364  |grad|_K:  2.947e-08  alpha:  3.571e-01  linmin: -2.704e-04  t[s]:   6708.96
	Linear fluid (dielectric constant: 78.4, screening length: 8.12261 Bohr) occupying 0.375517 of unit cell:	Completed after 6 iterations at t[s]:   6737.50
	Linear fluid (dielectric constant: 78.4, screening length: 8.12261 Bohr) occupying 0.375517 of unit cell:	Completed after 2 iterations at t[s]:   6759.13
	FillingsUpdate:  mu: -0.142956747  nElectrons: 361.000000  magneticMoment: [ Abs: 0.00000  Tot: -0.00000 ]
	SubspaceRotationAdjust: set factor to 0.127
ElecMinimize: Iter:   8  F: -2804.666139589054637  |grad|_K:  1.935e-08  alpha:  4.149e-01  linmin: -6.811e-05  t[s]:   6793.07
	Linear fluid (dielectric constant: 78.4, screening length: 8.12261 Bohr) occupying 0.375515 of unit cell:	Completed after 2 iterations at t[s]:   6821.32
	Linear fluid (dielectric constant: 78.4, screening length: 8.12261 Bohr) occupying 0.375515 of unit cell:	Completed after 1 iterations at t[s]:   6842.94
	FillingsUpdate:  mu: -0.142955013  nElectrons: 361.000000  magneticMoment: [ Abs: 0.00000  Tot: -0.00000 ]
	SubspaceRotationAdjust: set factor to 0.139
ElecMinimize: Iter:   9  F: -2804.666139643880797  |grad|_K:  1.213e-08  alpha:  3.343e-01  linmin:  9.947e-05  t[s]:   6876.95
	Linear fluid (dielectric constant: 78.4, screening length: 8.12261 Bohr) occupying 0.375514 of unit cell:	Completed after 2 iterations at t[s]:   6905.30
	Linear fluid (dielectric constant: 78.4, screening length: 8.12261 Bohr) occupying 0.375514 of unit cell:	Completed after 0 iterations at t[s]:   6927.08
	FillingsUpdate:  mu: -0.142963440  nElectrons: 361.000000  magneticMoment: [ Abs: 0.00000  Tot: -0.00000 ]
	SubspaceRotationAdjust: set factor to 0.159
ElecMinimize: Iter:  10  F: -2804.666139669652239  |grad|_K:  7.169e-09  alpha:  4.027e-01  linmin: -5.466e-04  t[s]:   6961.08
ElecMinimize: Converged (|Delta F|<1.000000e-07 for 2 iters).
Setting wave functions to eigenvectors of Hamiltonian
Converging empty states (this may take a while): |deigs|: 3.769e-08

Computing DFT-D3 correction:
# coordination-number Ag 5.369 6.878 8.400 5.370 9.169 9.190 9.205 9.216 9.213 9.215 9.213 9.215 9.214 9.216 9.206 9.191 9.169 8.401 6.879
# diagonal-C6 Ag 268.61 268.61 268.61 268.61 268.61 268.61 268.61 268.61 268.61 268.61 268.61 268.61 268.61 268.61 268.61 268.61 268.61 268.61 268.61
EvdW_6 =   -0.130454
EvdW_8 =   -0.172499

# Ionic positions in cartesian coordinates:
ion Ag   0.000023636744234   7.464390504278145  65.943170466372578 1
ion Ag   2.710164150071825   3.099495077789079  64.200910517576929 1
ion Ag   2.710381204896313  10.577700049781448  62.446308864059617 1
ion Ag   2.710255123866754  11.810307403574255  34.298770831106431 1
ion Ag   0.000019267469419   6.218867758981200  60.669227930403373 1
ion Ag   2.710115793715065   1.863822863461728  58.910947916626768 1
ion Ag   2.710255491391128   9.324751875577515  57.153823349712930 1
ion Ag  -0.000091645860428   4.974459230463004  55.397346164729932 1
ion Ag   2.710401962285009   0.621340690168369  53.636931493310037 1
ion Ag   2.710279442412050   8.082879486368311  51.879350157486286 1
ion Ag   0.000120124309833   3.730580410647613  50.120696460046808 1
ion Ag  -0.000222970976333  11.191888006463207  48.362048005488290 1
ion Ag   2.710160816542449   6.839862977588472  46.604475873416064 1
ion Ag   0.000068593795009   2.486813091635646  44.844098676819797 1
ion Ag  -0.000090123698901   9.950076515640966  43.087723736971377 1
ion Ag   2.710487736933895   5.597536359058218  41.330686135828486 1
ion Ag  -0.000200750950911   1.242350679605793  39.572467747515404 1
ion Ag  -0.000007076429666   8.697153678225042  37.795464366484730 1
ion Ag   2.710125223483256   4.361611340691997  36.040953306044088 1

# Forces in Cartesian coordinates:
force Ag   0.000009591583357   0.000779754676111  -0.001668834142608 1
force Ag  -0.000019925265748  -0.002393040095566   0.003338826106603 1
force Ag   0.000048006715569   0.002146022181800   0.004078230413847 1
force Ag   0.000010517390188  -0.000814324849894   0.001725833604681 1
force Ag   0.000006085390446   0.000299386918768  -0.000654574009694 1
force Ag  -0.000030571921162  -0.000560233680320  -0.000604292653735 1
force Ag   0.000007359979084  -0.000377912987382  -0.000173618447497 1
force Ag  -0.000029101700158   0.000016066708384   0.000122509906434 1
force Ag   0.000057190108888  -0.000119497351397  -0.000351863083507 1
force Ag   0.000017491499378  -0.000061474156111  -0.000050548193635 1
force Ag   0.000035347927549  -0.000008745175974  -0.000028821511852 1
force Ag  -0.000067545163409   0.000045539635773  -0.000006524741066 1
force Ag  -0.000024106975405   0.000111965711197   0.000307271355279 1
force Ag   0.000021503441455  -0.000003046615510  -0.000155089462240 1
force Ag  -0.000027214461048   0.000388845444484   0.000170085064945 1
force Ag   0.000077079405198   0.000593223354614   0.000621892271954 1
force Ag  -0.000063111935801  -0.000298270118580   0.000689000283022 1
force Ag  -0.000003255124528  -0.002134521110387  -0.004041569552722 1
force Ag  -0.000030298921839   0.002356914743937  -0.003294201788313 1

# Energy components:
   A_diel =       -0.0012449768055737
   Eewald =    15825.2878902216580173
       EH =    18405.4293830552487634
     Eloc =   -37475.9127538776447182
      Enl =       74.9220433242456636
     EvdW =       -0.3029528815839530
      Exc =     -275.4098910381101177
 Exc_core =        3.9552387063743151
       KE =      637.3665150699084734
-------------------------------------
     Etot =    -2804.6657723967109632
       TS =        0.0003672729413418
-------------------------------------
        F =    -2804.6661396696522388


Dumping 'jdft.fillings' ... done
Dumping 'jdft.wfns' ... done
Dumping 'jdft.fluidState' ... done
Dumping 'jdft.ionpos' ... done
Dumping 'jdft.lattice' ... done
Dumping 'jdft.eigenvals' ... done
Dumping 'jdft.eigStats' ... 
	eMin: -3.528595 at state 0 ( [ +0.000000 +0.000000 +0.000000 ] spin 1 )
	HOMO: -0.143154 at state 24 ( [ +0.363636 -0.200000 +0.000000 ] spin 1 )
	mu  : -0.142963
	LUMO: -0.142591 at state 66 ( [ +0.181818 +0.200000 +0.000000 ] spin -1 )
	eMax: +0.208718 at state 9 ( [ +0.090909 -0.200000 +0.000000 ] spin 1 )
	HOMO-LUMO gap: +0.000563
	Optical gap  : +0.003164 at state 101 ( [ -0.181818 +0.200000 +0.000000 ] spin -1 )
Dumping 'jdft.Ecomponents' ... done
IonicMinimize: Iter:   1  F: -2804.666139669652239  |grad|_K:  1.226e-03  alpha:  3.000e+00  linmin: -9.955e-01  t[s]:   7044.59

#--- Lowdin population analysis ---
# oxidation-state Ag +0.101 +0.011 -0.066 +0.101 -0.012 -0.000 +0.003 +0.004 +0.002 +0.001 +0.005 +0.001 +0.002 +0.004 +0.003 -0.000 -0.012 -0.066 +0.011
# magnetic-moments Ag +0.000 +0.000 -0.000 +0.000 +0.000 -0.000 -0.000 +0.000 +0.000 -0.000 +0.000 +0.000 +0.000 -0.000 -0.000 -0.000 -0.000 -0.000 -0.000


Computing DFT-D3 correction:
# coordination-number Ag 5.471 6.802 8.396 5.470 9.009 9.102 9.154 9.189 9.208 9.217 9.233 9.219 9.211 9.193 9.157 9.102 9.008 8.394 6.799
# diagonal-C6 Ag 268.61 268.61 268.61 268.61 268.61 268.61 268.61 268.61 268.61 268.61 268.61 268.61 268.61 268.61 268.61 268.61 268.61 268.61 268.61
EvdW_6 =   -0.130241
EvdW_8 =   -0.172213

-------- Electronic minimization -----------
	Linear fluid (dielectric constant: 78.4, screening length: 8.12261 Bohr) occupying 0.375704 of unit cell:	Completed after 23 iterations at t[s]:   7073.91
	FillingsUpdate:  mu: +0.102299663  nElectrons: 361.000000  magneticMoment: [ Abs: 0.00000  Tot: -0.00000 ]
ElecMinimize: Iter:   0  F: -2803.095199660531307  |grad|_K:  1.120e-04  alpha:  1.000e+00
	Linear fluid (dielectric constant: 78.4, screening length: 8.12261 Bohr) occupying 0.361817 of unit cell:	Completed after 24 iterations at t[s]:   7142.36
	Linear fluid (dielectric constant: 78.4, screening length: 8.12261 Bohr) occupying 0.372312 of unit cell:	Completed after 23 iterations at t[s]:   7165.83
	FillingsUpdate:  mu: -0.289604933  nElectrons: 361.000000  magneticMoment: [ Abs: 0.00000  Tot: +0.00000 ]
	SubspaceRotationAdjust: set factor to 0.124
ElecMinimize: Iter:   1  F: -2804.463947431344423  |grad|_K:  3.759e-05  alpha:  2.683e-01  linmin:  7.884e-03  t[s]:   7199.85
	Linear fluid (dielectric constant: 78.4, screening length: 8.12261 Bohr) occupying 0.374322 of unit cell:	Completed after 21 iterations at t[s]:   7229.77
	Linear fluid (dielectric constant: 78.4, screening length: 8.12261 Bohr) occupying 0.374179 of unit cell:	Completed after 18 iterations at t[s]:   7252.87
	FillingsUpdate:  mu: -0.155773511  nElectrons: 361.000000  magneticMoment: [ Abs: 0.00000  Tot: +0.00000 ]
	SubspaceRotationAdjust: set factor to 0.126
ElecMinimize: Iter:   2  F: -2804.607396389441874  |grad|_K:  1.082e-05  alpha:  2.484e-01  linmin: -2.755e-04  t[s]:   7287.28
	Linear fluid (dielectric constant: 78.4, screening length: 8.12261 Bohr) occupying 0.374486 of unit cell:	Completed after 19 iterations at t[s]:   7317.12
	Linear fluid (dielectric constant: 78.4, screening length: 8.12261 Bohr) occupying 0.374600 of unit cell:	Completed after 16 iterations at t[s]:   7340.22
	FillingsUpdate:  mu: -0.149948242  nElectrons: 361.000000  magneticMoment: [ Abs: 0.00000  Tot: +0.00000 ]
	SubspaceRotationAdjust: set factor to 0.169
ElecMinimize: Iter:   3  F: -2804.625045678260904  |grad|_K:  6.308e-06  alpha:  3.422e-01  linmin: -3.300e-05  t[s]:   7374.30
	Linear fluid (dielectric constant: 78.4, screening length: 8.12261 Bohr) occupying 0.374912 of unit cell:	Completed after 18 iterations at t[s]:   7404.10
	Linear fluid (dielectric constant: 78.4, screening length: 8.12261 Bohr) occupying 0.375019 of unit cell:	Completed after 16 iterations at t[s]:   7426.98
	FillingsUpdate:  mu: -0.153938934  nElectrons: 361.000000  magneticMoment: [ Abs: 0.00000  Tot: +0.00000 ]
	SubspaceRotationAdjust: set factor to 0.222
ElecMinimize: Iter:   4  F: -2804.633106966323794  |grad|_K:  5.992e-06  alpha:  4.611e-01  linmin: -1.994e-06  t[s]:   7460.80
	Linear fluid (dielectric constant: 78.4, screening length: 8.12261 Bohr) occupying 0.375765 of unit cell:	Completed after 18 iterations at t[s]:   7490.76
	Linear fluid (dielectric constant: 78.4, screening length: 8.12261 Bohr) occupying 0.376161 of unit cell:	Completed after 18 iterations at t[s]:   7513.70
	FillingsUpdate:  mu: -0.125831860  nElectrons: 361.000000  magneticMoment: [ Abs: 0.00000  Tot: +0.00000 ]
	SubspaceRotationAdjust: set factor to 0.263
ElecMinimize: Iter:   5  F: -2804.644334292748681  |grad|_K:  6.268e-06  alpha:  7.116e-01  linmin: -8.770e-06  t[s]:   7547.55
	Linear fluid (dielectric constant: 78.4, screening length: 8.12261 Bohr) occupying 0.376615 of unit cell:	Completed after 19 iterations at t[s]:   7578.18
	Linear fluid (dielectric constant: 78.4, screening length: 8.12261 Bohr) occupying 0.376518 of unit cell:	Completed after 16 iterations at t[s]:   7601.05
	FillingsUpdate:  mu: -0.149425046  nElectrons: 361.000000  magneticMoment: [ Abs: 0.00000  Tot: +0.00000 ]
	SubspaceRotationAdjust: set factor to 0.28
ElecMinimize: Iter:   6  F: -2804.653375695551858  |grad|_K:  6.298e-06  alpha:  5.278e-01  linmin: -1.354e-05  t[s]:   7634.87
	Linear fluid (dielectric constant: 78.4, screening length: 8.12261 Bohr) occupying 0.376996 of unit cell:	Completed after 18 iterations at t[s]:   7664.50
	Linear fluid (dielectric constant: 78.4, screening length: 8.12261 Bohr) occupying 0.376904 of unit cell:	Completed after 16 iterations at t[s]:   7687.47
	FillingsUpdate:  mu: -0.124576418  nElectrons: 361.000000  magneticMoment: [ Abs: 0.00000  Tot: +0.00000 ]
	SubspaceRotationAdjust: set factor to 0.26
ElecMinimize: Iter:   7  F: -2804.660533152317839  |grad|_K:  5.042e-06  alpha:  4.059e-01  linmin:  1.929e-05  t[s]:   7721.22
	Linear fluid (dielectric constant: 78.4, screening length: 8.12261 Bohr) occupying 0.376397 of unit cell:	Completed after 18 iterations at t[s]:   7750.89
	Linear fluid (dielectric constant: 78.4, screening length: 8.12261 Bohr) occupying 0.376491 of unit cell:	Completed after 15 iterations at t[s]:   7773.82
	FillingsUpdate:  mu: -0.149932832  nElectrons: 361.000000  magneticMoment: [ Abs: 0.00000  Tot: +0.00000 ]
	SubspaceRotationAdjust: set factor to 0.206
ElecMinimize: Iter:   8  F: -2804.664248548614978  |grad|_K:  3.356e-06  alpha:  3.353e-01  linmin: -1.104e-05  t[s]:   7807.83
	Linear fluid (dielectric constant: 78.4, screening length: 8.12261 Bohr) occupying 0.376388 of unit cell:	Completed after 18 iterations at t[s]:   7837.66
	Linear fluid (dielectric constant: 78.4, screening length: 8.12261 Bohr) occupying 0.376396 of unit cell:	Completed after 14 iterations at t[s]:   7860.42
	FillingsUpdate:  mu: -0.138071849  nElectrons: 361.000000  magneticMoment: [ Abs: 0.00000  Tot: +0.00000 ]
	SubspaceRotationAdjust: set factor to 0.169
ElecMinimize: Iter:   9  F: -2804.665798984577123  |grad|_K:  2.024e-06  alpha:  3.128e-01  linmin:  1.100e-05  t[s]:   7894.47
	Linear fluid (dielectric constant: 78.4, screening length: 8.12261 Bohr) occupying 0.376200 of unit cell:	Completed after 16 iterations at t[s]:   7924.19
	Linear fluid (dielectric constant: 78.4, screening length: 8.12261 Bohr) occupying 0.376150 of unit cell:	Completed after 12 iterations at t[s]:   7946.87
	FillingsUpdate:  mu: -0.143275217  nElectrons: 361.000000  magneticMoment: [ Abs: 0.00000  Tot: +0.00000 ]
	SubspaceRotationAdjust: set factor to 0.177
ElecMinimize: Iter:  10  F: -2804.666499919393118  |grad|_K:  1.359e-06  alpha:  3.903e-01  linmin:  3.193e-06  t[s]:   7980.97
	Linear fluid (dielectric constant: 78.4, screening length: 8.12261 Bohr) occupying 0.375984 of unit cell:	Completed after 15 iterations at t[s]:   8010.47
	Linear fluid (dielectric constant: 78.4, screening length: 8.12261 Bohr) occupying 0.376000 of unit cell:	Completed after 7 iterations at t[s]:   8032.64
	FillingsUpdate:  mu: -0.144550488  nElectrons: 361.000000  magneticMoment: [ Abs: 0.00000  Tot: +0.00000 ]
	SubspaceRotationAdjust: set factor to 0.197
ElecMinimize: Iter:  11  F: -2804.666785887151946  |grad|_K:  8.168e-07  alpha:  3.531e-01  linmin: -3.356e-06  t[s]:   8066.79
	Linear fluid (dielectric constant: 78.4, screening length: 8.12261 Bohr) occupying 0.375943 of unit cell:	Completed after 15 iterations at t[s]:   8096.25
	Linear fluid (dielectric constant: 78.4, screening length: 8.12261 Bohr) occupying 0.375935 of unit cell:	Completed after 12 iterations at t[s]:   8118.91
	FillingsUpdate:  mu: -0.141555960  nElectrons: 361.000000  magneticMoment: [ Abs: 0.00000  Tot: +0.00000 ]
	SubspaceRotationAdjust: set factor to 0.226
ElecMinimize: Iter:  12  F: -2804.666903667779934  |grad|_K:  6.189e-07  alpha:  4.022e-01  linmin: -9.024e-07  t[s]:   8152.89
	Linear fluid (dielectric constant: 78.4, screening length: 8.12261 Bohr) occupying 0.375847 of unit cell:	Completed after 14 iterations at t[s]:   8182.25
	Linear fluid (dielectric constant: 78.4, screening length: 8.12261 Bohr) occupying 0.375843 of unit cell:	Completed after 10 iterations at t[s]:   8205.00
	FillingsUpdate:  mu: -0.144485155  nElectrons: 361.000000  magneticMoment: [ Abs: 0.00000  Tot: +0.00000 ]
	SubspaceRotationAdjust: set factor to 0.27
ElecMinimize: Iter:  13  F: -2804.666974890190431  |grad|_K:  5.171e-07  alpha:  4.236e-01  linmin: -2.642e-06  t[s]:   8238.82
	Linear fluid (dielectric constant: 78.4, screening length: 8.12261 Bohr) occupying 0.375814 of unit cell:	Completed after 13 iterations at t[s]:   8268.27
	Linear fluid (dielectric constant: 78.4, screening length: 8.12261 Bohr) occupying 0.375810 of unit cell:	Completed after 7 iterations at t[s]:   8290.46
	FillingsUpdate:  mu: -0.143424764  nElectrons: 361.000000  magneticMoment: [ Abs: 0.00000  Tot: +0.00000 ]
	SubspaceRotationAdjust: set factor to 0.362
ElecMinimize: Iter:  14  F: -2804.667030005337438  |grad|_K:  4.528e-07  alpha:  4.695e-01  linmin: -7.788e-07  t[s]:   8324.69
	Linear fluid (dielectric constant: 78.4, screening length: 8.12261 Bohr) occupying 0.375803 of unit cell:	Completed after 13 iterations at t[s]:   8354.15
	Linear fluid (dielectric constant: 78.4, screening length: 8.12261 Bohr) occupying 0.375801 of unit cell:	Completed after 7 iterations at t[s]:   8376.41
	FillingsUpdate:  mu: -0.142637951  nElectrons: 361.000000  magneticMoment: [ Abs: 0.00000  Tot: +0.00000 ]
	SubspaceRotationAdjust: set factor to 0.436
ElecMinimize: Iter:  15  F: -2804.667080966379217  |grad|_K:  4.326e-07  alpha:  5.662e-01  linmin: -3.090e-06  t[s]:   8410.38
	Linear fluid (dielectric constant: 78.4, screening length: 8.12261 Bohr) occupying 0.375772 of unit cell:	Completed after 14 iterations at t[s]:   8439.58
	Linear fluid (dielectric constant: 78.4, screening length: 8.12261 Bohr) occupying 0.375783 of unit cell:	Completed after 13 iterations at t[s]:   8462.31
	FillingsUpdate:  mu: -0.144743705  nElectrons: 361.000000  magneticMoment: [ Abs: 0.00000  Tot: +0.00000 ]
	SubspaceRotationAdjust: set factor to 0.41
ElecMinimize: Iter:  16  F: -2804.667110625901387  |grad|_K:  4.313e-07  alpha:  3.612e-01  linmin:  5.244e-07  t[s]:   8496.43
	Linear fluid (dielectric constant: 78.4, screening length: 8.12261 Bohr) occupying 0.375842 of unit cell:	Completed after 15 iterations at t[s]:   8525.90
	Linear fluid (dielectric constant: 78.4, screening length: 8.12261 Bohr) occupying 0.375815 of unit cell:	Completed after 14 iterations at t[s]:   8548.67
	FillingsUpdate:  mu: -0.142471784  nElectrons: 361.000000  magneticMoment: [ Abs: 0.00000  Tot: +0.00000 ]
	SubspaceRotationAdjust: set factor to 0.288
ElecMinimize: Iter:  17  F: -2804.667126500106406  |grad|_K:  3.278e-07  alpha:  1.943e-01  linmin: -1.095e-06  t[s]:   8582.83
	Linear fluid (dielectric constant: 78.4, screening length: 8.12261 Bohr) occupying 0.375819 of unit cell:	Completed after 12 iterations at t[s]:   8611.97
	Linear fluid (dielectric constant: 78.4, screening length: 8.12261 Bohr) occupying 0.375821 of unit cell:	Completed after 10 iterations at t[s]:   8634.39
	FillingsUpdate:  mu: -0.143465594  nElectrons: 361.000000  magneticMoment: [ Abs: 0.00000  Tot: -0.00000 ]
	SubspaceRotationAdjust: set factor to 0.269
ElecMinimize: Iter:  18  F: -2804.667140748648308  |grad|_K:  2.086e-07  alpha:  3.019e-01  linmin: -2.855e-06  t[s]:   8668.35
	Linear fluid (dielectric constant: 78.4, screening length: 8.12261 Bohr) occupying 0.375832 of unit cell:	Completed after 7 iterations at t[s]:   8697.08
	Linear fluid (dielectric constant: 78.4, screening length: 8.12261 Bohr) occupying 0.375835 of unit cell:	Completed after 2 iterations at t[s]:   8718.79
	FillingsUpdate:  mu: -0.143612192  nElectrons: 361.000000  magneticMoment: [ Abs: 0.00000  Tot: -0.00000 ]
	SubspaceRotationAdjust: set factor to 0.291
ElecMinimize: Iter:  19  F: -2804.667148420302510  |grad|_K:  1.533e-07  alpha:  4.015e-01  linmin: -3.223e-06  t[s]:   8752.99
	Linear fluid (dielectric constant: 78.4, screening length: 8.12261 Bohr) occupying 0.375855 of unit cell:	Completed after 12 iterations at t[s]:   8782.61
	Linear fluid (dielectric constant: 78.4, screening length: 8.12261 Bohr) occupying 0.375853 of unit cell:	Completed after 5 iterations at t[s]:   8804.91
	FillingsUpdate:  mu: -0.143012558  nElectrons: 361.000000  magneticMoment: [ Abs: 0.00000  Tot: -0.00000 ]
	SubspaceRotationAdjust: set factor to 0.293
ElecMinimize: Iter:  20  F: -2804.667152153590905  |grad|_K:  1.219e-07  alpha:  3.612e-01  linmin:  8.019e-05  t[s]:   8839.03
	Linear fluid (dielectric constant: 78.4, screening length: 8.12261 Bohr) occupying 0.375855 of unit cell:	Completed after 12 iterations at t[s]:   8868.28
	Linear fluid (dielectric constant: 78.4, screening length: 8.12261 Bohr) occupying 0.375855 of unit cell:	Completed after 7 iterations at t[s]:   8890.42
	FillingsUpdate:  mu: -0.143627100  nElectrons: 361.000000  magneticMoment: [ Abs: 0.00000  Tot: -0.00000 ]
	SubspaceRotationAdjust: set factor to 0.308
ElecMinimize: Iter:  21  F: -2804.667154142033723  |grad|_K:  9.753e-08  alpha:  3.066e-01  linmin:  1.030e-05  t[s]:   8924.29
	Linear fluid (dielectric constant: 78.4, screening length: 8.12261 Bohr) occupying 0.375864 of unit cell:	Completed after 11 iterations at t[s]:   8953.43
	Linear fluid (dielectric constant: 78.4, screening length: 8.12261 Bohr) occupying 0.375865 of unit cell:	Completed after 3 iterations at t[s]:   8975.36
	FillingsUpdate:  mu: -0.143274735  nElectrons: 361.000000  magneticMoment: [ Abs: 0.00000  Tot: -0.00000 ]
	SubspaceRotationAdjust: set factor to 0.393
ElecMinimize: Iter:  22  F: -2804.667155632511822  |grad|_K:  7.643e-08  alpha:  3.568e-01  linmin: -5.481e-05  t[s]:   9009.35
	Linear fluid (dielectric constant: 78.4, screening length: 8.12261 Bohr) occupying 0.375869 of unit cell:	Completed after 4 iterations at t[s]:   9037.80
	Linear fluid (dielectric constant: 78.4, screening length: 8.12261 Bohr) occupying 0.375870 of unit cell:	Completed after 3 iterations at t[s]:   9059.63
	FillingsUpdate:  mu: -0.143319828  nElectrons: 361.000000  magneticMoment: [ Abs: 0.00000  Tot: -0.00000 ]
	SubspaceRotationAdjust: set factor to 0.532
ElecMinimize: Iter:  23  F: -2804.667156826156770  |grad|_K:  6.715e-08  alpha:  4.640e-01  linmin:  1.564e-05  t[s]:   9093.75
[...]
ElecMinimize: Iter:   9  F: -2804.667584561435433  |grad|_K:  3.051e-08  alpha:  3.820e-01  linmin: -3.852e-04  t[s]:  23994.22
	Linear fluid (dielectric constant: 78.4, screening length: 8.12261 Bohr) occupying 0.372598 of unit cell:	Completed after 2 iterations at t[s]:  24022.65
	Linear fluid (dielectric constant: 78.4, screening length: 8.12261 Bohr) occupying 0.372598 of unit cell:	Completed after 0 iterations at t[s]:  24044.24
	FillingsUpdate:  mu: -0.143622509  nElectrons: 361.000000  magneticMoment: [ Abs: 0.00000  Tot: +0.00000 ]
	SubspaceRotationAdjust: set factor to 0.18
ElecMinimize: Iter:  10  F: -2804.667584720195919  |grad|_K:  2.241e-08  alpha:  3.830e-01  linmin: -3.293e-05  t[s]:  24078.17
	Linear fluid (dielectric constant: 78.4, screening length: 8.12261 Bohr) occupying 0.372599 of unit cell:	Completed after 6 iterations at t[s]:  24107.27
	Linear fluid (dielectric constant: 78.4, screening length: 8.12261 Bohr) occupying 0.372599 of unit cell:	Completed after 0 iterations at t[s]:  24128.89
	FillingsUpdate:  mu: -0.143712648  nElectrons: 361.000000  magneticMoment: [ Abs: 0.00000  Tot: +0.00000 ]
	SubspaceRotationAdjust: set factor to 0.197
ElecMinimize: Iter:  11  F: -2804.667584796799474  |grad|_K:  1.663e-08  alpha:  3.471e-01  linmin:  8.165e-05  t[s]:  24163.00
	Linear fluid (dielectric constant: 78.4, screening length: 8.12261 Bohr) occupying 0.372599 of unit cell:	Completed after 5 iterations at t[s]:  24191.63
	Linear fluid (dielectric constant: 78.4, screening length: 8.12261 Bohr) occupying 0.372599 of unit cell:	Completed after 0 iterations at t[s]:  24213.18
	FillingsUpdate:  mu: -0.143649739  nElectrons: 361.000000  magneticMoment: [ Abs: 0.00000  Tot: -0.00000 ]
	SubspaceRotationAdjust: set factor to 0.217
ElecMinimize: Iter:  12  F: -2804.667584841528878  |grad|_K:  1.301e-08  alpha:  3.678e-01  linmin: -6.507e-04  t[s]:  24247.26
ElecMinimize: Converged (|Delta F|<1.000000e-07 for 2 iters).
Setting wave functions to eigenvectors of Hamiltonian
Converging empty states (this may take a while): |deigs|: 4.294e-08

Computing DFT-D3 correction:
# coordination-number Ag 5.481 6.653 8.348 5.481 8.884 9.017 9.038 9.090 9.066 9.060 9.065 9.060 9.067 9.089 9.040 9.017 8.886 8.346 6.655
# diagonal-C6 Ag 268.61 268.61 268.61 268.61 268.61 268.61 268.61 268.61 268.61 268.61 268.61 268.61 268.61 268.61 268.61 268.61 268.61 268.61 268.61
EvdW_6 =   -0.129191
EvdW_8 =   -0.170845

# Ionic positions in cartesian coordinates:
ion Ag   0.003303526376135   7.511562066019212  65.974233135898757 1
ion Ag   2.712177533686632   3.063930376003650  64.475983434948517 1
ion Ag   2.714238823228240  10.656267309945505  62.595899846901069 1
ion Ag   2.710396614487162  11.763427281077936  34.266660386132365 1
ion Ag   0.001445018135725   6.202520279363240  60.773224498863158 1
ion Ag   2.710253163450538   1.855862354020118  58.990238276913018 1
ion Ag   2.710713107650540   9.310316317244478  57.238071892451266 1
ion Ag  -0.000226759533397   4.959068546478050  55.453094490639558 1
ion Ag   2.714205697749208   0.607321766641745  53.672563559663246 1
ion Ag   2.711842914813863   8.074023459152599  51.904044660322874 1
ion Ag   0.001203939971551   3.730139094697955  50.120977514322405 1
ion Ag  -0.003636883328138  11.199374794517908  48.336927984624651 1
ion Ag   2.707048906341557   6.853930545735545  46.569178783804098 1
ion Ag  -0.000442460372506   2.502368240787628  44.787852449094622 1
ion Ag  -0.002748079840156   9.965363744104490  43.003937703265954 1
ion Ag   2.711374857811883   5.606285051936476  41.251163706099256 1
ion Ag  -0.004754943697068   1.258869532186699  39.468911576390518 1
ion Ag  -0.000967293621970   8.619226751990411  37.645498049573860 1
ion Ag   2.706818316690196   4.396030488096369  35.766940050090724 1

# Forces in Cartesian coordinates:
force Ag   0.000008362136155  -0.000006548910886   0.000147366951883 1
force Ag   0.000006659907636   0.000049311864028  -0.000334204034622 1
force Ag   0.000011467582802   0.000171552242046   0.000103345044560 1
force Ag  -0.000009106010887   0.000017335789462  -0.000118893041383 1
force Ag   0.000013366954923   0.000085824198345  -0.000032306689073 1
force Ag   0.000021355005963  -0.000032347115613   0.000304428846238 1
force Ag   0.000018824859004  -0.000169123571993  -0.000066282934317 1
force Ag   0.000013328244011   0.000379531592325  -0.000178736351393 1
force Ag  -0.000000246394993  -0.000119641918204  -0.000605487304400 1
force Ag   0.000003563797613   0.000259409925211  -0.000264326326740 1
force Ag   0.000002427763826  -0.000021481028569  -0.000031747246717 1
force Ag   0.000005716860592  -0.000190257303613   0.000302068187901 1
force Ag   0.000005987874060   0.000067055633063   0.000573172837132 1
force Ag  -0.000010852126069  -0.000336613188346   0.000223043587902 1
force Ag  -0.000006527317123   0.000137722171295   0.000036581418274 1
force Ag  -0.000016799915581   0.000069187460693  -0.000301085500389 1
force Ag  -0.000000861293683  -0.000102786560836   0.000009149932934 1
force Ag  -0.000014583981993  -0.000158150074630  -0.000124415738722 1
force Ag   0.000004802256050  -0.000026019325529   0.000322708809991 1

# Energy components:
   A_diel =       -0.0012218047564474
   Eewald =    15462.0716608746261045
       EH =    18042.3085465211624978
     Eloc =   -36749.5419438377648476
      Enl =       74.9398453515792795
     EvdW =       -0.3000355547228839
      Exc =     -275.3679991691996065
 Exc_core =        3.9552379282011740
       KE =      637.2687073668486164
-------------------------------------
     Etot =    -2804.6672023240294038
       TS =        0.0003825174996216
-------------------------------------
        F =    -2804.6675848415288783


Dumping 'jdft.fillings' ... done
Dumping 'jdft.wfns' ... done
Dumping 'jdft.fluidState' ... done
Dumping 'jdft.ionpos' ... done
Dumping 'jdft.lattice' ... done
Dumping 'jdft.eigenvals' ... done
Dumping 'jdft.eigStats' ... 
	eMin: -3.527787 at state 0 ( [ +0.000000 +0.000000 +0.000000 ] spin 1 )
	HOMO: -0.144133 at state 79 ( [ +0.363636 -0.200000 +0.000000 ] spin -1 )
	mu  : -0.143650
	LUMO: -0.143476 at state 14 ( [ +0.181818 -0.200000 +0.000000 ] spin 1 )
	eMax: +0.207866 at state 9 ( [ +0.090909 -0.200000 +0.000000 ] spin 1 )
	HOMO-LUMO gap: +0.000658
	Optical gap  : +0.008126 at state 45 ( [ -0.181818 +0.000000 +0.000000 ] spin 1 )
Dumping 'jdft.Ecomponents' ... done
IonicMinimize: Iter:   7  F: -2804.667584841528878  |grad|_K:  1.834e-04  alpha:  4.601e-01  linmin:  1.106e-01  t[s]:  24333.16

#--- Lowdin population analysis ---
# oxidation-state Ag +0.094 +0.018 -0.072 +0.094 -0.006 -0.000 +0.003 +0.003 +0.003 +0.002 +0.005 +0.002 +0.003 +0.003 +0.003 -0.000 -0.006 -0.072 +0.018
# magnetic-moments Ag +0.000 +0.000 +0.000 +0.000 -0.000 +0.000 +0.000 -0.000 +0.000 +0.000 +0.000 +0.000 -0.000 -0.000 +0.000 -0.000 -0.000 +0.000 -0.000


Computing DFT-D3 correction:
# coordination-number Ag 5.471 6.675 8.338 5.472 8.886 9.003 9.035 9.084 9.074 9.092 9.090 9.091 9.073 9.083 9.035 9.003 8.888 8.339 6.678
# diagonal-C6 Ag 268.61 268.61 268.61 268.61 268.61 268.61 268.61 268.61 268.61 268.61 268.61 268.61 268.61 268.61 268.61 268.61 268.61 268.61 268.61
EvdW_6 =   -0.129222
EvdW_8 =   -0.170850

-------- Electronic minimization -----------
	Linear fluid (dielectric constant: 78.4, screening length: 8.12261 Bohr) occupying 0.372602 of unit cell:	Completed after 16 iterations at t[s]:  24365.38
	FillingsUpdate:  mu: -0.144464050  nElectrons: 361.000000  magneticMoment: [ Abs: 0.00000  Tot: -0.00000 ]
ElecMinimize: Iter:   0  F: -2804.667368332243768  |grad|_K:  4.469e-07  alpha:  1.000e+00
	Linear fluid (dielectric constant: 78.4, screening length: 8.12261 Bohr) occupying 0.372649 of unit cell:	Completed after 15 iterations at t[s]:  24432.87
	Linear fluid (dielectric constant: 78.4, screening length: 8.12261 Bohr) occupying 0.372633 of unit cell:	Completed after 14 iterations at t[s]:  24455.61
	FillingsUpdate:  mu: -0.140990078  nElectrons: 361.000000  magneticMoment: [ Abs: 0.00000  Tot: -0.00000 ]
	SubspaceRotationAdjust: set factor to 0.18
ElecMinimize: Iter:   1  F: -2804.667425843358615  |grad|_K:  5.458e-07  alpha:  6.565e-01  linmin: -2.976e-06  t[s]:  24489.57
	Linear fluid (dielectric constant: 78.4, screening length: 8.12261 Bohr) occupying 0.372570 of unit cell:	Completed after 16 iterations at t[s]:  24519.07
	Linear fluid (dielectric constant: 78.4, screening length: 8.12261 Bohr) occupying 0.372590 of unit cell:	Completed after 14 iterations at t[s]:  24541.91
	FillingsUpdate:  mu: -0.145436684  nElectrons: 361.000000  magneticMoment: [ Abs: 0.00000  Tot: -0.00000 ]
	SubspaceRotationAdjust: set factor to 0.162
ElecMinimize: Iter:   2  F: -2804.667484201459956  |grad|_K:  5.117e-07  alpha:  4.462e-01  linmin:  3.026e-07  t[s]:  24576.00
	Linear fluid (dielectric constant: 78.4, screening length: 8.12261 Bohr) occupying 0.372591 of unit cell:	Completed after 15 iterations at t[s]:  24605.53
	Linear fluid (dielectric constant: 78.4, screening length: 8.12261 Bohr) occupying 0.372590 of unit cell:	Completed after 12 iterations at t[s]:  24628.20
	FillingsUpdate:  mu: -0.143549518  nElectrons: 361.000000  magneticMoment: [ Abs: 0.00000  Tot: -0.00000 ]
	SubspaceRotationAdjust: set factor to 0.173
ElecMinimize: Iter:   3  F: -2804.667559250132399  |grad|_K:  3.879e-07  alpha:  6.528e-01  linmin: -7.391e-06  t[s]:  24662.25
	Linear fluid (dielectric constant: 78.4, screening length: 8.12261 Bohr) occupying 0.372585 of unit cell:	Completed after 12 iterations at t[s]:  24691.52
	Linear fluid (dielectric constant: 78.4, screening length: 8.12261 Bohr) occupying 0.372587 of unit cell:	Completed after 10 iterations at t[s]:  24714.14
	FillingsUpdate:  mu: -0.143129257  nElectrons: 361.000000  magneticMoment: [ Abs: 0.00000  Tot: -0.00000 ]
	SubspaceRotationAdjust: set factor to 0.183
ElecMinimize: Iter:   4  F: -2804.667584261235788  |grad|_K:  2.498e-07  alpha:  3.786e-01  linmin:  4.161e-07  t[s]:  24748.17
	Linear fluid (dielectric constant: 78.4, screening length: 8.12261 Bohr) occupying 0.372576 of unit cell:	Completed after 13 iterations at t[s]:  24777.43
	Linear fluid (dielectric constant: 78.4, screening length: 8.12261 Bohr) occupying 0.372577 of unit cell:	Completed after 5 iterations at t[s]:  24799.46
	FillingsUpdate:  mu: -0.144022981  nElectrons: 361.000000  magneticMoment: [ Abs: 0.00000  Tot: -0.00000 ]
	SubspaceRotationAdjust: set factor to 0.171
ElecMinimize: Iter:   5  F: -2804.667593729464443  |grad|_K:  1.372e-07  alpha:  3.458e-01  linmin:  1.898e-05  t[s]:  24833.39
	Linear fluid (dielectric constant: 78.4, screening length: 8.12261 Bohr) occupying 0.372581 of unit cell:	Completed after 12 iterations at t[s]:  24862.69
	Linear fluid (dielectric constant: 78.4, screening length: 8.12261 Bohr) occupying 0.372582 of unit cell:	Completed after 6 iterations at t[s]:  24884.85
	FillingsUpdate:  mu: -0.143492330  nElectrons: 361.000000  magneticMoment: [ Abs: 0.00000  Tot: -0.00000 ]
	SubspaceRotationAdjust: set factor to 0.16
ElecMinimize: Iter:   6  F: -2804.667597095321980  |grad|_K:  8.649e-08  alpha:  4.077e-01  linmin: -8.299e-05  t[s]:  24919.06
	Linear fluid (dielectric constant: 78.4, screening length: 8.12261 Bohr) occupying 0.372582 of unit cell:	Completed after 12 iterations at t[s]:  24948.34
	Linear fluid (dielectric constant: 78.4, screening length: 8.12261 Bohr) occupying 0.372582 of unit cell:	Completed after 2 iterations at t[s]:  24970.10
	FillingsUpdate:  mu: -0.143733280  nElectrons: 361.000000  magneticMoment: [ Abs: 0.00000  Tot: -0.00000 ]
	SubspaceRotationAdjust: set factor to 0.164
ElecMinimize: Iter:   7  F: -2804.667598312191785  |grad|_K:  5.270e-08  alpha:  3.695e-01  linmin:  8.135e-05  t[s]:  25004.31
	Linear fluid (dielectric constant: 78.4, screening length: 8.12261 Bohr) occupying 0.372584 of unit cell:	Completed after 3 iterations at t[s]:  25033.00
	Linear fluid (dielectric constant: 78.4, screening length: 8.12261 Bohr) occupying 0.372584 of unit cell:	Completed after 0 iterations at t[s]:  25054.56
	FillingsUpdate:  mu: -0.143714181  nElectrons: 361.000000  magneticMoment: [ Abs: 0.00000  Tot: -0.00000 ]
	SubspaceRotationAdjust: set factor to 0.184
ElecMinimize: Iter:   8  F: -2804.667598799353527  |grad|_K:  3.408e-08  alpha:  4.005e-01  linmin: -2.878e-04  t[s]:  25088.47
	Linear fluid (dielectric constant: 78.4, screening length: 8.12261 Bohr) occupying 0.372587 of unit cell:	Completed after 6 iterations at t[s]:  25117.21
	Linear fluid (dielectric constant: 78.4, screening length: 8.12261 Bohr) occupying 0.372587 of unit cell:	Completed after 0 iterations at t[s]:  25138.73
	FillingsUpdate:  mu: -0.143615065  nElectrons: 361.000000  magneticMoment: [ Abs: 0.00000  Tot: -0.00000 ]
	SubspaceRotationAdjust: set factor to 0.198
ElecMinimize: Iter:   9  F: -2804.667598990130955  |grad|_K:  2.297e-08  alpha:  3.706e-01  linmin:  1.176e-04  t[s]:  25172.97
	Linear fluid (dielectric constant: 78.4, screening length: 8.12261 Bohr) occupying 0.372588 of unit cell:	Completed after 6 iterations at t[s]:  25201.78
	Linear fluid (dielectric constant: 78.4, screening length: 8.12261 Bohr) occupying 0.372588 of unit cell:	Completed after 0 iterations at t[s]:  25223.36
	FillingsUpdate:  mu: -0.143697161  nElectrons: 361.000000  magneticMoment: [ Abs: 0.00000  Tot: -0.00000 ]
	SubspaceRotationAdjust: set factor to 0.2
ElecMinimize: Iter:  10  F: -2804.667599077008617  |grad|_K:  1.579e-08  alpha:  3.756e-01  linmin: -8.836e-04  t[s]:  25257.49
	Linear fluid (dielectric constant: 78.4, screening length: 8.12261 Bohr) occupying 0.372589 of unit cell:	Completed after 2 iterations at t[s]:  25286.35
	Linear fluid (dielectric constant: 78.4, screening length: 8.12261 Bohr) occupying 0.372589 of unit cell:	Completed after 0 iterations at t[s]:  25307.86
	FillingsUpdate:  mu: -0.143677678  nElectrons: 361.000000  magneticMoment: [ Abs: 0.00000  Tot: -0.00000 ]
	SubspaceRotationAdjust: set factor to 0.238
ElecMinimize: Iter:  11  F: -2804.667599121607509  |grad|_K:  1.240e-08  alpha:  3.946e-01  linmin: -1.240e-04  t[s]:  25342.00
ElecMinimize: Converged (|Delta F|<1.000000e-07 for 2 iters).
Setting wave functions to eigenvectors of Hamiltonian
Converging empty states (this may take a while): |deigs|: 5.455e-08

Computing DFT-D3 correction:
# coordination-number Ag 5.471 6.675 8.338 5.472 8.886 9.003 9.035 9.084 9.074 9.092 9.090 9.091 9.073 9.083 9.035 9.003 8.888 8.339 6.678
# diagonal-C6 Ag 268.61 268.61 268.61 268.61 268.61 268.61 268.61 268.61 268.61 268.61 268.61 268.61 268.61 268.61 268.61 268.61 268.61 268.61 268.61
EvdW_6 =   -0.129222
EvdW_8 =   -0.170850

# Ionic positions in cartesian coordinates:
ion Ag   0.003595840616151   7.509568517723369  65.981466265419726 1
ion Ag   2.712192918932125   3.070602124029482  64.460807916090189 1
ion Ag   2.714593932028372  10.657123541345364  62.597924144452243 1
ion Ag   2.709949003708066  11.765627887012405  34.260426301039701 1
ion Ag   0.001896797281884   6.206895209546359  60.770365037023751 1
ion Ag   2.710993074079128   1.854173990436337  58.987309255452509 1
ion Ag   2.711367063119927   9.310155533141758  57.233130888740618 1
ion Ag   0.000266229008031   4.965969095197631  55.446014469003387 1
ion Ag   2.713944834475575   0.609009228488561  53.661361678189046 1
ion Ag   2.711824606256232   8.078452058652024  51.898515825764605 1
ion Ag   0.001161968201720   3.730022419951106  50.120950640984560 1
ion Ag  -0.003404961086221  11.195375918616529  48.343089418641718 1
ion Ag   2.707238943609096   6.851722626203328  46.580405386064754 1
ion Ag  -0.001099594031385   2.495599066793087  44.795327656946306 1
ion Ag  -0.003159428787709   9.965110594975148  43.008476769671468 1
ion Ag   2.710521830224810   5.608149068056048  41.253592094239977 1
ion Ag  -0.004736406317473   1.254119959239927  39.471586952859752 1
ion Ag  -0.001707032212272   8.618237979247301  37.642581222239791 1
ion Ag   2.706806380893941   4.389973181344254  35.782070077175831 1

# Forces in Cartesian coordinates:
force Ag   0.000007107601986   0.000084981669445  -0.000081982889750 1
force Ag   0.000009197428307  -0.000004365450955  -0.000122986547522 1
force Ag   0.000009918875783   0.000032179926249   0.000148189057827 1
force Ag  -0.000010563608519  -0.000057609687697   0.000059413314750 1
force Ag   0.000016310484153   0.000086072661970  -0.000042644354069 1
force Ag   0.000014692368584   0.000126610674620   0.000106203273786 1
force Ag   0.000014164775674   0.000076538719596   0.000033643882005 1
force Ag   0.000007721712850  -0.000037713752244   0.000138414050915 1
force Ag   0.000011665041438   0.000023971325451   0.000196821510731 1
force Ag   0.000003705907625  -0.000021928074278   0.000119380114920 1
force Ag   0.000004011012003  -0.000001708918700  -0.000011995678606 1
force Ag  -0.000001725852435   0.000035731318858  -0.000127778884118 1
force Ag  -0.000003564687942  -0.000024941611031  -0.000215489082887 1
force Ag  -0.000004560277943   0.000049127739793  -0.000138989982885 1
force Ag  -0.000005817733941  -0.000083718491594  -0.000027330389823 1
force Ag  -0.000005999645379  -0.000117581850098  -0.000087770315221 1
force Ag  -0.000012300466418  -0.000079350640285   0.000054647732170 1
force Ag  -0.000003400960464  -0.000017914019094  -0.000133780945892 1
force Ag  -0.000006507800309  -0.000006483099735   0.000108420283936 1

# Energy components:
   A_diel =       -0.0012247502115477
   Eewald =    15472.3969761324424326
       EH =    18052.6368806399696041
     Eloc =   -36770.1961994861558196
      Enl =       74.9394145181395857
     EvdW =       -0.3000721750226312
      Exc =     -275.3687508410864666
 Exc_core =        3.9552379807821869
       KE =      637.2705196312233511
-------------------------------------
     Etot =    -2804.6672183499185849
       TS =        0.0003807716887729
-------------------------------------
        F =    -2804.6675991216075090


Dumping 'jdft.fillings' ... done
Dumping 'jdft.wfns' ... done
Dumping 'jdft.fluidState' ... done
Dumping 'jdft.ionpos' ... done
Dumping 'jdft.lattice' ... done
Dumping 'jdft.eigenvals' ... done
Dumping 'jdft.eigStats' ... 
	eMin: -3.527886 at state 0 ( [ +0.000000 +0.000000 +0.000000 ] spin 1 )
	HOMO: -0.144116 at state 91 ( [ -0.363636 +0.200000 +0.000000 ] spin -1 )
	mu  : -0.143678
	LUMO: -0.143505 at state 69 ( [ +0.181818 -0.200000 +0.000000 ] spin -1 )
	eMax: +0.207880 at state 64 ( [ +0.090909 -0.200000 +0.000000 ] spin -1 )
	HOMO-LUMO gap: +0.000611
	Optical gap  : +0.008207 at state 65 ( [ +0.181818 +0.000000 +0.000000 ] spin -1 )
Dumping 'jdft.Ecomponents' ... done
IonicMinimize: Iter:   8  F: -2804.667599121607509  |grad|_K:  7.648e-05  alpha:  1.000e+00  linmin:  2.833e-01  t[s]:  25427.75
IonicMinimize: Converged (|grad|_K<1.000000e-04).

#--- Lowdin population analysis ---
# oxidation-state Ag +0.095 +0.017 -0.072 +0.095 -0.006 +0.000 +0.003 +0.003 +0.003 +0.001 +0.005 +0.001 +0.003 +0.003 +0.002 +0.000 -0.006 -0.072 +0.017
# magnetic-moments Ag -0.000 -0.000 -0.000 -0.000 +0.000 -0.000 +0.000 +0.000 -0.000 +0.000 -0.000 +0.000 -0.000 +0.000 +0.000 -0.000 -0.000 -0.000 -0.000


Dumping 'jdft.n_up' ... done
Dumping 'jdft.n_dn' ... done
Dumping 'jdft.tau_up' ... done
Dumping 'jdft.tau_dn' ... done
Dumping 'jdft.eigenvals' ... done
Dumping 'jdft.eigStats' ... 
	eMin: -3.527886 at state 0 ( [ +0.000000 +0.000000 +0.000000 ] spin 1 )
	HOMO: -0.144116 at state 91 ( [ -0.363636 +0.200000 +0.000000 ] spin -1 )
	mu  : -0.143678
	LUMO: -0.143505 at state 69 ( [ +0.181818 -0.200000 +0.000000 ] spin -1 )
	eMax: +0.207880 at state 64 ( [ +0.090909 -0.200000 +0.000000 ] spin -1 )
	HOMO-LUMO gap: +0.000611
	Optical gap  : +0.008207 at state 65 ( [ +0.181818 +0.000000 +0.000000 ] spin -1 )
Dumping 'jdft.kPts' ... done
Dumping 'jdft.dosUp' ... done.
Dumping 'jdft.dosDn' ... done.
End date and time: Tue Dec  7 00:15:22 2021  (Duration: 0-7:04:41.70)
Done!
