
*************** JDFTx 1.6.0  ***************

Start date and time: Sat Feb 26 10:21:09 2022
Executable /projects/musgravc/apps/jdftx-1.6.1/build/jdftx with command-line: -i in
Running on hosts (process indices):  shas0907.rc.int.colorado.edu (0-23)
Divided in process groups (process indices):  0 (0)  1 (1)  2 (2)  3 (3)  4 (4)  5 (5)  6 (6)  7 (7)  8 (8)  9 (9)  10 (10)  11 (11)  12 (12)  13 (13)  14 (14)  15 (15)  16 (16)  17 (17)  18 (18)  19 (19)  20 (20)  21 (21)  22 (22)  23 (23)
Resource initialization completed at t[s]:      0.00
Run totals: 24 processes, 24 threads, 0 GPUs


Input parsed successfully to the following command list (including defaults):

basis kpoint-dependent
converge-empty-states yes
coords-type Cartesian
core-overlap-check none
coulomb-interaction Periodic
davidson-band-ratio 1.1
density-of-states Etol 1.000000e-06 Esigma 1.000000e-03 \
		Complete \
	Total \
	OrthoOrbital Ni 1   s \
	OrthoOrbital Ni 1   p \
	OrthoOrbital Ni 1   px \
	OrthoOrbital Ni 1   py \
	OrthoOrbital Ni 1   pz \
	OrthoOrbital Ni 1   d \
	OrthoOrbital Ni 1   dxy \
	OrthoOrbital Ni 1   dyz \
	OrthoOrbital Ni 1   dz2 \
	OrthoOrbital Ni 1   dxz \
	OrthoOrbital Ni 1   dx2-y2 \
	OrthoOrbital Au 1   s \
	OrthoOrbital Au 1   p \
	OrthoOrbital Au 1   px \
	OrthoOrbital Au 1   py \
	OrthoOrbital Au 1   pz \
	OrthoOrbital Au 1   d \
	OrthoOrbital Au 1   dxy \
	OrthoOrbital Au 1   dyz \
	OrthoOrbital Au 1   dz2 \
	OrthoOrbital Au 1   dxz \
	OrthoOrbital Au 1   dx2-y2 \
	OrthoOrbital Au 2   s \
	OrthoOrbital Au 2   p \
	OrthoOrbital Au 2   px \
	OrthoOrbital Au 2   py \
	OrthoOrbital Au 2   pz \
	OrthoOrbital Au 2   d \
	OrthoOrbital Au 2   dxy \
	OrthoOrbital Au 2   dyz \
	OrthoOrbital Au 2   dz2 \
	OrthoOrbital Au 2   dxz \
	OrthoOrbital Au 2   dx2-y2 \
	OrthoOrbital Au 3   s \
	OrthoOrbital Au 3   p \
	OrthoOrbital Au 3   px \
	OrthoOrbital Au 3   py \
	OrthoOrbital Au 3   pz \
	OrthoOrbital Au 3   d \
	OrthoOrbital Au 3   dxy \
	OrthoOrbital Au 3   dyz \
	OrthoOrbital Au 3   dz2 \
	OrthoOrbital Au 3   dxz \
	OrthoOrbital Au 3   dx2-y2 \
	OrthoOrbital Ni 1   s \
	OrthoOrbital Ni 1   p \
	OrthoOrbital Ni 1   px \
	OrthoOrbital Ni 1   py \
	OrthoOrbital Ni 1   pz \
	OrthoOrbital Ni 1   d \
	OrthoOrbital Ni 1   dxy \
	OrthoOrbital Ni 1   dyz \
	OrthoOrbital Ni 1   dz2 \
	OrthoOrbital Ni 1   dxz \
	OrthoOrbital Ni 1   dx2-y2 \
	OrthoOrbital Au 1   s \
	OrthoOrbital Au 1   p \
	OrthoOrbital Au 1   px \
	OrthoOrbital Au 1   py \
	OrthoOrbital Au 1   pz \
	OrthoOrbital Au 1   d \
	OrthoOrbital Au 1   dxy \
	OrthoOrbital Au 1   dyz \
	OrthoOrbital Au 1   dz2 \
	OrthoOrbital Au 1   dxz \
	OrthoOrbital Au 1   dx2-y2 \
	OrthoOrbital Au 2   s \
	OrthoOrbital Au 2   p \
	OrthoOrbital Au 2   px \
	OrthoOrbital Au 2   py \
	OrthoOrbital Au 2   pz \
	OrthoOrbital Au 2   d \
	OrthoOrbital Au 2   dxy \
	OrthoOrbital Au 2   dyz \
	OrthoOrbital Au 2   dz2 \
	OrthoOrbital Au 2   dxz \
	OrthoOrbital Au 2   dx2-y2 \
	OrthoOrbital Au 3   s \
	OrthoOrbital Au 3   p \
	OrthoOrbital Au 3   px \
	OrthoOrbital Au 3   py \
	OrthoOrbital Au 3   pz \
	OrthoOrbital Au 3   d \
	OrthoOrbital Au 3   dxy \
	OrthoOrbital Au 3   dyz \
	OrthoOrbital Au 3   dz2 \
	OrthoOrbital Au 3   dxz \
	OrthoOrbital Au 3   dx2-y2
dump End ElecDensity KEdensity BandEigs EigStats RhoAtom DOS Kpoints
dump Ionic State IonicPositions Lattice EigStats Ecomponents
dump 
dump 
dump 
dump 
dump 
dump 
dump 
dump 
dump-name jdft.$VAR
elec-cutoff 20
elec-eigen-algo Davidson
elec-ex-corr gga-PBE
elec-initial-magnetization 0.000000 no
elec-n-bands 62
elec-smearing Fermi 0.001
electronic-minimize  \
	dirUpdateScheme      FletcherReeves \
	linminMethod         DirUpdateRecommended \
	nIterations          100 \
	history              15 \
	knormThreshold       0 \
	energyDiffThreshold  1e-07 \
	nEnergyDiff          2 \
	alphaTstart          1 \
	alphaTmin            1e-10 \
	updateTestStepSize   yes \
	alphaTreduceFactor   0.1 \
	alphaTincreaseFactor 3 \
	nAlphaAdjustMax      3 \
	wolfeEnergy          0.0001 \
	wolfeGradient        0.9 \
	fdTest               no
exchange-regularization WignerSeitzTruncated
fluid LinearPCM 298.000000 1.013250
fluid-anion F- 0.5 MeanFieldLJ \
	epsBulk 1 \
	pMol 0 \
	epsInf 1 \
	Pvap 0 \
	sigmaBulk 0 \
	Rvdw 2.24877 \
	Res 0 \
	tauNuc 343133
fluid-cation Na+ 0.5 MeanFieldLJ \
	epsBulk 1 \
	pMol 0 \
	epsInf 1 \
	Pvap 0 \
	sigmaBulk 0 \
	Rvdw 2.19208 \
	Res 0 \
	tauNuc 343133
fluid-ex-corr lda-TF lda-PZ
fluid-gummel-loop 10 1.000000e-05
fluid-minimize  \
	dirUpdateScheme      PolakRibiere \
	linminMethod         DirUpdateRecommended \
	nIterations          400 \
	history              15 \
	knormThreshold       1e-11 \
	energyDiffThreshold  0 \
	nEnergyDiff          2 \
	alphaTstart          1 \
	alphaTmin            1e-10 \
	updateTestStepSize   yes \
	alphaTreduceFactor   0.1 \
	alphaTincreaseFactor 3 \
	nAlphaAdjustMax      6 \
	wolfeEnergy          0.0001 \
	wolfeGradient        0.9 \
	fdTest               no
fluid-solvent H2O 55.338 ScalarEOS \
	epsBulk 78.4 \
	pMol 0.92466 \
	epsInf 1.77 \
	Pvap 1.06736e-10 \
	sigmaBulk 4.62e-05 \
	Rvdw 2.61727 \
	Res 1.42 \
	tauNuc 343133 \
	poleEl 15 7 1
forces-output-coords Positions
ion Ni   0.000000000000000   0.000000000000000   5.594663999999999 1
ion Ni   0.000000000000000   0.000000000000000  13.054230999999998 1
ion Au   0.000000000000000   3.729776000000000   1.864903000000000 1
ion Au   3.729776000000000   3.729776000000000   5.594663999999999 1
ion Au   3.729776000000000   0.000000000000000   1.864903000000000 1
ion Au   0.000000000000000   3.729776000000000   9.324424999999998 1
ion Au   3.729776000000000   3.729776000000000  13.054230999999998 1
ion Au   3.729776000000000   0.000000000000000   9.324424999999998 1
ion-species /projects/musgravc/apps/jdftx-1.6.0/build/pseudopotentials/GBRV_v1.5/$ID_pbe_v1.uspp
ion-species /projects/musgravc/apps/jdftx-1.6.0/build/pseudopotentials/GBRV_v1.5/$ID_pbe_v1.2.uspp
ion-species /projects/musgravc/apps/jdftx-1.6.0/build/pseudopotentials/GBRV_v1.5/$ID_pbe_v1.4.uspp
ion-species /projects/musgravc/apps/jdftx-1.6.0/build/pseudopotentials/GBRV_v1.5/$ID_pbe_v1.5.uspp
ion-width Ecut
ionic-minimize  \
	dirUpdateScheme      L-BFGS \
	linminMethod         DirUpdateRecommended \
	nIterations          100 \
	history              15 \
	knormThreshold       0.0001 \
	energyDiffThreshold  1e-06 \
	nEnergyDiff          2 \
	alphaTstart          1 \
	alphaTmin            1e-10 \
	updateTestStepSize   yes \
	alphaTreduceFactor   0.1 \
	alphaTincreaseFactor 3 \
	nAlphaAdjustMax      3 \
	wolfeEnergy          0.0001 \
	wolfeGradient        0.9 \
	fdTest               no
kpoint   0.000000000000   0.000000000000   0.000000000000  1.00000000000000
kpoint-folding 9 9 1 
latt-move-scale 0 0 0
latt-scale 1 1 1 
lattice  \
	   7.459552000000000    0.000000000000000    0.000000000000000  \
	   0.000000000000000    7.459552000000000    0.000000000000000  \
	   0.000000000000000    0.000000000000000   44.757313000000003 
lattice-minimize  \
	dirUpdateScheme      L-BFGS \
	linminMethod         DirUpdateRecommended \
	nIterations          0 \
	history              15 \
	knormThreshold       0 \
	energyDiffThreshold  1e-06 \
	nEnergyDiff          2 \
	alphaTstart          1 \
	alphaTmin            1e-10 \
	updateTestStepSize   yes \
	alphaTreduceFactor   0.1 \
	alphaTincreaseFactor 3 \
	nAlphaAdjustMax      3 \
	wolfeEnergy          0.0001 \
	wolfeGradient        0.9 \
	fdTest               no
lcao-params 30 1e-06 0.001
pcm-variant CANDLE
spintype z-spin
subspace-rotation-factor 1 yes
symmetries automatic
symmetry-threshold 0.0001
target-mu -0.0978 no

van-der-waals D3



---------- Setting up symmetries ----------

Found 16 point-group symmetries of the bravais lattice
Found 8 space-group symmetries with basis
Applied RMS atom displacement 0 bohrs to make symmetries exact.

---------- Initializing the Grid ----------
R = 
[      7.45955            0            0  ]
[            0      7.45955            0  ]
[            0            0      44.7573  ]
unit cell volume = 2490.52
G =
[   0.842301          0          0  ]
[          0   0.842301          0  ]
[          0          0   0.140383  ]
Minimum fftbox size, Smin = [  32  32  184  ]
Chosen fftbox size, S = [  32  32  192  ]

---------- Exchange Correlation functional ----------
Initalized PBE GGA exchange.
Initalized PBE GGA correlation.

---------- Setting up pseudopotentials ----------
Width of ionic core gaussian charges (only for fluid interactions / plotting) set to 0.397384

Reading pseudopotential file '/projects/musgravc/apps/jdftx-1.6.0/build/pseudopotentials/GBRV_v1.5/ni_pbe_v1.4.uspp':
  Title: Ni.  Created by USPP 7.3.6 on 1-4-15
  Reference state energy: -170.398381.  18 valence electrons in orbitals:
    |300>  occupation: 2  eigenvalue: -4.804705
    |310>  occupation: 6  eigenvalue: -3.347751
    |320>  occupation: 8  eigenvalue: -1.042415
    |400>  occupation: 0  eigenvalue: -0.795539
    |410>  occupation: 0  eigenvalue: -0.551375
  lMax: 2  lLocal: 3  QijEcut: 6.5
  6 projectors sampled on a log grid with 611 points:
    l: 0  eig: -4.804708  rCut: 1.44
    l: 0  eig: -0.795541  rCut: 1.44
    l: 1  eig: -3.347753  rCut: 1.55
    l: 1  eig: 0.500000  rCut: 1.55
    l: 2  eig: -1.042418  rCut: 1.5
    l: 2  eig: -0.450000  rCut: 1.5
  Partial core density with radius 0.65
  Transforming core density to a uniform radial grid of dG=0.02 with 1173 points.
  Transforming local potential to a uniform radial grid of dG=0.02 with 1173 points.
  Transforming nonlocal projectors to a uniform radial grid of dG=0.02 with 432 points.
  Transforming density augmentations to a uniform radial grid of dG=0.02 with 1173 points.
  Transforming atomic orbitals to a uniform radial grid of dG=0.02 with 432 points.
  Core radius for overlap checks: 1.55 bohrs.

Reading pseudopotential file '/projects/musgravc/apps/jdftx-1.6.0/build/pseudopotentials/GBRV_v1.5/au_pbe_v1.uspp':
  Title: Au.  Created by USPP 7.3.6 on 14-9-2013
  Reference state energy: -57.375295.  11 valence electrons in orbitals:
    |520>  occupation: 10  eigenvalue: -0.252742
    |600>  occupation: 1  eigenvalue: -0.211744
    |610>  occupation: 0  eigenvalue: -0.028291
  lMax: 3  lLocal: -1  QijEcut: 5
  7 projectors sampled on a log grid with 755 points:
    l: 0  eig: -0.211744  rCut: 2.3
    l: 0  eig: 0.500000  rCut: 2.3
    l: 1  eig: -0.028291  rCut: 2.35
    l: 1  eig: 0.850000  rCut: 2.35
    l: 2  eig: -0.252741  rCut: 2.1
    l: 2  eig: 1.000000  rCut: 2.1
    l: 3  eig: 0.000000  rCut: 2.5
  Partial core density with radius 1
  Transforming core density to a uniform radial grid of dG=0.02 with 1173 points.
  Transforming local potential to a uniform radial grid of dG=0.02 with 1173 points.
  Transforming nonlocal projectors to a uniform radial grid of dG=0.02 with 432 points.
  Transforming density augmentations to a uniform radial grid of dG=0.02 with 1173 points.
  Transforming atomic orbitals to a uniform radial grid of dG=0.02 with 432 points.
  Core radius for overlap checks: 2.50 bohrs.

Initialized 2 species with 8 total atoms.

Folded 1 k-points by 9x9x1 to 81 k-points.

---------- Setting up k-points, bands, fillings ----------
Reduced to 15 k-points under symmetry. 
Computing the number of bands and number of electrons
Calculating initial fillings.
nElectrons: 102.000000   nBands: 62   nStates: 30

----- Setting up reduced wavefunction bases (one per k-point) -----
average nbasis = 10639.840 , ideal nbasis = 10639.678

----- Initializing Supercell corresponding to k-point mesh -----
Lattice vector linear combinations in supercell:
[   9   0   0  ]
[   0   9   0  ]
[   0   0   1  ]
Supercell lattice vectors:
[  67.136  0  0  ]
[  0  67.136  0  ]
[  0  0  44.7573  ]

Initializing DFT-D3 calculator:
	Parameters set for gga-PBE functional
	s6:  1.000  s_r6:  1.217
	s8:  0.722  s_r8:  1.000
	Per-atom parameters loaded for:
	Ni:  sqrtQ[a0]:  5.285  Rcov[a0]:  1.871  CN: [ 0.00 1.79 6.55 6.29 ]
	Au:  sqrtQ[a0]:  5.707  Rcov[a0]:  2.135  CN: [ 0.00 0.98 ]

Initializing DFT-D2 calculator for fluid / solvation:
	Ni:  C6:  187.33 Eh-a0^6  R0: 2.952 a0
	Au:  C6:  815.23 Eh-a0^6  R0: 3.326 a0 (WARNING: beyond Grimme's data set)

---------- Setting up ewald sum ----------
Optimum gaussian width for ewald sums = 3.823768 bohr.
Real space sum over 845 unit cells with max indices [  6  6  2  ]
Reciprocal space sum over 3159 terms with max indices [  4  4  19  ]

Computing DFT-D3 correction:
# coordination-number Ni 6.667 4.454
# coordination-number Au 5.939 8.622 5.939 8.617 5.477 8.617
# diagonal-C6 Ni 133.51 141.62
# diagonal-C6 Au 317.16 317.16 317.16 317.16 317.16 317.16
EvdW_6 =   -0.050436
EvdW_8 =   -0.096630

---------- Allocating electronic variables ----------
Initializing wave functions:  linear combination of atomic orbitals
Ni pseudo-atom occupations:   s ( 2 0 )  p ( 6 0 )  d ( 10 )
Au pseudo-atom occupations:   s ( 1 )  p ( 0 )  d ( 10 )
	FillingsUpdate:  mu: -0.097800000  nElectrons: 102.000000  magneticMoment: [ Abs: 0.00637  Tot: -0.00233 ]
LCAOMinimize: Iter:   0  G: -476.2713346887920238  |grad|_K:  5.229e-02  alpha:  1.000e+00
LCAOMinimize: 	Step increased G by 2.951462e+02, reducing alpha to 2.950418e-02.
	FillingsUpdate:  mu: -0.097800000  nElectrons: 102.000000  magneticMoment: [ Abs: 0.00422  Tot: +0.00015 ]
LCAOMinimize: Iter:   1  G: -487.5795795988888699  |grad|_K:  2.997e-02  alpha:  2.950e-02  linmin: -1.375e-01  cgtest:  8.849e-01  t[s]:      9.28
LCAOMinimize: Encountered beta<0, resetting CG.
LCAOMinimize: 	Wrong curvature in test step, increasing alphaT to 8.851255e-02.
	FillingsUpdate:  mu: -0.097800000  nElectrons: 102.000000  magneticMoment: [ Abs: 0.00841  Tot: +0.00072 ]
LCAOMinimize: Iter:   2  G: -493.1471866459839930  |grad|_K:  2.948e-02  alpha: -2.185e-01  linmin: -9.407e-02  cgtest:  7.242e-01  t[s]:     12.08
LCAOMinimize: 	Step increased G by 1.454184e+02, reducing alpha to 2.957646e-02.
	FillingsUpdate:  mu: -0.097800000  nElectrons: 102.000000  magneticMoment: [ Abs: 0.00818  Tot: -0.00433 ]
LCAOMinimize: Iter:   3  G: -504.3395298883957594  |grad|_K:  4.829e-02  alpha:  2.958e-02  linmin: -1.595e-01  cgtest:  3.815e-01  t[s]:     16.98
	FillingsUpdate:  mu: -0.097800000  nElectrons: 102.000000  magneticMoment: [ Abs: 0.00370  Tot: -0.00010 ]
LCAOMinimize: Iter:   4  G: -523.2264582359314318  |grad|_K:  1.020e-01  alpha:  1.205e-02  linmin: -2.765e-02  cgtest: -1.746e-02  t[s]:     19.88
LCAOMinimize: 	Step increased G by 2.498497e+01, reducing alpha to 3.901722e-04.
	FillingsUpdate:  mu: -0.097800000  nElectrons: 102.000000  magneticMoment: [ Abs: 0.00261  Tot: +0.00002 ]
LCAOMinimize: Iter:   5  G: -523.3222265357006791  |grad|_K:  9.618e-02  alpha:  3.902e-04  linmin:  4.875e-02  cgtest:  9.425e-01  t[s]:     24.76
LCAOMinimize: 	Predicted alpha/alphaT>3.000000, increasing alphaT to 1.170517e-03.
LCAOMinimize: 	Predicted alpha/alphaT>3.000000, increasing alphaT to 3.511550e-03.
	FillingsUpdate:  mu: -0.097800000  nElectrons: 102.000000  magneticMoment: [ Abs: 0.00277  Tot: +0.00068 ]
LCAOMinimize: Iter:   6  G: -535.9715243511849394  |grad|_K:  4.312e-02  alpha:  9.346e-03  linmin: -1.366e-01  cgtest:  8.863e-01  t[s]:     29.38
LCAOMinimize: Encountered beta<0, resetting CG.
	FillingsUpdate:  mu: -0.097800000  nElectrons: 102.000000  magneticMoment: [ Abs: 0.00469  Tot: -0.00258 ]
LCAOMinimize: Iter:   7  G: -537.6525964669798441  |grad|_K:  2.062e-02  alpha:  9.206e-03  linmin: -2.981e-02  cgtest:  2.659e-01  t[s]:     32.25
LCAOMinimize: 	Predicted alpha/alphaT>3.000000, increasing alphaT to 2.761726e-02.
	FillingsUpdate:  mu: -0.097800000  nElectrons: 102.000000  magneticMoment: [ Abs: 0.00251  Tot: +0.00024 ]
LCAOMinimize: Iter:   8  G: -539.2662143636678138  |grad|_K:  2.294e-02  alpha:  3.821e-02  linmin:  8.634e-04  cgtest: -1.887e-01  t[s]:     36.01
	FillingsUpdate:  mu: -0.097800000  nElectrons: 102.000000  magneticMoment: [ Abs: 0.00233  Tot: -0.00014 ]
LCAOMinimize: Iter:   9  G: -540.1749187294881267  |grad|_K:  3.301e-03  alpha:  1.828e-02  linmin:  2.765e-02  cgtest:  4.889e-01  t[s]:     38.89
LCAOMinimize: Encountered beta<0, resetting CG.
	FillingsUpdate:  mu: -0.097800000  nElectrons: 102.000000  magneticMoment: [ Abs: 0.00261  Tot: -0.00055 ]
LCAOMinimize: Iter:  10  G: -540.2136342684350439  |grad|_K:  4.006e-03  alpha:  3.648e-02  linmin:  2.824e-03  cgtest: -3.436e-04  t[s]:     41.79
	FillingsUpdate:  mu: -0.097800000  nElectrons: 102.000000  magneticMoment: [ Abs: 0.00242  Tot: -0.00051 ]
LCAOMinimize: Iter:  11  G: -540.2922162240292892  |grad|_K:  2.100e-03  alpha:  5.125e-02  linmin:  7.853e-03  cgtest: -8.957e-02  t[s]:     44.68
	FillingsUpdate:  mu: -0.097800000  nElectrons: 102.000000  magneticMoment: [ Abs: 0.00252  Tot: -0.00074 ]
LCAOMinimize: Iter:  12  G: -540.3434235973764999  |grad|_K:  2.208e-03  alpha:  1.229e-01  linmin: -1.145e-03  cgtest: -1.058e-01  t[s]:     47.57
	FillingsUpdate:  mu: -0.097800000  nElectrons: 102.000000  magneticMoment: [ Abs: 0.00240  Tot: -0.00069 ]
LCAOMinimize: Iter:  13  G: -540.3497732352719822  |grad|_K:  1.736e-03  alpha:  2.026e-02  linmin:  2.843e-02  cgtest: -4.640e-01  t[s]:     50.45
	FillingsUpdate:  mu: -0.097800000  nElectrons: 102.000000  magneticMoment: [ Abs: 0.00238  Tot: -0.00070 ]
LCAOMinimize: Iter:  14  G: -540.3522835122531660  |grad|_K:  1.973e-03  alpha:  1.950e-02  linmin:  9.945e-05  cgtest:  9.680e-01  t[s]:     53.35
	FillingsUpdate:  mu: -0.097800000  nElectrons: 102.000000  magneticMoment: [ Abs: 0.00244  Tot: -0.00072 ]
LCAOMinimize: Iter:  15  G: -540.3571703784248257  |grad|_K:  7.984e-04  alpha:  1.271e-02  linmin:  2.371e-04  cgtest: -1.820e-02  t[s]:     56.25
LCAOMinimize: 	Predicted alpha/alphaT>3.000000, increasing alphaT to 3.812531e-02.
LCAOMinimize: 	Predicted alpha/alphaT>3.000000, increasing alphaT to 1.143759e-01.
	FillingsUpdate:  mu: -0.097800000  nElectrons: 102.000000  magneticMoment: [ Abs: 0.00247  Tot: -0.00081 ]
LCAOMinimize: Iter:  16  G: -540.3648367036194031  |grad|_K:  7.083e-04  alpha:  1.221e-01  linmin:  5.996e-06  cgtest: -1.013e-01  t[s]:     60.85
	FillingsUpdate:  mu: -0.097800000  nElectrons: 102.000000  magneticMoment: [ Abs: 0.00269  Tot: -0.00106 ]
LCAOMinimize: Iter:  17  G: -540.3674714197646836  |grad|_K:  8.366e-04  alpha:  5.801e-02  linmin:  2.065e-03  cgtest: -1.013e-01  t[s]:     63.73
	FillingsUpdate:  mu: -0.097800000  nElectrons: 102.000000  magneticMoment: [ Abs: 0.00284  Tot: -0.00123 ]
LCAOMinimize: Iter:  18  G: -540.3686524014151473  |grad|_K:  1.407e-04  alpha:  1.645e-02  linmin: -4.041e-02  cgtest:  4.581e-01  t[s]:     66.61
LCAOMinimize: Encountered beta<0, resetting CG.
LCAOMinimize: 	Predicted alpha/alphaT>3.000000, increasing alphaT to 4.935641e-02.
	FillingsUpdate:  mu: -0.097800000  nElectrons: 102.000000  magneticMoment: [ Abs: 0.00302  Tot: -0.00141 ]
LCAOMinimize: Iter:  19  G: -540.3688041334573882  |grad|_K:  3.588e-04  alpha:  8.899e-02  linmin:  1.054e-02  cgtest: -1.112e-01  t[s]:     70.56
	FillingsUpdate:  mu: -0.097800000  nElectrons: 102.000000  magneticMoment: [ Abs: 0.00341  Tot: -0.00179 ]
LCAOMinimize: Iter:  20  G: -540.3690641345763197  |grad|_K:  3.413e-04  alpha:  2.457e-02  linmin: -4.921e-05  cgtest:  9.449e-01  t[s]:     74.11
	FillingsUpdate:  mu: -0.097800000  nElectrons: 102.000000  magneticMoment: [ Abs: 0.00345  Tot: -0.00182 ]
LCAOMinimize: Iter:  21  G: -540.3691938664159125  |grad|_K:  9.061e-05  alpha:  1.161e-02  linmin: -2.748e-02  cgtest:  7.784e-02  t[s]:     77.02
LCAOMinimize: 	Predicted alpha/alphaT>3.000000, increasing alphaT to 3.483079e-02.
LCAOMinimize: 	Predicted alpha/alphaT>3.000000, increasing alphaT to 1.044924e-01.
	FillingsUpdate:  mu: -0.097800000  nElectrons: 102.000000  magneticMoment: [ Abs: 0.00383  Tot: -0.00219 ]
LCAOMinimize: Iter:  22  G: -540.3692960920645874  |grad|_K:  5.008e-05  alpha:  1.235e-01  linmin: -2.416e-02  cgtest:  8.233e-02  t[s]:     81.66
	FillingsUpdate:  mu: -0.097800000  nElectrons: 102.000000  magneticMoment: [ Abs: 0.00450  Tot: -0.00283 ]
LCAOMinimize: Iter:  23  G: -540.3693343238611533  |grad|_K:  1.365e-04  alpha:  1.485e-01  linmin:  2.719e-03  cgtest: -6.815e-02  t[s]:     84.53
	FillingsUpdate:  mu: -0.097800000  nElectrons: 102.000000  magneticMoment: [ Abs: 0.00533  Tot: -0.00362 ]
LCAOMinimize: Iter:  24  G: -540.3693774091611886  |grad|_K:  5.722e-05  alpha:  2.123e-02  linmin: -1.768e-04  cgtest:  6.700e-01  t[s]:     87.43
LCAOMinimize: Encountered beta<0, resetting CG.
	FillingsUpdate:  mu: -0.097800000  nElectrons: 102.000000  magneticMoment: [ Abs: 0.00559  Tot: -0.00387 ]
LCAOMinimize: Iter:  25  G: -540.3693869379768557  |grad|_K:  9.734e-05  alpha:  4.317e-02  linmin:  3.211e-02  cgtest: -3.602e-01  t[s]:     90.33
	FillingsUpdate:  mu: -0.097800000  nElectrons: 102.000000  magneticMoment: [ Abs: 0.00575  Tot: -0.00403 ]
LCAOMinimize: Iter:  26  G: -540.3693894764527386  |grad|_K:  1.065e-04  alpha:  5.998e-03  linmin:  1.075e-03  cgtest:  9.877e-01  t[s]:     93.21
	FillingsUpdate:  mu: -0.097800000  nElectrons: 102.000000  magneticMoment: [ Abs: 0.00586  Tot: -0.00412 ]
LCAOMinimize: Iter:  27  G: -540.3694009959622235  |grad|_K:  2.558e-05  alpha:  9.662e-03  linmin: -1.706e-01  cgtest:  7.288e-01  t[s]:     96.11
LCAOMinimize: Encountered beta<0, resetting CG.
	FillingsUpdate:  mu: -0.097800000  nElectrons: 102.000000  magneticMoment: [ Abs: 0.00593  Tot: -0.00419 ]
LCAOMinimize: Iter:  28  G: -540.3694016767767607  |grad|_K:  1.916e-05  alpha:  1.022e-02  linmin: -1.809e-01  cgtest:  8.481e-01  t[s]:     99.01
LCAOMinimize: Encountered beta<0, resetting CG.
	FillingsUpdate:  mu: -0.097800000  nElectrons: 102.000000  magneticMoment: [ Abs: 0.00607  Tot: -0.00432 ]
LCAOMinimize: Iter:  29  G: -540.3694026044930752  |grad|_K:  1.651e-05  alpha:  1.859e-02  linmin: -1.968e-01  cgtest:  9.843e-01  t[s]:    101.90
LCAOMinimize: Encountered beta<0, resetting CG.
LCAOMinimize: Converged (|Delta G|<1.000000e-06 for 2 iters).
----- createFluidSolver() ----- (Fluid-side solver setup)
   Initializing fluid molecule 'H2O'
     Initializing site 'O'
       Electron density: proportional to exp(-r/0.36935)*erfc((r-0.51523)/0.36823) with norm 6.826
       Charge density: gaussian nuclear width 0.478731 with net site charge 0.826
       Polarizability: cuspless exponential with width 0.32 and norm 3.73
       Hard sphere radius: 2.57003 bohrs
       Positions in reference frame:
         [ +0.000000 +0.000000 +0.000000 ]
     Initializing site 'H'
       Electron density: proportional to exp(-r/0.34641)*erfc((r-0)/0.390882) with norm 0.587
       Charge density: gaussian nuclear width 0.377945 with net site charge -0.413
       Polarizability: cuspless exponential with width 0.39 and norm 3.3
       Positions in reference frame:
         [ +0.000000 -1.441945 +1.122523 ]
         [ +0.000000 +1.441945 +1.122523 ]
     Net charge: 0   dipole magnitude: 0.927204
     Initializing spherical shell mfKernel with radius 2.61727 Bohr
     deltaS corrections:
       site 'O': -7.54299
       site 'H': -6.83917
   Initializing fluid molecule 'Na+'
     Initializing site 'Na'
       Electron density: proportional to exp(-r/0.19682)*erfc((r-0.71491)/0.41314) with norm 8.1383
       Charge density: gaussian nuclear width 0.365347 with net site charge -1
       Hard sphere radius: 1.86327 bohrs
       Positions in reference frame:
         [ +0.000000 +0.000000 +0.000000 ]
     Net charge: -1   dipole magnitude: 0
     Initializing gaussian mfKernel with width: 1.55004 Bohr
     deltaS corrections:
       site 'Na': -22.3555
   Initializing fluid molecule 'F-'
     Initializing site 'F'
       Electron density: proportional to exp(-r/0.38886)*erfc((r-0)/0.438782) with norm 8
       Charge density: gaussian nuclear width 0.374796 with net site charge 1
       Hard sphere radius: 2.39995 bohrs
       Positions in reference frame:
         [ +0.000000 +0.000000 +0.000000 ]
     Net charge: 1   dipole magnitude: 0
     Initializing gaussian mfKernel with width: 1.59012 Bohr
     deltaS corrections:
       site 'F': -9.04335

Correction to mu due to finite nuclear width = -0.0406359
   Cavity determined by nc: 0.00142 and sigma: 0.707107
   Nonlocal vdW cavity from gaussian model electron density with norm = 8 and sigma = 0.993594 bohr
   Charge asymmetry in cavity with sensitivity pCavity = 36.5 e-bohr/Eh
   Electrostatic cavity expanded by eta = 1.46 bohrs
   Weighted density cavitation model constrained by Nbulk: 0.0049383 bohr^-3, Pvap: 3.14029 kPa, Rvdw: 2.61727 bohr and sigmaBulk: 4.62e-05 Eh/bohr^2 at T: 298 K.
   Weighted density dispersion model using vdW pair potentials with single solvent site with sqrtC6eff: 0.77 SI.


---- Citations for features of the code used in this run ----

   Software package:
      R. Sundararaman, K. Letchworth-Weaver, K.A. Schwarz, D. Gunceler, Y. Ozhabes and T.A. Arias, 'JDFTx: software for joint density-functional theory', SoftwareX 6, 278 (2017)

   gga-PBE exchange-correlation functional:
      J.P. Perdew, K. Burke and M. Ernzerhof, Phys. Rev. Lett. 77, 3865 (1996)

   Pseudopotentials:
      KF Garrity, JW Bennett, KM Rabe and D Vanderbilt, Comput. Mater. Sci. 81, 446 (2014)

   DFT-D3 dispersion correction:
      S. Grimme, J. Antony, S. Ehrlich and H. Krieg, J. Chem. Phys. 132, 154104 (2010)

   DFT-D2 dispersion correction:
      S. Grimme, J. Comput. Chem. 27, 1787 (2006)

   Charge-asymmetric nonlocally-determined local-electric (CANDLE) solvation model:
      R. Sundararaman and W.A. Goddard III, J. Chem. Phys. 142, 064107 (2015)

   Total energy minimization with Auxiliary Hamiltonian:
      C. Freysoldt, S. Boeck, and J. Neugebauer, Phys. Rev. B 79, 241103(R) (2009)

   Grand-canonical (fixed-potential) DFT:
      R. Sundararaman, W. A. Goddard III and T. A. Arias, J. Chem. Phys. 146, 114104 (2017)

   Linear-tetrahedron sampling for density of states:
      G. Lehmann and M. Taut, Phys. status solidi (b) 54, 469 (1972)

This list may not be complete. Please suggest additional citations or
report any other bugs at https://github.com/shankar1729/jdftx/issues

Initialization completed successfully at t[s]:    105.01


Computing DFT-D3 correction:
# coordination-number Ni 6.667 4.454
# coordination-number Au 5.939 8.622 5.939 8.617 5.477 8.617
# diagonal-C6 Ni 133.51 141.62
# diagonal-C6 Au 317.16 317.16 317.16 317.16 317.16 317.16
EvdW_6 =   -0.050436
EvdW_8 =   -0.096630
Fluid solver invoked on fresh (random / LCAO) wavefunctions
Running a vacuum solve first:

-------- Initial electronic minimization -----------
	FillingsUpdate:  mu: +0.070740223  nElectrons: 102.000000  magneticMoment: [ Abs: 0.00607  Tot: -0.00432 ]
ElecMinimize: Iter:   0  G: -540.370246939028675  |grad|_K:  1.147e-04  alpha:  1.000e+00
	FillingsUpdate:  mu: +0.039473631  nElectrons: 102.000000  magneticMoment: [ Abs: 0.00793  Tot: -0.00621 ]
	SubspaceRotationAdjust: set factor to 0.71
ElecMinimize: Iter:   1  G: -540.440528646722896  |grad|_K:  1.620e-04  alpha:  2.634e-01  linmin: -9.619e-05  t[s]:    111.38
	FillingsUpdate:  mu: +0.181896686  nElectrons: 102.000000  magneticMoment: [ Abs: 0.00619  Tot: -0.00446 ]
	SubspaceRotationAdjust: set factor to 0.413
ElecMinimize: Iter:   2  G: -540.477114819556391  |grad|_K:  1.847e-04  alpha:  9.808e-02  linmin:  9.701e-04  t[s]:    115.29
	FillingsUpdate:  mu: +0.149144973  nElectrons: 102.000000  magneticMoment: [ Abs: 0.00624  Tot: -0.00486 ]
	SubspaceRotationAdjust: set factor to 0.455
ElecMinimize: Iter:   3  G: -540.491602038326960  |grad|_K:  8.448e-05  alpha:  3.522e-02  linmin:  7.281e-04  t[s]:    119.20
ElecMinimize: 	Predicted alpha/alphaT>3.000000, increasing alphaT to 1.056692e-01.
	FillingsUpdate:  mu: +0.141529657  nElectrons: 102.000000  magneticMoment: [ Abs: 0.00759  Tot: -0.00646 ]
	SubspaceRotationAdjust: set factor to 0.276
ElecMinimize: Iter:   4  G: -540.511981404605876  |grad|_K:  1.053e-04  alpha:  1.683e-01  linmin:  1.862e-04  t[s]:    124.20
	FillingsUpdate:  mu: +0.073753833  nElectrons: 102.000000  magneticMoment: [ Abs: 0.00772  Tot: -0.00649 ]
	SubspaceRotationAdjust: set factor to 0.36
ElecMinimize: Iter:   5  G: -540.522333522425129  |grad|_K:  4.970e-05  alpha:  4.518e-02  linmin: -4.022e-04  t[s]:    128.11
ElecMinimize: 	Predicted alpha/alphaT>3.000000, increasing alphaT to 1.355380e-01.
	FillingsUpdate:  mu: +0.096243150  nElectrons: 102.000000  magneticMoment: [ Abs: 0.00814  Tot: -0.00677 ]
	SubspaceRotationAdjust: set factor to 0.242
ElecMinimize: Iter:   6  G: -540.531232491444143  |grad|_K:  5.635e-05  alpha:  1.719e-01  linmin: -9.804e-05  t[s]:    133.11
	FillingsUpdate:  mu: +0.060113111  nElectrons: 102.000000  magneticMoment: [ Abs: 0.00870  Tot: -0.00740 ]
	SubspaceRotationAdjust: set factor to 0.315
ElecMinimize: Iter:   7  G: -540.534767439875509  |grad|_K:  2.764e-05  alpha:  5.413e-02  linmin: -2.165e-04  t[s]:    137.01
ElecMinimize: 	Predicted alpha/alphaT>3.000000, increasing alphaT to 1.623921e-01.
	FillingsUpdate:  mu: +0.078433512  nElectrons: 102.000000  magneticMoment: [ Abs: 0.00933  Tot: -0.00813 ]
	SubspaceRotationAdjust: set factor to 0.235
ElecMinimize: Iter:   8  G: -540.537670416113542  |grad|_K:  3.836e-05  alpha:  1.873e-01  linmin: -1.774e-05  t[s]:    142.03
	FillingsUpdate:  mu: +0.071465067  nElectrons: 102.000000  magneticMoment: [ Abs: 0.00943  Tot: -0.00820 ]
	SubspaceRotationAdjust: set factor to 0.413
ElecMinimize: Iter:   9  G: -540.539706016923219  |grad|_K:  1.648e-05  alpha:  7.071e-02  linmin:  1.989e-04  t[s]:    145.94
	FillingsUpdate:  mu: +0.082573086  nElectrons: 102.000000  magneticMoment: [ Abs: 0.00950  Tot: -0.00823 ]
	SubspaceRotationAdjust: set factor to 0.323
ElecMinimize: Iter:  10  G: -540.540651410576061  |grad|_K:  2.494e-05  alpha:  1.750e-01  linmin: -5.455e-04  t[s]:    149.83
	FillingsUpdate:  mu: +0.069624034  nElectrons: 102.000000  magneticMoment: [ Abs: 0.01002  Tot: -0.00881 ]
	SubspaceRotationAdjust: set factor to 0.305
ElecMinimize: Iter:  11  G: -540.541749403411131  |grad|_K:  8.920e-06  alpha:  8.725e-02  linmin:  1.163e-04  t[s]:    153.71
ElecMinimize: 	Predicted alpha/alphaT>3.000000, increasing alphaT to 2.617461e-01.
	FillingsUpdate:  mu: +0.069475643  nElectrons: 102.000000  magneticMoment: [ Abs: 0.01067  Tot: -0.00949 ]
	SubspaceRotationAdjust: set factor to 0.294
ElecMinimize: Iter:  12  G: -540.542223530850833  |grad|_K:  1.168e-05  alpha:  3.006e-01  linmin:  1.815e-05  t[s]:    158.71
	FillingsUpdate:  mu: +0.070154763  nElectrons: 102.000000  magneticMoment: [ Abs: 0.01103  Tot: -0.00983 ]
	SubspaceRotationAdjust: set factor to 0.2
ElecMinimize: Iter:  13  G: -540.542465828129593  |grad|_K:  7.506e-06  alpha:  9.068e-02  linmin:  1.999e-04  t[s]:    162.60
	FillingsUpdate:  mu: +0.069408362  nElectrons: 102.000000  magneticMoment: [ Abs: 0.01192  Tot: -0.01074 ]
	SubspaceRotationAdjust: set factor to 0.26
ElecMinimize: Iter:  14  G: -540.542721901461505  |grad|_K:  5.111e-06  alpha:  2.314e-01  linmin:  1.518e-05  t[s]:    166.50
	FillingsUpdate:  mu: +0.070096767  nElectrons: 102.000000  magneticMoment: [ Abs: 0.01251  Tot: -0.01135 ]
	SubspaceRotationAdjust: set factor to 0.223
ElecMinimize: Iter:  15  G: -540.542821886379329  |grad|_K:  5.589e-06  alpha:  1.929e-01  linmin: -5.521e-06  t[s]:    170.39
	FillingsUpdate:  mu: +0.072204393  nElectrons: 102.000000  magneticMoment: [ Abs: 0.01314  Tot: -0.01196 ]
	SubspaceRotationAdjust: set factor to 0.172
ElecMinimize: Iter:  16  G: -540.542910348082046  |grad|_K:  3.676e-06  alpha:  1.428e-01  linmin: -7.870e-06  t[s]:    174.27
	FillingsUpdate:  mu: +0.069705105  nElectrons: 102.000000  magneticMoment: [ Abs: 0.01408  Tot: -0.01288 ]
	SubspaceRotationAdjust: set factor to 0.2
ElecMinimize: Iter:  17  G: -540.542978579490409  |grad|_K:  2.788e-06  alpha:  2.545e-01  linmin:  3.458e-05  t[s]:    178.18
	FillingsUpdate:  mu: +0.069046264  nElectrons: 102.000000  magneticMoment: [ Abs: 0.01488  Tot: -0.01367 ]
	SubspaceRotationAdjust: set factor to 0.182
ElecMinimize: Iter:  18  G: -540.543014706383019  |grad|_K:  2.317e-06  alpha:  2.348e-01  linmin:  4.823e-06  t[s]:    182.09
	FillingsUpdate:  mu: +0.070123967  nElectrons: 102.000000  magneticMoment: [ Abs: 0.01547  Tot: -0.01424 ]
	SubspaceRotationAdjust: set factor to 0.152
ElecMinimize: Iter:  19  G: -540.543032869006197  |grad|_K:  2.014e-06  alpha:  1.706e-01  linmin: -1.896e-06  t[s]:    185.98
	FillingsUpdate:  mu: +0.069983551  nElectrons: 102.000000  magneticMoment: [ Abs: 0.01649  Tot: -0.01523 ]
	SubspaceRotationAdjust: set factor to 0.175
ElecMinimize: Iter:  20  G: -540.543052377752815  |grad|_K:  1.179e-06  alpha:  2.421e-01  linmin:  8.194e-06  t[s]:    189.87
	FillingsUpdate:  mu: +0.070166820  nElectrons: 102.000000  magneticMoment: [ Abs: 0.01741  Tot: -0.01611 ]
	SubspaceRotationAdjust: set factor to 0.177
ElecMinimize: Iter:  21  G: -540.543061619527521  |grad|_K:  1.235e-06  alpha:  3.348e-01  linmin:  1.438e-06  t[s]:    193.79
	FillingsUpdate:  mu: +0.070722386  nElectrons: 102.000000  magneticMoment: [ Abs: 0.01811  Tot: -0.01678 ]
	SubspaceRotationAdjust: set factor to 0.146
ElecMinimize: Iter:  22  G: -540.543066383490100  |grad|_K:  8.971e-07  alpha:  1.575e-01  linmin:  4.205e-06  t[s]:    197.69
	FillingsUpdate:  mu: +0.070290407  nElectrons: 102.000000  magneticMoment: [ Abs: 0.01919  Tot: -0.01782 ]
	SubspaceRotationAdjust: set factor to 0.154
ElecMinimize: Iter:  23  G: -540.543070538077245  |grad|_K:  6.413e-07  alpha:  2.602e-01  linmin:  8.268e-06  t[s]:    201.67
	FillingsUpdate:  mu: +0.069730548  nElectrons: 102.000000  magneticMoment: [ Abs: 0.02039  Tot: -0.01897 ]
	SubspaceRotationAdjust: set factor to 0.169
ElecMinimize: Iter:  24  G: -540.543073267640466  |grad|_K:  6.246e-07  alpha:  3.348e-01  linmin:  8.730e-06  t[s]:    205.55
	FillingsUpdate:  mu: +0.070027514  nElectrons: 102.000000  magneticMoment: [ Abs: 0.02130  Tot: -0.01982 ]
	SubspaceRotationAdjust: set factor to 0.152
ElecMinimize: Iter:  25  G: -540.543074685227111  |grad|_K:  5.057e-07  alpha:  1.833e-01  linmin:  1.307e-06  t[s]:    209.45
	FillingsUpdate:  mu: +0.070299085  nElectrons: 102.000000  magneticMoment: [ Abs: 0.02271  Tot: -0.02117 ]
	SubspaceRotationAdjust: set factor to 0.153
ElecMinimize: Iter:  26  G: -540.543076087607119  |grad|_K:  4.139e-07  alpha:  2.761e-01  linmin: -1.169e-06  t[s]:    213.35
	FillingsUpdate:  mu: +0.070223807  nElectrons: 102.000000  magneticMoment: [ Abs: 0.02406  Tot: -0.02245 ]
	SubspaceRotationAdjust: set factor to 0.173
ElecMinimize: Iter:  27  G: -540.543076958129291  |grad|_K:  3.397e-07  alpha:  2.557e-01  linmin:  1.074e-06  t[s]:    217.23
	FillingsUpdate:  mu: +0.070340669  nElectrons: 102.000000  magneticMoment: [ Abs: 0.02592  Tot: -0.02421 ]
	SubspaceRotationAdjust: set factor to 0.169
ElecMinimize: Iter:  28  G: -540.543077736707687  |grad|_K:  3.481e-07  alpha:  3.397e-01  linmin: -1.010e-06  t[s]:    221.14
	FillingsUpdate:  mu: +0.070233954  nElectrons: 102.000000  magneticMoment: [ Abs: 0.02736  Tot: -0.02558 ]
	SubspaceRotationAdjust: set factor to 0.159
ElecMinimize: Iter:  29  G: -540.543078161131689  |grad|_K:  2.842e-07  alpha:  1.760e-01  linmin: -1.653e-06  t[s]:    225.01
	FillingsUpdate:  mu: +0.070125637  nElectrons: 102.000000  magneticMoment: [ Abs: 0.03017  Tot: -0.02824 ]
	SubspaceRotationAdjust: set factor to 0.17
ElecMinimize: Iter:  30  G: -540.543078732028675  |grad|_K:  2.594e-07  alpha:  3.560e-01  linmin:  3.345e-06  t[s]:    228.91
	FillingsUpdate:  mu: +0.070150439  nElectrons: 102.000000  magneticMoment: [ Abs: 0.03361  Tot: -0.03149 ]
	SubspaceRotationAdjust: set factor to 0.203
ElecMinimize: Iter:  31  G: -540.543079234397169  |grad|_K:  2.747e-07  alpha:  3.765e-01  linmin:  8.198e-08  t[s]:    232.88
	FillingsUpdate:  mu: +0.070185036  nElectrons: 102.000000  magneticMoment: [ Abs: 0.03740  Tot: -0.03508 ]
	SubspaceRotationAdjust: set factor to 0.195
ElecMinimize: Iter:  32  G: -540.543079662066248  |grad|_K:  3.655e-07  alpha:  2.849e-01  linmin:  1.105e-06  t[s]:    236.78
	FillingsUpdate:  mu: +0.070439910  nElectrons: 102.000000  magneticMoment: [ Abs: 0.04500  Tot: -0.04226 ]
	SubspaceRotationAdjust: set factor to 0.195
ElecMinimize: Iter:  33  G: -540.543080395119773  |grad|_K:  3.825e-07  alpha:  2.765e-01  linmin: -6.162e-06  t[s]:    240.69
	FillingsUpdate:  mu: +0.070114207  nElectrons: 102.000000  magneticMoment: [ Abs: 0.06343  Tot: -0.05969 ]
	SubspaceRotationAdjust: set factor to 0.209
ElecMinimize: Iter:  34  G: -540.543081906400744  |grad|_K:  6.313e-07  alpha:  5.286e-01  linmin:  2.638e-05  t[s]:    244.59
	FillingsUpdate:  mu: +0.069877993  nElectrons: 102.000000  magneticMoment: [ Abs: 0.11340  Tot: -0.10685 ]
	SubspaceRotationAdjust: set factor to 0.229
ElecMinimize: Iter:  35  G: -540.543085765058663  |grad|_K:  1.200e-06  alpha:  4.926e-01  linmin:  7.803e-05  t[s]:    248.51
	FillingsUpdate:  mu: +0.069878008  nElectrons: 102.000000  magneticMoment: [ Abs: 0.11344  Tot: -0.10688 ]
	SubspaceRotationAdjust: set factor to 0.304
ElecMinimize: Iter:  36  G: -540.543085769201298  |grad|_K:  1.221e-06  alpha:  9.010e-05  linmin: -3.194e-04  t[s]:    252.42
ElecMinimize: 	Predicted alpha/alphaT>3.000000, increasing alphaT to 2.702951e-04.
ElecMinimize: 	Predicted alpha/alphaT>3.000000, increasing alphaT to 8.108854e-04.
ElecMinimize: 	Predicted alpha/alphaT>3.000000, increasing alphaT to 2.432656e-03.
	FillingsUpdate:  mu: +0.070200320  nElectrons: 102.000000  magneticMoment: [ Abs: 0.18842  Tot: -0.17721 ]
	SubspaceRotationAdjust: set factor to 0.228
ElecMinimize: Iter:  37  G: -540.543087902363027  |grad|_K:  2.063e-06  alpha:  1.869e-01  linmin:  1.035e-03  t[s]:    258.51
ElecMinimize: 	Bad step direction: g.d > 0.
ElecMinimize: 	Undoing step.
ElecMinimize: 	Step failed: resetting search direction.
	FillingsUpdate:  mu: +0.070200320  nElectrons: 102.000000  magneticMoment: [ Abs: 0.18842  Tot: -0.17721 ]
	SubspaceRotationAdjust: set factor to 0.19
ElecMinimize: Iter:  38  G: -540.543087902363141  |grad|_K:  1.883e-06  alpha:  0.000e+00
	FillingsUpdate:  mu: +0.069579392  nElectrons: 102.000000  magneticMoment: [ Abs: 0.19372  Tot: -0.18217 ]
	SubspaceRotationAdjust: set factor to 0.139
ElecMinimize: Iter:  39  G: -540.543103395266940  |grad|_K:  2.368e-06  alpha:  2.198e-01  linmin: -1.903e-05  t[s]:    265.23
	FillingsUpdate:  mu: +0.070957432  nElectrons: 102.000000  magneticMoment: [ Abs: 0.20917  Tot: -0.19626 ]
	SubspaceRotationAdjust: set factor to 0.136
ElecMinimize: Iter:  40  G: -540.543136628214029  |grad|_K:  1.794e-06  alpha:  2.926e-01  linmin: -1.781e-04  t[s]:    269.12
	FillingsUpdate:  mu: +0.071520799  nElectrons: 102.000000  magneticMoment: [ Abs: 0.22785  Tot: -0.21323 ]
	SubspaceRotationAdjust: set factor to 0.156
ElecMinimize: Iter:  41  G: -540.543163947933294  |grad|_K:  2.037e-06  alpha:  4.052e-01  linmin: -4.570e-05  t[s]:    273.02
	FillingsUpdate:  mu: +0.068874973  nElectrons: 102.000000  magneticMoment: [ Abs: 0.25693  Tot: -0.23944 ]
	SubspaceRotationAdjust: set factor to 0.156
ElecMinimize: Iter:  42  G: -540.543196402560739  |grad|_K:  2.310e-06  alpha:  3.856e-01  linmin:  1.091e-05  t[s]:    276.94
	FillingsUpdate:  mu: +0.070287859  nElectrons: 102.000000  magneticMoment: [ Abs: 0.29295  Tot: -0.27124 ]
	SubspaceRotationAdjust: set factor to 0.137
ElecMinimize: Iter:  43  G: -540.543231465197550  |grad|_K:  3.009e-06  alpha:  3.360e-01  linmin: -4.247e-05  t[s]:    280.83
	FillingsUpdate:  mu: +0.071304855  nElectrons: 102.000000  magneticMoment: [ Abs: 0.35438  Tot: -0.32444 ]
	SubspaceRotationAdjust: set factor to 0.117
	SubspaceRotationAdjust: resetting CG because factor has changed by 0.116851
ElecMinimize: 	State modified externally: resetting search direction.
ElecMinimize: Iter:  44  G: -540.543291312851920  |grad|_K:  3.299e-06  alpha:  3.227e-01
	FillingsUpdate:  mu: +0.071012166  nElectrons: 102.000000  magneticMoment: [ Abs: 0.35607  Tot: -0.32582 ]
	SubspaceRotationAdjust: set factor to 0.16
ElecMinimize: Iter:  45  G: -540.543320414426034  |grad|_K:  1.592e-06  alpha:  1.346e-01  linmin:  3.993e-06  t[s]:    290.70
	FillingsUpdate:  mu: +0.070263883  nElectrons: 102.000000  magneticMoment: [ Abs: 0.36349  Tot: -0.33241 ]
	SubspaceRotationAdjust: set factor to 0.165
ElecMinimize: Iter:  46  G: -540.543338750050680  |grad|_K:  1.817e-06  alpha:  3.650e-01  linmin:  5.113e-05  t[s]:    294.60
	FillingsUpdate:  mu: +0.071538333  nElectrons: 102.000000  magneticMoment: [ Abs: 0.37686  Tot: -0.34378 ]
	SubspaceRotationAdjust: set factor to 0.177
ElecMinimize: Iter:  47  G: -540.543359904665181  |grad|_K:  1.767e-06  alpha:  3.245e-01  linmin: -3.321e-05  t[s]:    298.51
	FillingsUpdate:  mu: +0.070049111  nElectrons: 102.000000  magneticMoment: [ Abs: 0.40254  Tot: -0.36551 ]
	SubspaceRotationAdjust: set factor to 0.179
ElecMinimize: Iter:  48  G: -540.543386104141405  |grad|_K:  2.503e-06  alpha:  4.235e-01  linmin:  6.591e-05  t[s]:    302.41
	FillingsUpdate:  mu: +0.070579241  nElectrons: 102.000000  magneticMoment: [ Abs: 0.45859  Tot: -0.41010 ]
	SubspaceRotationAdjust: set factor to 0.17
ElecMinimize: Iter:  49  G: -540.543440402678016  |grad|_K:  2.762e-06  alpha:  4.447e-01  linmin: -1.062e-04  t[s]:    306.31
	FillingsUpdate:  mu: +0.070585309  nElectrons: 102.000000  magneticMoment: [ Abs: 0.48867  Tot: -0.43331 ]
	SubspaceRotationAdjust: set factor to 0.15
ElecMinimize: Iter:  50  G: -540.543470393903476  |grad|_K:  2.230e-06  alpha:  1.765e-01  linmin: -2.103e-04  t[s]:    310.21
	FillingsUpdate:  mu: +0.071770866  nElectrons: 102.000000  magneticMoment: [ Abs: 0.54781  Tot: -0.47520 ]
	SubspaceRotationAdjust: set factor to 0.157
ElecMinimize: Iter:  51  G: -540.543526995737579  |grad|_K:  2.784e-06  alpha:  5.184e-01  linmin: -1.643e-04  t[s]:    314.11
	FillingsUpdate:  mu: +0.069989573  nElectrons: 102.000000  magneticMoment: [ Abs: 0.60588  Tot: -0.51366 ]
	SubspaceRotationAdjust: set factor to 0.157
ElecMinimize: Iter:  52  G: -540.543582799909359  |grad|_K:  2.934e-06  alpha:  3.272e-01  linmin: -1.118e-05  t[s]:    318.01
	FillingsUpdate:  mu: +0.071343076  nElectrons: 102.000000  magneticMoment: [ Abs: 0.66498  Tot: -0.55055 ]
	SubspaceRotationAdjust: set factor to 0.159
ElecMinimize: Iter:  53  G: -540.543636145814389  |grad|_K:  2.408e-06  alpha:  3.100e-01  linmin:  4.947e-06  t[s]:    321.95
	FillingsUpdate:  mu: +0.071423099  nElectrons: 102.000000  magneticMoment: [ Abs: 0.69785  Tot: -0.57073 ]
	SubspaceRotationAdjust: set factor to 0.17
ElecMinimize: Iter:  54  G: -540.543664842375279  |grad|_K:  1.894e-06  alpha:  2.480e-01  linmin:  2.750e-05  t[s]:    325.87
	FillingsUpdate:  mu: +0.071108478  nElectrons: 102.000000  magneticMoment: [ Abs: 0.71672  Tot: -0.58190 ]
	SubspaceRotationAdjust: set factor to 0.192
ElecMinimize: Iter:  55  G: -540.543681502744789  |grad|_K:  1.669e-06  alpha:  2.351e-01  linmin:  8.788e-06  t[s]:    329.77
	FillingsUpdate:  mu: +0.071287662  nElectrons: 102.000000  magneticMoment: [ Abs: 0.73765  Tot: -0.59414 ]
	SubspaceRotationAdjust: set factor to 0.23
ElecMinimize: Iter:  56  G: -540.543700057451133  |grad|_K:  1.650e-06  alpha:  3.355e-01  linmin: -1.910e-05  t[s]:    333.69
	FillingsUpdate:  mu: +0.072750445  nElectrons: 102.000000  magneticMoment: [ Abs: 0.75178  Tot: -0.60181 ]
	SubspaceRotationAdjust: set factor to 0.236
ElecMinimize: Iter:  57  G: -540.543713826076100  |grad|_K:  1.512e-06  alpha:  2.559e-01  linmin: -2.179e-05  t[s]:    337.60
	FillingsUpdate:  mu: +0.072104660  nElectrons: 102.000000  magneticMoment: [ Abs: 0.76286  Tot: -0.60784 ]
	SubspaceRotationAdjust: set factor to 0.263
ElecMinimize: Iter:  58  G: -540.543723643166345  |grad|_K:  1.118e-06  alpha:  2.159e-01  linmin: -2.587e-05  t[s]:    341.52
	FillingsUpdate:  mu: +0.071997518  nElectrons: 102.000000  magneticMoment: [ Abs: 0.76822  Tot: -0.61039 ]
	SubspaceRotationAdjust: set factor to 0.251
ElecMinimize: Iter:  59  G: -540.543728901500799  |grad|_K:  1.120e-06  alpha:  2.106e-01  linmin: -1.741e-05  t[s]:    345.43
	FillingsUpdate:  mu: +0.071688633  nElectrons: 102.000000  magneticMoment: [ Abs: 0.77299  Tot: -0.61277 ]
	SubspaceRotationAdjust: set factor to 0.219
ElecMinimize: Iter:  60  G: -540.543733054132417  |grad|_K:  7.870e-07  alpha:  1.661e-01  linmin: -9.278e-06  t[s]:    349.35
	FillingsUpdate:  mu: +0.072265020  nElectrons: 102.000000  magneticMoment: [ Abs: 0.77490  Tot: -0.61336 ]
	SubspaceRotationAdjust: set factor to 0.207
ElecMinimize: Iter:  61  G: -540.543735573254708  |grad|_K:  7.235e-07  alpha:  2.035e-01  linmin: -1.307e-05  t[s]:    353.30
	FillingsUpdate:  mu: +0.071944533  nElectrons: 102.000000  magneticMoment: [ Abs: 0.77745  Tot: -0.61429 ]
	SubspaceRotationAdjust: set factor to 0.208
ElecMinimize: Iter:  62  G: -540.543738440576362  |grad|_K:  5.809e-07  alpha:  2.723e-01  linmin: -1.681e-05  t[s]:    357.18
	FillingsUpdate:  mu: +0.071915511  nElectrons: 102.000000  magneticMoment: [ Abs: 0.77824  Tot: -0.61426 ]
	SubspaceRotationAdjust: set factor to 0.21
ElecMinimize: Iter:  63  G: -540.543740187398612  |grad|_K:  5.407e-07  alpha:  2.576e-01  linmin: -3.498e-06  t[s]:    361.09
	FillingsUpdate:  mu: +0.071901543  nElectrons: 102.000000  magneticMoment: [ Abs: 0.77855  Tot: -0.61411 ]
	SubspaceRotationAdjust: set factor to 0.186
ElecMinimize: Iter:  64  G: -540.543741368365090  |grad|_K:  4.205e-07  alpha:  2.029e-01  linmin: -1.095e-06  t[s]:    365.01
	FillingsUpdate:  mu: +0.072135603  nElectrons: 102.000000  magneticMoment: [ Abs: 0.77799  Tot: -0.61348 ]
	SubspaceRotationAdjust: set factor to 0.163
ElecMinimize: Iter:  65  G: -540.543742107868866  |grad|_K:  3.336e-07  alpha:  2.104e-01  linmin: -1.342e-06  t[s]:    368.91
	FillingsUpdate:  mu: +0.071931211  nElectrons: 102.000000  magneticMoment: [ Abs: 0.77754  Tot: -0.61306 ]
	SubspaceRotationAdjust: set factor to 0.175
ElecMinimize: Iter:  66  G: -540.543742622263949  |grad|_K:  2.886e-07  alpha:  2.324e-01  linmin: -5.531e-07  t[s]:    374.13
	FillingsUpdate:  mu: +0.071985457  nElectrons: 102.000000  magneticMoment: [ Abs: 0.77646  Tot: -0.61224 ]
	SubspaceRotationAdjust: set factor to 0.196
ElecMinimize: Iter:  67  G: -540.543743193045088  |grad|_K:  2.504e-07  alpha:  3.446e-01  linmin: -1.780e-06  t[s]:    378.02
	FillingsUpdate:  mu: +0.072046239  nElectrons: 102.000000  magneticMoment: [ Abs: 0.77544  Tot: -0.61154 ]
	SubspaceRotationAdjust: set factor to 0.217
ElecMinimize: Iter:  68  G: -540.543743556481445  |grad|_K:  2.347e-07  alpha:  2.914e-01  linmin: -2.401e-07  t[s]:    381.94
	FillingsUpdate:  mu: +0.071942426  nElectrons: 102.000000  magneticMoment: [ Abs: 0.77418  Tot: -0.61069 ]
	SubspaceRotationAdjust: set factor to 0.225
ElecMinimize: Iter:  69  G: -540.543743863851773  |grad|_K:  2.116e-07  alpha:  2.808e-01  linmin:  8.101e-08  t[s]:    385.84
	FillingsUpdate:  mu: +0.071822461  nElectrons: 102.000000  magneticMoment: [ Abs: 0.77261  Tot: -0.60971 ]
	SubspaceRotationAdjust: set factor to 0.24
ElecMinimize: Iter:  70  G: -540.543744148603423  |grad|_K:  2.363e-07  alpha:  3.203e-01  linmin:  1.484e-06  t[s]:    389.74
	FillingsUpdate:  mu: +0.071980818  nElectrons: 102.000000  magneticMoment: [ Abs: 0.77092  Tot: -0.60863 ]
	SubspaceRotationAdjust: set factor to 0.22
ElecMinimize: Iter:  71  G: -540.543744359960101  |grad|_K:  2.310e-07  alpha:  1.907e-01  linmin: -1.046e-07  t[s]:    393.63
	FillingsUpdate:  mu: +0.071951495  nElectrons: 102.000000  magneticMoment: [ Abs: 0.76857  Tot: -0.60723 ]
	SubspaceRotationAdjust: set factor to 0.192
ElecMinimize: Iter:  72  G: -540.543744637819941  |grad|_K:  2.081e-07  alpha:  2.621e-01  linmin:  2.632e-07  t[s]:    397.52
	FillingsUpdate:  mu: +0.071921320  nElectrons: 102.000000  magneticMoment: [ Abs: 0.76662  Tot: -0.60608 ]
	SubspaceRotationAdjust: set factor to 0.191
ElecMinimize: Iter:  73  G: -540.543744829542220  |grad|_K:  1.640e-07  alpha:  2.229e-01  linmin:  8.077e-07  t[s]:    401.41
	FillingsUpdate:  mu: +0.071939882  nElectrons: 102.000000  magneticMoment: [ Abs: 0.76473  Tot: -0.60503 ]
	SubspaceRotationAdjust: set factor to 0.197
ElecMinimize: Iter:  74  G: -540.543744995388920  |grad|_K:  1.550e-07  alpha:  3.105e-01  linmin:  9.838e-07  t[s]:    405.32
	FillingsUpdate:  mu: +0.072004836  nElectrons: 102.000000  magneticMoment: [ Abs: 0.76300  Tot: -0.60411 ]
	SubspaceRotationAdjust: set factor to 0.206
ElecMinimize: Iter:  75  G: -540.543745129795184  |grad|_K:  1.433e-07  alpha:  2.819e-01  linmin: -7.751e-08  t[s]:    409.24
	FillingsUpdate:  mu: +0.071888328  nElectrons: 102.000000  magneticMoment: [ Abs: 0.76190  Tot: -0.60359 ]
	SubspaceRotationAdjust: set factor to 0.18
ElecMinimize: Iter:  76  G: -540.543745218149979  |grad|_K:  1.274e-07  alpha:  2.166e-01  linmin:  1.869e-07  t[s]:    413.14
	FillingsUpdate:  mu: +0.071901182  nElectrons: 102.000000  magneticMoment: [ Abs: 0.76076  Tot: -0.60303 ]
	SubspaceRotationAdjust: set factor to 0.163
ElecMinimize: Iter:  77  G: -540.543745293965799  |grad|_K:  1.089e-07  alpha:  2.350e-01  linmin:  6.462e-07  t[s]:    417.04
ElecMinimize: Converged (|Delta G|<1.000000e-07 for 2 iters).
Setting wave functions to eigenvectors of Hamiltonian
Converging empty states (this may take a while): |deigs|: 2.505e-03
Vacuum energy after initial minimize, F = -540.543745293965799

Shifting auxilliary hamiltonian by -0.169701 to set nElectrons=102.000000

-------- Electronic minimization -----------
	Linear fluid (dielectric constant: 78.4, screening length: 8.12261 Bohr) occupying 0.487767 of unit cell:	Completed after 22 iterations at t[s]:    435.90
	FillingsUpdate:  mu: -0.097800000  nElectrons: 102.000000  magneticMoment: [ Abs: 0.76067  Tot: -0.60381 ]
ElecMinimize: Iter:   0  G: -540.545667470689182  |grad|_K:  6.113e-05  alpha:  1.000e+00
	Linear fluid (dielectric constant: 78.4, screening length: 8.12261 Bohr) occupying 0.572346 of unit cell:	Completed after 30 iterations at t[s]:    440.58
	Linear fluid (dielectric constant: 78.4, screening length: 8.12261 Bohr) occupying 0.522498 of unit cell:	Completed after 26 iterations at t[s]:    443.05
ElecMinimize: 	Step increased G by 7.330791e-03, reducing alpha to 2.148133e-02.
	Linear fluid (dielectric constant: 78.4, screening length: 8.12261 Bohr) occupying 0.487839 of unit cell:	Completed after 20 iterations at t[s]:    446.57
	FillingsUpdate:  mu: -0.097800000  nElectrons: 102.039391  magneticMoment: [ Abs: 0.73830  Tot: -0.57757 ]
	SubspaceRotationAdjust: set factor to 0.0834
ElecMinimize: Iter:   1  G: -540.548349009982758  |grad|_K:  4.302e-05  alpha:  2.148e-02  linmin: -7.565e-02  t[s]:    448.18
	Linear fluid (dielectric constant: 78.4, screening length: 8.12261 Bohr) occupying 0.488885 of unit cell:	Completed after 18 iterations at t[s]:    450.40
	Linear fluid (dielectric constant: 78.4, screening length: 8.12261 Bohr) occupying 0.492503 of unit cell:	Completed after 17 iterations at t[s]:    452.52
	FillingsUpdate:  mu: -0.097800000  nElectrons: 102.148204  magneticMoment: [ Abs: 0.68006  Tot: -0.50326 ]
	SubspaceRotationAdjust: set factor to 0.0954
ElecMinimize: Iter:   2  G: -540.551548006419580  |grad|_K:  2.395e-05  alpha:  4.985e-02  linmin: -3.878e-03  t[s]:    454.19
	Linear fluid (dielectric constant: 78.4, screening length: 8.12261 Bohr) occupying 0.495377 of unit cell:	Completed after 17 iterations at t[s]:    456.41
ElecMinimize: 	Predicted alpha/alphaT>3.000000, increasing alphaT to 1.495601e-01.
	Linear fluid (dielectric constant: 78.4, screening length: 8.12261 Bohr) occupying 0.503108 of unit cell:	Completed after 18 iterations at t[s]:    458.56
	Linear fluid (dielectric constant: 78.4, screening length: 8.12261 Bohr) occupying 0.507304 of unit cell:	Completed after 14 iterations at t[s]:    460.59
	FillingsUpdate:  mu: -0.097800000  nElectrons: 102.284481  magneticMoment: [ Abs: 0.62368  Tot: -0.41137 ]
	SubspaceRotationAdjust: set factor to 0.0814
ElecMinimize: Iter:   3  G: -540.554045355813628  |grad|_K:  2.856e-05  alpha:  1.951e-01  linmin: -2.390e-03  t[s]:    462.22
	Linear fluid (dielectric constant: 78.4, screening length: 8.12261 Bohr) occupying 0.524685 of unit cell:	Completed after 22 iterations at t[s]:    464.58
	Linear fluid (dielectric constant: 78.4, screening length: 8.12261 Bohr) occupying 0.522030 of unit cell:	Completed after 19 iterations at t[s]:    466.80
	FillingsUpdate:  mu: -0.097800000  nElectrons: 102.394522  magneticMoment: [ Abs: 0.59268  Tot: -0.34512 ]
	SubspaceRotationAdjust: set factor to 0.101
ElecMinimize: Iter:   4  G: -540.556899022061430  |grad|_K:  3.264e-05  alpha:  1.650e-01  linmin:  2.196e-05  t[s]:    468.46
	Linear fluid (dielectric constant: 78.4, screening length: 8.12261 Bohr) occupying 0.537857 of unit cell:	Completed after 22 iterations at t[s]:    471.02
	Linear fluid (dielectric constant: 78.4, screening length: 8.12261 Bohr) occupying 0.540848 of unit cell:	Completed after 20 iterations at t[s]:    473.20
	FillingsUpdate:  mu: -0.097800000  nElectrons: 102.563086  magneticMoment: [ Abs: 0.54902  Tot: -0.31693 ]
	SubspaceRotationAdjust: set factor to 0.105
ElecMinimize: Iter:   5  G: -540.561079110046080  |grad|_K:  3.564e-05  alpha:  2.002e-01  linmin:  7.808e-04  t[s]:    474.85
	Linear fluid (dielectric constant: 78.4, screening length: 8.12261 Bohr) occupying 0.553776 of unit cell:	Completed after 24 iterations at t[s]:    477.35
	Linear fluid (dielectric constant: 78.4, screening length: 8.12261 Bohr) occupying 0.548596 of unit cell:	Completed after 22 iterations at t[s]:    479.65
	FillingsUpdate:  mu: -0.097800000  nElectrons: 102.664656  magneticMoment: [ Abs: 0.52295  Tot: -0.32861 ]
	SubspaceRotationAdjust: set factor to 0.112
ElecMinimize: Iter:   6  G: -540.563194478054470  |grad|_K:  2.678e-05  alpha:  9.161e-02  linmin:  3.325e-04  t[s]:    481.25
	Linear fluid (dielectric constant: 78.4, screening length: 8.12261 Bohr) occupying 0.551423 of unit cell:	Completed after 20 iterations at t[s]:    483.57
	Linear fluid (dielectric constant: 78.4, screening length: 8.12261 Bohr) occupying 0.552261 of unit cell:	Completed after 14 iterations at t[s]:    485.59
	FillingsUpdate:  mu: -0.097800000  nElectrons: 102.733131  magneticMoment: [ Abs: 0.50554  Tot: -0.32605 ]
	SubspaceRotationAdjust: set factor to 0.118
ElecMinimize: Iter:   7  G: -540.564951147190754  |grad|_K:  2.909e-05  alpha:  1.243e-01  linmin: -2.416e-04  t[s]:    487.20
	Linear fluid (dielectric constant: 78.4, screening length: 8.12261 Bohr) occupying 0.554598 of unit cell:	Completed after 19 iterations at t[s]:    489.49
	Linear fluid (dielectric constant: 78.4, screening length: 8.12261 Bohr) occupying 0.555473 of unit cell:	Completed after 17 iterations at t[s]:    491.61
	FillingsUpdate:  mu: -0.097800000  nElectrons: 102.834047  magneticMoment: [ Abs: 0.48387  Tot: -0.30494 ]
	SubspaceRotationAdjust: set factor to 0.131
ElecMinimize: Iter:   8  G: -540.568112919257146  |grad|_K:  3.490e-05  alpha:  1.853e-01  linmin: -4.316e-05  t[s]:    493.23
	Linear fluid (dielectric constant: 78.4, screening length: 8.12261 Bohr) occupying 0.555902 of unit cell:	Completed after 22 iterations at t[s]:    495.61
	Linear fluid (dielectric constant: 78.4, screening length: 8.12261 Bohr) occupying 0.556060 of unit cell:	Completed after 21 iterations at t[s]:    497.88
	FillingsUpdate:  mu: -0.097800000  nElectrons: 102.893463  magneticMoment: [ Abs: 0.47415  Tot: -0.31150 ]
	SubspaceRotationAdjust: set factor to 0.155
ElecMinimize: Iter:   9  G: -540.570543883988876  |grad|_K:  2.482e-05  alpha:  9.786e-02  linmin: -2.201e-04  t[s]:    499.50
	Linear fluid (dielectric constant: 78.4, screening length: 8.12261 Bohr) occupying 0.555573 of unit cell:	Completed after 20 iterations at t[s]:    501.90
	Linear fluid (dielectric constant: 78.4, screening length: 8.12261 Bohr) occupying 0.555564 of unit cell:	Completed after 9 iterations at t[s]:    503.69
	FillingsUpdate:  mu: -0.097800000  nElectrons: 102.910109  magneticMoment: [ Abs: 0.47152  Tot: -0.31444 ]
	SubspaceRotationAdjust: set factor to 0.167
ElecMinimize: Iter:  10  G: -540.571772300185216  |grad|_K:  2.422e-05  alpha:  9.923e-02  linmin:  2.858e-04  t[s]:    505.32
	Linear fluid (dielectric constant: 78.4, screening length: 8.12261 Bohr) occupying 0.555130 of unit cell:	Completed after 20 iterations at t[s]:    507.63
	Linear fluid (dielectric constant: 78.4, screening length: 8.12261 Bohr) occupying 0.554849 of unit cell:	Completed after 19 iterations at t[s]:    509.85
	FillingsUpdate:  mu: -0.097800000  nElectrons: 102.936303  magneticMoment: [ Abs: 0.45661  Tot: -0.29788 ]
	SubspaceRotationAdjust: set factor to 0.189
ElecMinimize: Iter:  11  G: -540.573486367134137  |grad|_K:  3.173e-05  alpha:  1.495e-01  linmin:  1.445e-04  t[s]:    511.49
	Linear fluid (dielectric constant: 78.4, screening length: 8.12261 Bohr) occupying 0.554201 of unit cell:	Completed after 22 iterations at t[s]:    513.89
	Linear fluid (dielectric constant: 78.4, screening length: 8.12261 Bohr) occupying 0.554538 of unit cell:	Completed after 20 iterations at t[s]:    516.08
	FillingsUpdate:  mu: -0.097800000  nElectrons: 102.983610  magneticMoment: [ Abs: 0.43452  Tot: -0.25701 ]
	SubspaceRotationAdjust: set factor to 0.226
ElecMinimize: Iter:  12  G: -540.575473006602238  |grad|_K:  2.662e-05  alpha:  1.003e-01  linmin: -2.523e-05  t[s]:    517.75
	Linear fluid (dielectric constant: 78.4, screening length: 8.12261 Bohr) occupying 0.554485 of unit cell:	Completed after 20 iterations at t[s]:    520.08
	Linear fluid (dielectric constant: 78.4, screening length: 8.12261 Bohr) occupying 0.554541 of unit cell:	Completed after 14 iterations at t[s]:    522.05
	FillingsUpdate:  mu: -0.097800000  nElectrons: 103.016265  magneticMoment: [ Abs: 0.42559  Tot: -0.23274 ]
	SubspaceRotationAdjust: set factor to 0.246
ElecMinimize: Iter:  13  G: -540.576546590582552  |grad|_K:  2.049e-05  alpha:  7.709e-02  linmin: -1.734e-04  t[s]:    523.69
	Linear fluid (dielectric constant: 78.4, screening length: 8.12261 Bohr) occupying 0.554317 of unit cell:	Completed after 19 iterations at t[s]:    525.95
	Linear fluid (dielectric constant: 78.4, screening length: 8.12261 Bohr) occupying 0.554149 of unit cell:	Completed after 14 iterations at t[s]:    527.97
	FillingsUpdate:  mu: -0.097800000  nElectrons: 103.036217  magneticMoment: [ Abs: 0.42247  Tot: -0.22099 ]
	SubspaceRotationAdjust: set factor to 0.274
ElecMinimize: Iter:  14  G: -540.577584433257925  |grad|_K:  2.312e-05  alpha:  1.222e-01  linmin: -4.221e-04  t[s]:    529.59
	Linear fluid (dielectric constant: 78.4, screening length: 8.12261 Bohr) occupying 0.552688 of unit cell:	Completed after 22 iterations at t[s]:    532.11
	Linear fluid (dielectric constant: 78.4, screening length: 8.12261 Bohr) occupying 0.552765 of unit cell:	Completed after 14 iterations at t[s]:    534.09
	FillingsUpdate:  mu: -0.097800000  nElectrons: 103.035980  magneticMoment: [ Abs: 0.42847  Tot: -0.21831 ]
	SubspaceRotationAdjust: set factor to 0.303
ElecMinimize: Iter:  15  G: -540.578848187004382  |grad|_K:  2.061e-05  alpha:  1.162e-01  linmin:  2.335e-04  t[s]:    535.71
	Linear fluid (dielectric constant: 78.4, screening length: 8.12261 Bohr) occupying 0.551389 of unit cell:	Completed after 21 iterations at t[s]:    538.04
	Linear fluid (dielectric constant: 78.4, screening length: 8.12261 Bohr) occupying 0.551779 of unit cell:	Completed after 19 iterations at t[s]:    540.26
	FillingsUpdate:  mu: -0.097800000  nElectrons: 103.031889  magneticMoment: [ Abs: 0.43089  Tot: -0.21600 ]
	SubspaceRotationAdjust: set factor to 0.321
ElecMinimize: Iter:  16  G: -540.579551671545573  |grad|_K:  1.788e-05  alpha:  8.429e-02  linmin:  2.237e-05  t[s]:    541.90
	Linear fluid (dielectric constant: 78.4, screening length: 8.12261 Bohr) occupying 0.551570 of unit cell:	Completed after 19 iterations at t[s]:    544.16
	Linear fluid (dielectric constant: 78.4, screening length: 8.12261 Bohr) occupying 0.551502 of unit cell:	Completed after 16 iterations at t[s]:    546.29
	FillingsUpdate:  mu: -0.097800000  nElectrons: 103.045302  magneticMoment: [ Abs: 0.41970  Tot: -0.20666 ]
	SubspaceRotationAdjust: set factor to 0.393
ElecMinimize: Iter:  17  G: -540.580245421943346  |grad|_K:  1.918e-05  alpha:  1.093e-01  linmin:  7.513e-06  t[s]:    547.90
	Linear fluid (dielectric constant: 78.4, screening length: 8.12261 Bohr) occupying 0.552011 of unit cell:	Completed after 21 iterations at t[s]:    550.28
	Linear fluid (dielectric constant: 78.4, screening length: 8.12261 Bohr) occupying 0.551924 of unit cell:	Completed after 18 iterations at t[s]:    552.45
	FillingsUpdate:  mu: -0.097800000  nElectrons: 103.076540  magneticMoment: [ Abs: 0.39729  Tot: -0.19674 ]
	SubspaceRotationAdjust: set factor to 0.429
ElecMinimize: Iter:  18  G: -540.580912766759184  |grad|_K:  1.659e-05  alpha:  9.108e-02  linmin:  4.971e-05  t[s]:    554.05
	Linear fluid (dielectric constant: 78.4, screening length: 8.12261 Bohr) occupying 0.552124 of unit cell:	Completed after 20 iterations at t[s]:    556.36
	Linear fluid (dielectric constant: 78.4, screening length: 8.12261 Bohr) occupying 0.552098 of unit cell:	Completed after 14 iterations at t[s]:    558.36
	FillingsUpdate:  mu: -0.097800000  nElectrons: 103.094273  magneticMoment: [ Abs: 0.38265  Tot: -0.19201 ]
	SubspaceRotationAdjust: set factor to 0.463
ElecMinimize: Iter:  19  G: -540.581350218543207  |grad|_K:  1.654e-05  alpha:  8.007e-02  linmin:  1.195e-04  t[s]:    559.99
	Linear fluid (dielectric constant: 78.4, screening length: 8.12261 Bohr) occupying 0.551369 of unit cell:	Completed after 19 iterations at t[s]:    562.26
	Linear fluid (dielectric constant: 78.4, screening length: 8.12261 Bohr) occupying 0.551332 of unit cell:	Completed after 10 iterations at t[s]:    564.18
	FillingsUpdate:  mu: -0.097800000  nElectrons: 103.084838  magneticMoment: [ Abs: 0.37690  Tot: -0.18259 ]
	SubspaceRotationAdjust: set factor to 0.625
ElecMinimize: Iter:  20  G: -540.581804899541680  |grad|_K:  1.495e-05  alpha:  8.414e-02  linmin: -5.395e-05  t[s]:    565.79
	Linear fluid (dielectric constant: 78.4, screening length: 8.12261 Bohr) occupying 0.550168 of unit cell:	Completed after 20 iterations at t[s]:    568.09
	Linear fluid (dielectric constant: 78.4, screening length: 8.12261 Bohr) occupying 0.550346 of unit cell:	Completed after 14 iterations at t[s]:    570.16
	FillingsUpdate:  mu: -0.097800000  nElectrons: 103.065901  magneticMoment: [ Abs: 0.37448  Tot: -0.17438 ]
	SubspaceRotationAdjust: set factor to 0.592
ElecMinimize: Iter:  21  G: -540.582117404070345  |grad|_K:  1.312e-05  alpha:  7.109e-02  linmin: -3.325e-04  t[s]:    571.76
	Linear fluid (dielectric constant: 78.4, screening length: 8.12261 Bohr) occupying 0.549990 of unit cell:	Completed after 18 iterations at t[s]:    573.99
	Linear fluid (dielectric constant: 78.4, screening length: 8.12261 Bohr) occupying 0.549768 of unit cell:	Completed after 17 iterations at t[s]:    576.11
	FillingsUpdate:  mu: -0.097800000  nElectrons: 103.056525  magneticMoment: [ Abs: 0.36209  Tot: -0.16458 ]
	SubspaceRotationAdjust: set factor to 0.471
ElecMinimize: Iter:  22  G: -540.582518398356683  |grad|_K:  1.407e-05  alpha:  1.141e-01  linmin: -1.435e-04  t[s]:    577.76
	Linear fluid (dielectric constant: 78.4, screening length: 8.12261 Bohr) occupying 0.549992 of unit cell:	Completed after 20 iterations at t[s]:    580.04
	Linear fluid (dielectric constant: 78.4, screening length: 8.12261 Bohr) occupying 0.549919 of unit cell:	Completed after 19 iterations at t[s]:    582.29
	FillingsUpdate:  mu: -0.097800000  nElectrons: 103.060655  magneticMoment: [ Abs: 0.35104  Tot: -0.15938 ]
	SubspaceRotationAdjust: set factor to 0.629
ElecMinimize: Iter:  23  G: -540.582793717201298  |grad|_K:  9.042e-06  alpha:  7.016e-02  linmin:  2.936e-05  t[s]:    583.91
	Linear fluid (dielectric constant: 78.4, screening length: 8.12261 Bohr) occupying 0.550017 of unit cell:	Completed after 18 iterations at t[s]:    586.13
	Linear fluid (dielectric constant: 78.4, screening length: 8.12261 Bohr) occupying 0.550078 of unit cell:	Completed after 18 iterations at t[s]:    588.28
	FillingsUpdate:  mu: -0.097800000  nElectrons: 103.061413  magneticMoment: [ Abs: 0.34293  Tot: -0.15566 ]
	SubspaceRotationAdjust: set factor to 0.607
ElecMinimize: Iter:  24  G: -540.582986609477302  |grad|_K:  1.107e-05  alpha:  1.184e-01  linmin: -1.956e-04  t[s]:    589.95
	Linear fluid (dielectric constant: 78.4, screening length: 8.12261 Bohr) occupying 0.549803 of unit cell:	Completed after 19 iterations at t[s]:    592.23
	Linear fluid (dielectric constant: 78.4, screening length: 8.12261 Bohr) occupying 0.549835 of unit cell:	Completed after 10 iterations at t[s]:    594.12
	FillingsUpdate:  mu: -0.097800000  nElectrons: 103.049049  magneticMoment: [ Abs: 0.32986  Tot: -0.14544 ]
	SubspaceRotationAdjust: set factor to 0.82
ElecMinimize: Iter:  25  G: -540.583248463103018  |grad|_K:  8.986e-06  alpha:  1.065e-01  linmin: -5.504e-05  t[s]:    595.73
	Linear fluid (dielectric constant: 78.4, screening length: 8.12261 Bohr) occupying 0.549508 of unit cell:	Completed after 19 iterations at t[s]:    597.99
	Linear fluid (dielectric constant: 78.4, screening length: 8.12261 Bohr) occupying 0.549509 of unit cell:	Completed after 0 iterations at t[s]:    599.47
	FillingsUpdate:  mu: -0.097800000  nElectrons: 103.034798  magneticMoment: [ Abs: 0.31921  Tot: -0.13602 ]
	SubspaceRotationAdjust: set factor to 0.763
ElecMinimize: Iter:  26  G: -540.583419886004549  |grad|_K:  9.615e-06  alpha:  1.065e-01  linmin:  5.032e-05  t[s]:    601.08
	Linear fluid (dielectric constant: 78.4, screening length: 8.12261 Bohr) occupying 0.549518 of unit cell:	Completed after 18 iterations at t[s]:    603.36
	Linear fluid (dielectric constant: 78.4, screening length: 8.12261 Bohr) occupying 0.549524 of unit cell:	Completed after 11 iterations at t[s]:    605.24
	FillingsUpdate:  mu: -0.097800000  nElectrons: 103.026166  magneticMoment: [ Abs: 0.31000  Tot: -0.12918 ]
	SubspaceRotationAdjust: set factor to 0.928
ElecMinimize: Iter:  27  G: -540.583564381478709  |grad|_K:  7.206e-06  alpha:  7.882e-02  linmin:  1.739e-05  t[s]:    606.86
	Linear fluid (dielectric constant: 78.4, screening length: 8.12261 Bohr) occupying 0.549845 of unit cell:	Completed after 17 iterations at t[s]:    609.08
	Linear fluid (dielectric constant: 78.4, screening length: 8.12261 Bohr) occupying 0.550062 of unit cell:	Completed after 14 iterations at t[s]:    611.08
	FillingsUpdate:  mu: -0.097800000  nElectrons: 103.026195  magneticMoment: [ Abs: 0.29952  Tot: -0.12366 ]
	SubspaceRotationAdjust: set factor to 0.936
ElecMinimize: Iter:  28  G: -540.583700993626962  |grad|_K:  8.269e-06  alpha:  1.325e-01  linmin: -1.414e-05  t[s]:    612.71
	Linear fluid (dielectric constant: 78.4, screening length: 8.12261 Bohr) occupying 0.550245 of unit cell:	Completed after 19 iterations at t[s]:    614.99
	Linear fluid (dielectric constant: 78.4, screening length: 8.12261 Bohr) occupying 0.550162 of unit cell:	Completed after 17 iterations at t[s]:    617.12
	FillingsUpdate:  mu: -0.097800000  nElectrons: 103.019815  magneticMoment: [ Abs: 0.29342  Tot: -0.11919 ]
	SubspaceRotationAdjust: set factor to 0.861
ElecMinimize: Iter:  29  G: -540.583787729268010  |grad|_K:  6.156e-06  alpha:  6.303e-02  linmin: -1.226e-04  t[s]:    618.76
	Linear fluid (dielectric constant: 78.4, screening length: 8.12261 Bohr) occupying 0.550255 of unit cell:	Completed after 14 iterations at t[s]:    621.02
	Linear fluid (dielectric constant: 78.4, screening length: 8.12261 Bohr) occupying 0.550338 of unit cell:	Completed after 14 iterations at t[s]:    622.99
	FillingsUpdate:  mu: -0.097800000  nElectrons: 103.011180  magneticMoment: [ Abs: 0.28567  Tot: -0.11523 ]
	SubspaceRotationAdjust: set factor to 0.775
ElecMinimize: Iter:  30  G: -540.583882935593806  |grad|_K:  7.491e-06  alpha:  1.266e-01  linmin:  2.745e-04  t[s]:    624.62
	Linear fluid (dielectric constant: 78.4, screening length: 8.12261 Bohr) occupying 0.551392 of unit cell:	Completed after 20 iterations at t[s]:    626.91
	Linear fluid (dielectric constant: 78.4, screening length: 8.12261 Bohr) occupying 0.550919 of unit cell:	Completed after 17 iterations at t[s]:    629.08
	FillingsUpdate:  mu: -0.097800000  nElectrons: 103.013347  magneticMoment: [ Abs: 0.27602  Tot: -0.11240 ]
	SubspaceRotationAdjust: set factor to 0.904
ElecMinimize: Iter:  31  G: -540.583958477821852  |grad|_K:  5.695e-06  alpha:  6.915e-02  linmin:  6.971e-06  t[s]:    630.70
	Linear fluid (dielectric constant: 78.4, screening length: 8.12261 Bohr) occupying 0.551034 of unit cell:	Completed after 14 iterations at t[s]:    632.78
	Linear fluid (dielectric constant: 78.4, screening length: 8.12261 Bohr) occupying 0.551112 of unit cell:	Completed after 13 iterations at t[s]:    634.76
	FillingsUpdate:  mu: -0.097800000  nElectrons: 103.006825  magneticMoment: [ Abs: 0.26455  Tot: -0.10720 ]
	SubspaceRotationAdjust: set factor to 1.05
ElecMinimize: Iter:  32  G: -540.584035845934181  |grad|_K:  5.716e-06  alpha:  1.199e-01  linmin: -3.436e-05  t[s]:    636.41
	Linear fluid (dielectric constant: 78.4, screening length: 8.12261 Bohr) occupying 0.550595 of unit cell:	Completed after 20 iterations at t[s]:    638.76
	Linear fluid (dielectric constant: 78.4, screening length: 8.12261 Bohr) occupying 0.550889 of unit cell:	Completed after 19 iterations at t[s]:    640.92
	FillingsUpdate:  mu: -0.097800000  nElectrons: 102.996992  magneticMoment: [ Abs: 0.25950  Tot: -0.10397 ]
	SubspaceRotationAdjust: set factor to 0.83
ElecMinimize: Iter:  33  G: -540.584072975381901  |grad|_K:  5.116e-06  alpha:  5.547e-02  linmin: -2.002e-04  t[s]:    642.59
	Linear fluid (dielectric constant: 78.4, screening length: 8.12261 Bohr) occupying 0.551021 of unit cell:	Completed after 13 iterations at t[s]:    644.64
	Linear fluid (dielectric constant: 78.4, screening length: 8.12261 Bohr) occupying 0.551136 of unit cell:	Completed after 12 iterations at t[s]:    646.61
	FillingsUpdate:  mu: -0.097800000  nElectrons: 102.996015  magneticMoment: [ Abs: 0.24990  Tot: -0.10145 ]
	SubspaceRotationAdjust: set factor to 1.17
ElecMinimize: Iter:  34  G: -540.584128412366567  |grad|_K:  3.837e-06  alpha:  1.049e-01  linmin: -4.512e-06  t[s]:    648.23
	Linear fluid (dielectric constant: 78.4, screening length: 8.12261 Bohr) occupying 0.551564 of unit cell:	Completed after 19 iterations at t[s]:    650.69
	Linear fluid (dielectric constant: 78.4, screening length: 8.12261 Bohr) occupying 0.551480 of unit cell:	Completed after 14 iterations at t[s]:    652.68
	FillingsUpdate:  mu: -0.097800000  nElectrons: 103.001393  magneticMoment: [ Abs: 0.24486  Tot: -0.10164 ]
	SubspaceRotationAdjust: set factor to 0.982
ElecMinimize: Iter:  35  G: -540.584152945530718  |grad|_K:  4.714e-06  alpha:  8.387e-02  linmin: -1.009e-05  t[s]:    654.29
	Linear fluid (dielectric constant: 78.4, screening length: 8.12261 Bohr) occupying 0.551424 of unit cell:	Completed after 17 iterations at t[s]:    656.49
	Linear fluid (dielectric constant: 78.4, screening length: 8.12261 Bohr) occupying 0.551430 of unit cell:	Completed after 9 iterations at t[s]:    658.38
	FillingsUpdate:  mu: -0.097800000  nElectrons: 102.997769  magneticMoment: [ Abs: 0.23874  Tot: -0.10081 ]
	SubspaceRotationAdjust: set factor to 0.915
ElecMinimize: Iter:  36  G: -540.584185986271223  |grad|_K:  4.064e-06  alpha:  7.475e-02  linmin:  3.841e-05  t[s]:    659.99
	Linear fluid (dielectric constant: 78.4, screening length: 8.12261 Bohr) occupying 0.551457 of unit cell:	Completed after 13 iterations at t[s]:    662.04
	Linear fluid (dielectric constant: 78.4, screening length: 8.12261 Bohr) occupying 0.551462 of unit cell:	Completed after 11 iterations at t[s]:    663.95
	FillingsUpdate:  mu: -0.097800000  nElectrons: 102.997453  magneticMoment: [ Abs: 0.23172  Tot: -0.09988 ]
	SubspaceRotationAdjust: set factor to 0.809
ElecMinimize: Iter:  37  G: -540.584216049326642  |grad|_K:  3.964e-06  alpha:  9.191e-02  linmin:  2.676e-05  t[s]:    665.58
	Linear fluid (dielectric constant: 78.4, screening length: 8.12261 Bohr) occupying 0.551561 of unit cell:	Completed after 17 iterations at t[s]:    667.82
	Linear fluid (dielectric constant: 78.4, screening length: 8.12261 Bohr) occupying 0.551539 of unit cell:	Completed after 11 iterations at t[s]:    669.72
	FillingsUpdate:  mu: -0.097800000  nElectrons: 102.998930  magneticMoment: [ Abs: 0.22644  Tot: -0.10006 ]
	SubspaceRotationAdjust: set factor to 0.76
ElecMinimize: Iter:  38  G: -540.584238028918435  |grad|_K:  2.828e-06  alpha:  7.063e-02  linmin: -2.230e-05  t[s]:    671.32
	Linear fluid (dielectric constant: 78.4, screening length: 8.12261 Bohr) occupying 0.551515 of unit cell:	Completed after 14 iterations at t[s]:    673.41
	Linear fluid (dielectric constant: 78.4, screening length: 8.12261 Bohr) occupying 0.551489 of unit cell:	Completed after 14 iterations at t[s]:    676.43
	FillingsUpdate:  mu: -0.097800000  nElectrons: 102.999128  magneticMoment: [ Abs: 0.22112  Tot: -0.10019 ]
	SubspaceRotationAdjust: set factor to 0.793
ElecMinimize: Iter:  39  G: -540.584260807999158  |grad|_K:  3.111e-06  alpha:  1.432e-01  linmin:  1.217e-05  t[s]:    678.10
	Linear fluid (dielectric constant: 78.4, screening length: 8.12261 Bohr) occupying 0.551727 of unit cell:	Completed after 19 iterations at t[s]:    680.50
	Linear fluid (dielectric constant: 78.4, screening length: 8.12261 Bohr) occupying 0.551603 of unit cell:	Completed after 17 iterations at t[s]:    682.55
	FillingsUpdate:  mu: -0.097800000  nElectrons: 103.003375  magneticMoment: [ Abs: 0.21756  Tot: -0.10052 ]
	SubspaceRotationAdjust: set factor to 0.676
ElecMinimize: Iter:  40  G: -540.584273987388315  |grad|_K:  2.567e-06  alpha:  6.832e-02  linmin: -4.238e-05  t[s]:    684.22
	Linear fluid (dielectric constant: 78.4, screening length: 8.12261 Bohr) occupying 0.551662 of unit cell:	Completed after 13 iterations at t[s]:    686.27
	Linear fluid (dielectric constant: 78.4, screening length: 8.12261 Bohr) occupying 0.551702 of unit cell:	Completed after 12 iterations at t[s]:    688.21
	FillingsUpdate:  mu: -0.097800000  nElectrons: 103.008321  magneticMoment: [ Abs: 0.21365  Tot: -0.10131 ]
	SubspaceRotationAdjust: set factor to 0.742
ElecMinimize: Iter:  41  G: -540.584289358882529  |grad|_K:  2.111e-06  alpha:  1.171e-01  linmin: -2.802e-05  t[s]:    689.83
	Linear fluid (dielectric constant: 78.4, screening length: 8.12261 Bohr) occupying 0.551688 of unit cell:	Completed after 11 iterations at t[s]:    691.80
	Linear fluid (dielectric constant: 78.4, screening length: 8.12261 Bohr) occupying 0.551684 of unit cell:	Completed after 8 iterations at t[s]:    693.60
	FillingsUpdate:  mu: -0.097800000  nElectrons: 103.010849  magneticMoment: [ Abs: 0.20994  Tot: -0.10152 ]
	SubspaceRotationAdjust: set factor to 0.743
ElecMinimize: Iter:  42  G: -540.584302575779020  |grad|_K:  2.575e-06  alpha:  1.490e-01  linmin: -1.290e-05  t[s]:    695.21
	Linear fluid (dielectric constant: 78.4, screening length: 8.12261 Bohr) occupying 0.551715 of unit cell:	Completed after 14 iterations at t[s]:    697.29
	Linear fluid (dielectric constant: 78.4, screening length: 8.12261 Bohr) occupying 0.551698 of unit cell:	Completed after 13 iterations at t[s]:    699.27
	FillingsUpdate:  mu: -0.097800000  nElectrons: 103.013595  magneticMoment: [ Abs: 0.20677  Tot: -0.10123 ]
	SubspaceRotationAdjust: set factor to 0.665
ElecMinimize: Iter:  43  G: -540.584311600117303  |grad|_K:  1.890e-06  alpha:  6.831e-02  linmin: -2.193e-05  t[s]:    700.91
	Linear fluid (dielectric constant: 78.4, screening length: 8.12261 Bohr) occupying 0.551614 of unit cell:	Completed after 13 iterations at t[s]:    702.99
	Linear fluid (dielectric constant: 78.4, screening length: 8.12261 Bohr) occupying 0.551537 of unit cell:	Completed after 12 iterations at t[s]:    704.93
	FillingsUpdate:  mu: -0.097800000  nElectrons: 103.012363  magneticMoment: [ Abs: 0.20397  Tot: -0.10066 ]
	SubspaceRotationAdjust: set factor to 0.713
ElecMinimize: Iter:  44  G: -540.584320822895165  |grad|_K:  1.759e-06  alpha:  1.301e-01  linmin:  6.897e-05  t[s]:    706.53
	Linear fluid (dielectric constant: 78.4, screening length: 8.12261 Bohr) occupying 0.551455 of unit cell:	Completed after 14 iterations at t[s]:    708.62
	Linear fluid (dielectric constant: 78.4, screening length: 8.12261 Bohr) occupying 0.551463 of unit cell:	Completed after 7 iterations at t[s]:    710.47
	FillingsUpdate:  mu: -0.097800000  nElectrons: 103.012610  magneticMoment: [ Abs: 0.20211  Tot: -0.10061 ]
	SubspaceRotationAdjust: set factor to 0.753
ElecMinimize: Iter:  45  G: -540.584327979278441  |grad|_K:  1.760e-06  alpha:  1.168e-01  linmin:  5.290e-06  t[s]:    712.06
	Linear fluid (dielectric constant: 78.4, screening length: 8.12261 Bohr) occupying 0.551435 of unit cell:	Completed after 17 iterations at t[s]:    714.27
	Linear fluid (dielectric constant: 78.4, screening length: 8.12261 Bohr) occupying 0.551442 of unit cell:	Completed after 9 iterations at t[s]:    716.11
	FillingsUpdate:  mu: -0.097800000  nElectrons: 103.013781  magneticMoment: [ Abs: 0.20064  Tot: -0.10051 ]
	SubspaceRotationAdjust: set factor to 0.744
ElecMinimize: Iter:  46  G: -540.584333450706254  |grad|_K:  1.462e-06  alpha:  8.895e-02  linmin: -6.049e-06  t[s]:    717.73
	Linear fluid (dielectric constant: 78.4, screening length: 8.12261 Bohr) occupying 0.551329 of unit cell:	Completed after 13 iterations at t[s]:    719.80
	Linear fluid (dielectric constant: 78.4, screening length: 8.12261 Bohr) occupying 0.551326 of unit cell:	Completed after 2 iterations at t[s]:    721.36
	FillingsUpdate:  mu: -0.097800000  nElectrons: 103.012207  magneticMoment: [ Abs: 0.20008  Tot: -0.10032 ]
	SubspaceRotationAdjust: set factor to 0.622
ElecMinimize: Iter:  47  G: -540.584337327043386  |grad|_K:  1.380e-06  alpha:  9.119e-02  linmin: -2.974e-05  t[s]:    722.97
	Linear fluid (dielectric constant: 78.4, screening length: 8.12261 Bohr) occupying 0.551299 of unit cell:	Completed after 11 iterations at t[s]:    724.94
	Linear fluid (dielectric constant: 78.4, screening length: 8.12261 Bohr) occupying 0.551292 of unit cell:	Completed after 7 iterations at t[s]:    726.71
	FillingsUpdate:  mu: -0.097800000  nElectrons: 103.012569  magneticMoment: [ Abs: 0.19923  Tot: -0.10016 ]
	SubspaceRotationAdjust: set factor to 0.699
ElecMinimize: Iter:  48  G: -540.584341685795152  |grad|_K:  1.128e-06  alpha:  1.150e-01  linmin:  1.109e-05  t[s]:    728.31
	Linear fluid (dielectric constant: 78.4, screening length: 8.12261 Bohr) occupying 0.551273 of unit cell:	Completed after 10 iterations at t[s]:    730.24
	Linear fluid (dielectric constant: 78.4, screening length: 8.12261 Bohr) occupying 0.551270 of unit cell:	Completed after 4 iterations at t[s]:    731.90
	FillingsUpdate:  mu: -0.097800000  nElectrons: 103.012871  magneticMoment: [ Abs: 0.19847  Tot: -0.09983 ]
	SubspaceRotationAdjust: set factor to 0.721
ElecMinimize: Iter:  49  G: -540.584345148586522  |grad|_K:  1.234e-06  alpha:  1.371e-01  linmin: -3.864e-05  t[s]:    733.49
	Linear fluid (dielectric constant: 78.4, screening length: 8.12261 Bohr) occupying 0.551144 of unit cell:	Completed after 17 iterations at t[s]:    735.68
	Linear fluid (dielectric constant: 78.4, screening length: 8.12261 Bohr) occupying 0.551194 of unit cell:	Completed after 14 iterations at t[s]:    737.71
	FillingsUpdate:  mu: -0.097800000  nElectrons: 103.011538  magneticMoment: [ Abs: 0.19829  Tot: -0.09955 ]
	SubspaceRotationAdjust: set factor to 0.619
ElecMinimize: Iter:  50  G: -540.584347652570727  |grad|_K:  1.084e-06  alpha:  8.249e-02  linmin:  3.891e-06  t[s]:    739.35
[...]
	FillingsUpdate:  mu: -0.097800000  nElectrons: 103.032679  magneticMoment: [ Abs: 0.14893  Tot: -0.06686 ]
	SubspaceRotationAdjust: set factor to 0.228
ElecMinimize: Iter:   9  G: -540.589607981362292  |grad|_K:  1.935e-07  alpha:  1.949e-01  linmin: -5.447e-05  t[s]:   2332.38
	Linear fluid (dielectric constant: 78.4, screening length: 8.12261 Bohr) occupying 0.545636 of unit cell:	Completed after 9 iterations at t[s]:   2334.26
	Linear fluid (dielectric constant: 78.4, screening length: 8.12261 Bohr) occupying 0.545636 of unit cell:	Completed after 0 iterations at t[s]:   2335.73
	FillingsUpdate:  mu: -0.097800000  nElectrons: 103.032515  magneticMoment: [ Abs: 0.14881  Tot: -0.06685 ]
	SubspaceRotationAdjust: set factor to 0.157
ElecMinimize: Iter:  10  G: -540.589608122624668  |grad|_K:  1.883e-07  alpha:  1.897e-01  linmin: -1.242e-04  t[s]:   2337.34
	Linear fluid (dielectric constant: 78.4, screening length: 8.12261 Bohr) occupying 0.545652 of unit cell:	Completed after 10 iterations at t[s]:   2339.26
	Linear fluid (dielectric constant: 78.4, screening length: 8.12261 Bohr) occupying 0.545650 of unit cell:	Completed after 2 iterations at t[s]:   2340.87
	FillingsUpdate:  mu: -0.097800000  nElectrons: 103.032873  magneticMoment: [ Abs: 0.14861  Tot: -0.06684 ]
	SubspaceRotationAdjust: set factor to 0.111
ElecMinimize: Iter:  11  G: -540.589608235409628  |grad|_K:  1.067e-07  alpha:  1.601e-01  linmin:  2.277e-04  t[s]:   2342.48
	Linear fluid (dielectric constant: 78.4, screening length: 8.12261 Bohr) occupying 0.545650 of unit cell:	Completed after 2 iterations at t[s]:   2344.12
	Linear fluid (dielectric constant: 78.4, screening length: 8.12261 Bohr) occupying 0.545649 of unit cell:	Completed after 2 iterations at t[s]:   2345.68
	FillingsUpdate:  mu: -0.097800000  nElectrons: 103.032893  magneticMoment: [ Abs: 0.14844  Tot: -0.06682 ]
	SubspaceRotationAdjust: set factor to 0.139
ElecMinimize: Iter:  12  G: -540.589608302502029  |grad|_K:  9.837e-08  alpha:  2.970e-01  linmin: -3.284e-04  t[s]:   2347.30
	Linear fluid (dielectric constant: 78.4, screening length: 8.12261 Bohr) occupying 0.545637 of unit cell:	Completed after 9 iterations at t[s]:   2349.20
	Linear fluid (dielectric constant: 78.4, screening length: 8.12261 Bohr) occupying 0.545641 of unit cell:	Completed after 4 iterations at t[s]:   2350.84
	FillingsUpdate:  mu: -0.097800000  nElectrons: 103.032711  magneticMoment: [ Abs: 0.14834  Tot: -0.06684 ]
	SubspaceRotationAdjust: set factor to 0.0979
ElecMinimize: Iter:  13  G: -540.589608341237067  |grad|_K:  6.214e-08  alpha:  2.014e-01  linmin:  6.387e-04  t[s]:   2352.46
ElecMinimize: Converged (|Delta G|<1.000000e-07 for 2 iters).
Setting wave functions to eigenvectors of Hamiltonian
Converging empty states (this may take a while): |deigs|: 2.362e-08

Computing DFT-D3 correction:
# coordination-number Ni 6.399 4.950
# coordination-number Au 5.832 8.406 5.832 8.441 4.637 8.441
# diagonal-C6 Ni 135.24 141.21
# diagonal-C6 Au 317.16 317.16 317.16 317.16 317.16 317.16
EvdW_6 =   -0.049793
EvdW_8 =   -0.095522

# Ionic positions in cartesian coordinates:
ion Ni   0.000000000000000   0.000000000000000   5.538906470600910 1
ion Ni   0.000000000000000   0.000000000000000  12.789943376778240 1
ion Au   0.000000000000000   3.729776000000000   1.780540741975982 1
ion Au   3.729776000000000   3.729776000000000   5.594994624637784 1
ion Au   3.729776000000000   0.000000000000000   1.780540741975982 1
ion Au   0.000000000000000   3.729776000000000   9.363812498668846 1
ion Au   3.729776000000000   3.729776000000000  13.463895046693406 1
ion Au   3.729776000000000   0.000000000000000   9.363812498668846 1

# Forces in Cartesian coordinates:
force Ni   0.000000000000000   0.000000000000000  -0.000007105284078 1
force Ni   0.000000000000000   0.000000000000000   0.000183509229782 1
force Au   0.000000000000000   0.000000000000000   0.000024248273399 1
force Au   0.000000000000000  -0.000000000000000  -0.000191470823119 1
force Au   0.000000000000000   0.000000000000000   0.000024248273389 1
force Au   0.000000000000000   0.000000000000000  -0.000344187931146 1
force Au   0.000000000000000  -0.000000000000000  -0.000280598360448 1
force Au   0.000000000000000  -0.000000000000000  -0.000344187931146 1

# Energy components:
   A_diel =       -0.2937370783271007
   Eewald =     1589.0413346313362126
       EH =     2122.2005814412113978
     Eloc =    -4325.4344262275017172
      Enl =       26.7225656177792317
     EvdW =       -0.1453142949221475
      Exc =     -222.4522747812984562
 Exc_core =      137.7614800702550042
       KE =      121.9758735790659330
  MuShift =       -0.0419651836959190
-------------------------------------
     Etot =     -550.6658822260974375
       TS =        0.0003252636529910
-------------------------------------
        F =     -550.6662074897503771
      muN =      -10.0765991485132602
-------------------------------------
        G =     -540.5896083412370672


Dumping 'jdft.fillings' ... done
Dumping 'jdft.wfns' ... done
Dumping 'jdft.fluidState' ... done
Dumping 'jdft.ionpos' ... done
Dumping 'jdft.lattice' ... done
Dumping 'jdft.eigenvals' ... done
Dumping 'jdft.eigStats' ... 
	eMin: -3.857723 at state 0 ( [ +0.000000 +0.000000 +0.000000 ] spin 1 )
	HOMO: -0.098142 at state 1 ( [ +0.000000 +0.111111 +0.000000 ] spin 1 )
	mu  : -0.097800
	LUMO: -0.097084 at state 13 ( [ +0.333333 +0.444444 +0.000000 ] spin 1 )
	eMax: +0.132859 at state 0 ( [ +0.000000 +0.000000 +0.000000 ] spin 1 )
	HOMO-LUMO gap: +0.001058
	Optical gap  : +0.002926 at state 13 ( [ +0.333333 +0.444444 +0.000000 ] spin 1 )
Dumping 'jdft.Ecomponents' ... done
IonicMinimize: Iter:   6  G: -540.589608341237067  |grad|_K:  1.076e-04  alpha:  1.000e+00  linmin: -5.012e-01  t[s]:   2356.59

#--- Lowdin population analysis ---
# oxidation-state Ni +0.210 +0.157
# magnetic-moments Ni +0.029 -0.097
# oxidation-state Au -0.243 -0.080 -0.243 -0.106 -0.454 -0.106
# magnetic-moments Au +0.000 -0.001 +0.000 -0.001 +0.002 -0.001


Computing DFT-D3 correction:
# coordination-number Ni 6.422 4.930
# coordination-number Au 5.843 8.425 5.843 8.443 4.655 8.443
# diagonal-C6 Ni 135.09 141.23
# diagonal-C6 Au 317.16 317.16 317.16 317.16 317.16 317.16
EvdW_6 =   -0.049823
EvdW_8 =   -0.095563
Shifting auxilliary hamiltonian by 0.000062 to set nElectrons=103.032711

-------- Electronic minimization -----------
	Linear fluid (dielectric constant: 78.4, screening length: 8.12261 Bohr) occupying 0.545973 of unit cell:	Completed after 17 iterations at t[s]:   2359.06
	FillingsUpdate:  mu: -0.097800000  nElectrons: 103.032711  magneticMoment: [ Abs: 0.14723  Tot: -0.06694 ]
ElecMinimize: Iter:   0  G: -540.589576306704089  |grad|_K:  1.338e-06  alpha:  1.000e+00
	Linear fluid (dielectric constant: 78.4, screening length: 8.12261 Bohr) occupying 0.545743 of unit cell:	Completed after 18 iterations at t[s]:   2363.20
	Linear fluid (dielectric constant: 78.4, screening length: 8.12261 Bohr) occupying 0.545921 of unit cell:	Completed after 18 iterations at t[s]:   2365.38
	FillingsUpdate:  mu: -0.097800000  nElectrons: 103.031526  magneticMoment: [ Abs: 0.14720  Tot: -0.06677 ]
	SubspaceRotationAdjust: set factor to 0.0904
ElecMinimize: Iter:   1  G: -540.589584660900073  |grad|_K:  1.095e-06  alpha:  2.335e-01  linmin: -4.674e-04  t[s]:   2367.02
	Linear fluid (dielectric constant: 78.4, screening length: 8.12261 Bohr) occupying 0.545882 of unit cell:	Completed after 14 iterations at t[s]:   2369.14
	Linear fluid (dielectric constant: 78.4, screening length: 8.12261 Bohr) occupying 0.545875 of unit cell:	Completed after 8 iterations at t[s]:   2370.92
	FillingsUpdate:  mu: -0.097800000  nElectrons: 103.030471  magneticMoment: [ Abs: 0.14729  Tot: -0.06693 ]
	SubspaceRotationAdjust: set factor to 0.105
ElecMinimize: Iter:   2  G: -540.589591246395571  |grad|_K:  6.563e-07  alpha:  2.751e-01  linmin: -8.732e-06  t[s]:   2372.52
	Linear fluid (dielectric constant: 78.4, screening length: 8.12261 Bohr) occupying 0.545911 of unit cell:	Completed after 13 iterations at t[s]:   2374.57
	Linear fluid (dielectric constant: 78.4, screening length: 8.12261 Bohr) occupying 0.545927 of unit cell:	Completed after 10 iterations at t[s]:   2376.42
	FillingsUpdate:  mu: -0.097800000  nElectrons: 103.031810  magneticMoment: [ Abs: 0.14697  Tot: -0.06678 ]
	SubspaceRotationAdjust: set factor to 0.107
ElecMinimize: Iter:   3  G: -540.589594599152406  |grad|_K:  5.448e-07  alpha:  3.919e-01  linmin:  8.320e-06  t[s]:   2378.04
	Linear fluid (dielectric constant: 78.4, screening length: 8.12261 Bohr) occupying 0.545899 of unit cell:	Completed after 11 iterations at t[s]:   2380.00
	Linear fluid (dielectric constant: 78.4, screening length: 8.12261 Bohr) occupying 0.545880 of unit cell:	Completed after 10 iterations at t[s]:   2381.90
	FillingsUpdate:  mu: -0.097800000  nElectrons: 103.030851  magneticMoment: [ Abs: 0.14700  Tot: -0.06698 ]
	SubspaceRotationAdjust: set factor to 0.11
ElecMinimize: Iter:   4  G: -540.589598516482511  |grad|_K:  6.308e-07  alpha:  6.645e-01  linmin:  9.641e-06  t[s]:   2383.49
	Linear fluid (dielectric constant: 78.4, screening length: 8.12261 Bohr) occupying 0.545921 of unit cell:	Completed after 14 iterations at t[s]:   2385.56
	Linear fluid (dielectric constant: 78.4, screening length: 8.12261 Bohr) occupying 0.545895 of unit cell:	Completed after 14 iterations at t[s]:   2387.57
	FillingsUpdate:  mu: -0.097800000  nElectrons: 103.031323  magneticMoment: [ Abs: 0.14679  Tot: -0.06693 ]
	SubspaceRotationAdjust: set factor to 0.117
ElecMinimize: Iter:   5  G: -540.589600357720542  |grad|_K:  5.186e-07  alpha:  2.331e-01  linmin:  1.769e-05  t[s]:   2389.21
	Linear fluid (dielectric constant: 78.4, screening length: 8.12261 Bohr) occupying 0.545891 of unit cell:	Completed after 3 iterations at t[s]:   2390.91
	Linear fluid (dielectric constant: 78.4, screening length: 8.12261 Bohr) occupying 0.545886 of unit cell:	Completed after 3 iterations at t[s]:   2392.51
	FillingsUpdate:  mu: -0.097800000  nElectrons: 103.031324  magneticMoment: [ Abs: 0.14670  Tot: -0.06713 ]
	SubspaceRotationAdjust: set factor to 0.134
ElecMinimize: Iter:   6  G: -540.589603103106697  |grad|_K:  4.417e-07  alpha:  5.145e-01  linmin:  1.354e-05  t[s]:   2394.11
	Linear fluid (dielectric constant: 78.4, screening length: 8.12261 Bohr) occupying 0.545894 of unit cell:	Completed after 9 iterations at t[s]:   2396.02
	Linear fluid (dielectric constant: 78.4, screening length: 8.12261 Bohr) occupying 0.545893 of unit cell:	Completed after 2 iterations at t[s]:   2397.58
	FillingsUpdate:  mu: -0.097800000  nElectrons: 103.031713  magneticMoment: [ Abs: 0.14656  Tot: -0.06726 ]
	SubspaceRotationAdjust: set factor to 0.143
ElecMinimize: Iter:   7  G: -540.589604931218219  |grad|_K:  4.669e-07  alpha:  4.721e-01  linmin: -5.350e-07  t[s]:   2399.19
	Linear fluid (dielectric constant: 78.4, screening length: 8.12261 Bohr) occupying 0.545858 of unit cell:	Completed after 11 iterations at t[s]:   2401.15
	Linear fluid (dielectric constant: 78.4, screening length: 8.12261 Bohr) occupying 0.545863 of unit cell:	Completed after 5 iterations at t[s]:   2402.85
	FillingsUpdate:  mu: -0.097800000  nElectrons: 103.031247  magneticMoment: [ Abs: 0.14657  Tot: -0.06755 ]
	SubspaceRotationAdjust: set factor to 0.134
ElecMinimize: Iter:   8  G: -540.589606681659006  |grad|_K:  3.973e-07  alpha:  4.041e-01  linmin:  3.048e-05  t[s]:   2404.47
	Linear fluid (dielectric constant: 78.4, screening length: 8.12261 Bohr) occupying 0.545903 of unit cell:	Completed after 14 iterations at t[s]:   2406.56
	Linear fluid (dielectric constant: 78.4, screening length: 8.12261 Bohr) occupying 0.545887 of unit cell:	Completed after 10 iterations at t[s]:   2408.40
	FillingsUpdate:  mu: -0.097800000  nElectrons: 103.031966  magneticMoment: [ Abs: 0.14636  Tot: -0.06749 ]
	SubspaceRotationAdjust: set factor to 0.109
ElecMinimize: Iter:   9  G: -540.589607414302805  |grad|_K:  3.455e-07  alpha:  2.351e-01  linmin:  5.612e-06  t[s]:   2410.03
	Linear fluid (dielectric constant: 78.4, screening length: 8.12261 Bohr) occupying 0.545880 of unit cell:	Completed after 4 iterations at t[s]:   2411.75
	Linear fluid (dielectric constant: 78.4, screening length: 8.12261 Bohr) occupying 0.545878 of unit cell:	Completed after 3 iterations at t[s]:   2413.34
	FillingsUpdate:  mu: -0.097800000  nElectrons: 103.031940  magneticMoment: [ Abs: 0.14632  Tot: -0.06767 ]
	SubspaceRotationAdjust: set factor to 0.115
ElecMinimize: Iter:  10  G: -540.589608182377219  |grad|_K:  2.427e-07  alpha:  3.241e-01  linmin:  1.012e-05  t[s]:   2414.98
	Linear fluid (dielectric constant: 78.4, screening length: 8.12261 Bohr) occupying 0.545868 of unit cell:	Completed after 9 iterations at t[s]:   2416.90
	Linear fluid (dielectric constant: 78.4, screening length: 8.12261 Bohr) occupying 0.545868 of unit cell:	Completed after 0 iterations at t[s]:   2418.33
	FillingsUpdate:  mu: -0.097800000  nElectrons: 103.031814  magneticMoment: [ Abs: 0.14630  Tot: -0.06777 ]
	SubspaceRotationAdjust: set factor to 0.115
ElecMinimize: Iter:  11  G: -540.589608558520695  |grad|_K:  1.850e-07  alpha:  3.218e-01  linmin: -1.685e-04  t[s]:   2419.96
	Linear fluid (dielectric constant: 78.4, screening length: 8.12261 Bohr) occupying 0.545867 of unit cell:	Completed after 2 iterations at t[s]:   2421.64
	Linear fluid (dielectric constant: 78.4, screening length: 8.12261 Bohr) occupying 0.545866 of unit cell:	Completed after 2 iterations at t[s]:   2423.21
	FillingsUpdate:  mu: -0.097800000  nElectrons: 103.031856  magneticMoment: [ Abs: 0.14627  Tot: -0.06786 ]
	SubspaceRotationAdjust: set factor to 0.116
ElecMinimize: Iter:  12  G: -540.589608824406014  |grad|_K:  1.414e-07  alpha:  3.881e-01  linmin:  1.001e-05  t[s]:   2424.83
	Linear fluid (dielectric constant: 78.4, screening length: 8.12261 Bohr) occupying 0.545871 of unit cell:	Completed after 8 iterations at t[s]:   2426.71
	Linear fluid (dielectric constant: 78.4, screening length: 8.12261 Bohr) occupying 0.545871 of unit cell:	Completed after 2 iterations at t[s]:   2428.26
	FillingsUpdate:  mu: -0.097800000  nElectrons: 103.032037  magneticMoment: [ Abs: 0.14619  Tot: -0.06785 ]
	SubspaceRotationAdjust: set factor to 0.101
ElecMinimize: Iter:  13  G: -540.589608961191743  |grad|_K:  1.116e-07  alpha:  3.448e-01  linmin:  1.580e-04  t[s]:   2429.90
	Linear fluid (dielectric constant: 78.4, screening length: 8.12261 Bohr) occupying 0.545869 of unit cell:	Completed after 2 iterations at t[s]:   2431.54
	Linear fluid (dielectric constant: 78.4, screening length: 8.12261 Bohr) occupying 0.545870 of unit cell:	Completed after 2 iterations at t[s]:   2433.08
	FillingsUpdate:  mu: -0.097800000  nElectrons: 103.032038  magneticMoment: [ Abs: 0.14616  Tot: -0.06789 ]
	SubspaceRotationAdjust: set factor to 0.0985
ElecMinimize: Iter:  14  G: -540.589609024033848  |grad|_K:  9.096e-08  alpha:  2.563e-01  linmin: -2.155e-05  t[s]:   2434.71
	Linear fluid (dielectric constant: 78.4, screening length: 8.12261 Bohr) occupying 0.545867 of unit cell:	Completed after 3 iterations at t[s]:   2436.40
	Linear fluid (dielectric constant: 78.4, screening length: 8.12261 Bohr) occupying 0.545866 of unit cell:	Completed after 3 iterations at t[s]:   2438.00
	FillingsUpdate:  mu: -0.097800000  nElectrons: 103.031982  magneticMoment: [ Abs: 0.14614  Tot: -0.06793 ]
	SubspaceRotationAdjust: set factor to 0.0901
ElecMinimize: Iter:  15  G: -540.589609073658494  |grad|_K:  6.062e-08  alpha:  3.044e-01  linmin:  7.789e-04  t[s]:   2439.61
ElecMinimize: Converged (|Delta G|<1.000000e-07 for 2 iters).
Setting wave functions to eigenvectors of Hamiltonian
Converging empty states (this may take a while): |deigs|: 2.548e-08

Computing DFT-D3 correction:
# coordination-number Ni 6.422 4.930
# coordination-number Au 5.843 8.425 5.843 8.443 4.655 8.443
# diagonal-C6 Ni 135.09 141.23
# diagonal-C6 Au 317.16 317.16 317.16 317.16 317.16 317.16
EvdW_6 =   -0.049823
EvdW_8 =   -0.095563

# Ionic positions in cartesian coordinates:
ion Ni   0.000000000000000   0.000000000000000   5.541474083669143 1
ion Ni   0.000000000000000   0.000000000000000  12.799198294004354 1
ion Au   0.000000000000000   3.729776000000000   1.786044429275985 1
ion Au   3.729776000000000   3.729776000000000   5.592720650854242 1
ion Au   3.729776000000000   0.000000000000000   1.786044429275985 1
ion Au   0.000000000000000   3.729776000000000   9.358579214241388 1
ion Au   3.729776000000000   3.729776000000000  13.453805684437510 1
ion Au   3.729776000000000   0.000000000000000   9.358579214241388 1

# Forces in Cartesian coordinates:
force Ni   0.000000000000000  -0.000000000000000  -0.000048366508740 1
force Ni   0.000000000000000   0.000000000000000  -0.000353507520040 1
force Au   0.000000000000000   0.000000000000000  -0.000215863790674 1
force Au   0.000000000000000  -0.000000000000000   0.000106026019549 1
force Au   0.000000000000000   0.000000000000000  -0.000215863790674 1
force Au   0.000000000000000   0.000000000000000   0.000060794150355 1
force Au   0.000000000000000   0.000000000000000  -0.000185328356216 1
force Au   0.000000000000000   0.000000000000000   0.000060794150355 1

# Energy components:
   A_diel =       -0.2935784354677518
   Eewald =     1589.7534412620177591
       EH =     2122.9331969334803034
     Eloc =    -4326.8802277678896644
      Enl =       26.7244359138937000
     EvdW =       -0.1453852060301670
      Exc =     -222.4537349360142002
 Exc_core =      137.7614799354931847
       KE =      121.9764914626364458
  MuShift =       -0.0419355354027971
-------------------------------------
     Etot =     -550.6658163732834055
       TS =        0.0003204932526429
-------------------------------------
        F =     -550.6661368665360214
      muN =      -10.0765277928775525
-------------------------------------
        G =     -540.5896090736584938


Dumping 'jdft.fillings' ... done
Dumping 'jdft.wfns' ... done
Dumping 'jdft.fluidState' ... done
Dumping 'jdft.ionpos' ... done
Dumping 'jdft.lattice' ... done
Dumping 'jdft.eigenvals' ... done
Dumping 'jdft.eigStats' ... 
	eMin: -3.857751 at state 0 ( [ +0.000000 +0.000000 +0.000000 ] spin 1 )
	HOMO: -0.098003 at state 1 ( [ +0.000000 +0.111111 +0.000000 ] spin 1 )
	mu  : -0.097800
	LUMO: -0.096988 at state 13 ( [ +0.333333 +0.444444 +0.000000 ] spin 1 )
	eMax: +0.132799 at state 0 ( [ +0.000000 +0.000000 +0.000000 ] spin 1 )
	HOMO-LUMO gap: +0.001015
	Optical gap  : +0.003050 at state 13 ( [ +0.333333 +0.444444 +0.000000 ] spin 1 )
Dumping 'jdft.Ecomponents' ... done
IonicMinimize: Iter:   7  G: -540.589609073658494  |grad|_K:  9.019e-05  alpha:  1.000e+00  linmin:  5.153e-01  t[s]:   2443.73
IonicMinimize: Converged (|grad|_K<1.000000e-04).

#--- Lowdin population analysis ---
# oxidation-state Ni +0.208 +0.159
# magnetic-moments Ni +0.028 -0.097
# oxidation-state Au -0.242 -0.079 -0.242 -0.106 -0.455 -0.106
# magnetic-moments Au +0.000 -0.001 +0.000 -0.001 +0.002 -0.001


Dumping 'jdft.n_up' ... done
Dumping 'jdft.n_dn' ... done
Dumping 'jdft.tau_up' ... done
Dumping 'jdft.tau_dn' ... done
Dumping 'jdft.eigenvals' ... done
Dumping 'jdft.eigStats' ... 
	eMin: -3.857751 at state 0 ( [ +0.000000 +0.000000 +0.000000 ] spin 1 )
	HOMO: -0.098003 at state 1 ( [ +0.000000 +0.111111 +0.000000 ] spin 1 )
	mu  : -0.097800
	LUMO: -0.096988 at state 13 ( [ +0.333333 +0.444444 +0.000000 ] spin 1 )
	eMax: +0.132799 at state 0 ( [ +0.000000 +0.000000 +0.000000 ] spin 1 )
	HOMO-LUMO gap: +0.001015
	Optical gap  : +0.003050 at state 13 ( [ +0.333333 +0.444444 +0.000000 ] spin 1 )
Dumping 'jdft.kPts' ... done
Dumping 'jdft.kMap' ... done
Dumping 'jdft.dosUp' ... done.
Dumping 'jdft.dosDn' ... done.
End date and time: Sat Feb 26 11:01:57 2022  (Duration: 0-0:40:47.29)
Done!
