
*************** JDFTx 1.6.0  ***************

Start date and time: Wed Feb 16 22:36:25 2022
Executable /projects/musgravc/apps/jdftx-1.6.1/build/jdftx with command-line: -i in
Running on hosts (process indices):  shas0611.rc.int.colorado.edu (0-23)
Divided in process groups (process indices):  0 (0)  1 (1)  2 (2)  3 (3)  4 (4)  5 (5)  6 (6)  7 (7)  8 (8)  9 (9)  10 (10)  11 (11)  12 (12)  13 (13)  14 (14)  15 (15)  16 (16)  17 (17)  18 (18)  19 (19)  20 (20)  21 (21)  22 (22)  23 (23)
Resource initialization completed at t[s]:      0.01
Run totals: 24 processes, 24 threads, 0 GPUs


Input parsed successfully to the following command list (including defaults):

basis kpoint-dependent
converge-empty-states yes
coords-type Cartesian
core-overlap-check none
coulomb-interaction Periodic
davidson-band-ratio 1.1
density-of-states Etol 1.000000e-06 Esigma 1.000000e-03 \
		Complete \
	Total \
	OrthoOrbital Cu 1   s \
	OrthoOrbital Cu 1   p \
	OrthoOrbital Cu 1   px \
	OrthoOrbital Cu 1   py \
	OrthoOrbital Cu 1   pz \
	OrthoOrbital Cu 1   d \
	OrthoOrbital Cu 1   dxy \
	OrthoOrbital Cu 1   dyz \
	OrthoOrbital Cu 1   dz2 \
	OrthoOrbital Cu 1   dxz \
	OrthoOrbital Cu 1   dx2-y2 \
	OrthoOrbital Cu 2   s \
	OrthoOrbital Cu 2   p \
	OrthoOrbital Cu 2   px \
	OrthoOrbital Cu 2   py \
	OrthoOrbital Cu 2   pz \
	OrthoOrbital Cu 2   d \
	OrthoOrbital Cu 2   dxy \
	OrthoOrbital Cu 2   dyz \
	OrthoOrbital Cu 2   dz2 \
	OrthoOrbital Cu 2   dxz \
	OrthoOrbital Cu 2   dx2-y2 \
	OrthoOrbital Cu 3   s \
	OrthoOrbital Cu 3   p \
	OrthoOrbital Cu 3   px \
	OrthoOrbital Cu 3   py \
	OrthoOrbital Cu 3   pz \
	OrthoOrbital Cu 3   d \
	OrthoOrbital Cu 3   dxy \
	OrthoOrbital Cu 3   dyz \
	OrthoOrbital Cu 3   dz2 \
	OrthoOrbital Cu 3   dxz \
	OrthoOrbital Cu 3   dx2-y2 \
	OrthoOrbital Cu 4   s \
	OrthoOrbital Cu 4   p \
	OrthoOrbital Cu 4   px \
	OrthoOrbital Cu 4   py \
	OrthoOrbital Cu 4   pz \
	OrthoOrbital Cu 4   d \
	OrthoOrbital Cu 4   dxy \
	OrthoOrbital Cu 4   dyz \
	OrthoOrbital Cu 4   dz2 \
	OrthoOrbital Cu 4   dxz \
	OrthoOrbital Cu 4   dx2-y2 \
	OrthoOrbital Cu 5   s \
	OrthoOrbital Cu 5   p \
	OrthoOrbital Cu 5   px \
	OrthoOrbital Cu 5   py \
	OrthoOrbital Cu 5   pz \
	OrthoOrbital Cu 5   d \
	OrthoOrbital Cu 5   dxy \
	OrthoOrbital Cu 5   dyz \
	OrthoOrbital Cu 5   dz2 \
	OrthoOrbital Cu 5   dxz \
	OrthoOrbital Cu 5   dx2-y2 \
	OrthoOrbital Cu 6   s \
	OrthoOrbital Cu 6   p \
	OrthoOrbital Cu 6   px \
	OrthoOrbital Cu 6   py \
	OrthoOrbital Cu 6   pz \
	OrthoOrbital Cu 6   d \
	OrthoOrbital Cu 6   dxy \
	OrthoOrbital Cu 6   dyz \
	OrthoOrbital Cu 6   dz2 \
	OrthoOrbital Cu 6   dxz \
	OrthoOrbital Cu 6   dx2-y2 \
	OrthoOrbital Cu 7   s \
	OrthoOrbital Cu 7   p \
	OrthoOrbital Cu 7   px \
	OrthoOrbital Cu 7   py \
	OrthoOrbital Cu 7   pz \
	OrthoOrbital Cu 7   d \
	OrthoOrbital Cu 7   dxy \
	OrthoOrbital Cu 7   dyz \
	OrthoOrbital Cu 7   dz2 \
	OrthoOrbital Cu 7   dxz \
	OrthoOrbital Cu 7   dx2-y2 \
	OrthoOrbital Cu 8   s \
	OrthoOrbital Cu 8   p \
	OrthoOrbital Cu 8   px \
	OrthoOrbital Cu 8   py \
	OrthoOrbital Cu 8   pz \
	OrthoOrbital Cu 8   d \
	OrthoOrbital Cu 8   dxy \
	OrthoOrbital Cu 8   dyz \
	OrthoOrbital Cu 8   dz2 \
	OrthoOrbital Cu 8   dxz \
	OrthoOrbital Cu 8   dx2-y2 \
	OrthoOrbital Cu 9   s \
	OrthoOrbital Cu 9   p \
	OrthoOrbital Cu 9   px \
	OrthoOrbital Cu 9   py \
	OrthoOrbital Cu 9   pz \
	OrthoOrbital Cu 9   d \
	OrthoOrbital Cu 9   dxy \
	OrthoOrbital Cu 9   dyz \
	OrthoOrbital Cu 9   dz2 \
	OrthoOrbital Cu 9   dxz \
	OrthoOrbital Cu 9   dx2-y2 \
	OrthoOrbital Cu 10   s \
	OrthoOrbital Cu 10   p \
	OrthoOrbital Cu 10   px \
	OrthoOrbital Cu 10   py \
	OrthoOrbital Cu 10   pz \
	OrthoOrbital Cu 10   d \
	OrthoOrbital Cu 10   dxy \
	OrthoOrbital Cu 10   dyz \
	OrthoOrbital Cu 10   dz2 \
	OrthoOrbital Cu 10   dxz \
	OrthoOrbital Cu 10   dx2-y2 \
	OrthoOrbital Cu 11   s \
	OrthoOrbital Cu 11   p \
	OrthoOrbital Cu 11   px \
	OrthoOrbital Cu 11   py \
	OrthoOrbital Cu 11   pz \
	OrthoOrbital Cu 11   d \
	OrthoOrbital Cu 11   dxy \
	OrthoOrbital Cu 11   dyz \
	OrthoOrbital Cu 11   dz2 \
	OrthoOrbital Cu 11   dxz \
	OrthoOrbital Cu 11   dx2-y2 \
	OrthoOrbital Cu 12   s \
	OrthoOrbital Cu 12   p \
	OrthoOrbital Cu 12   px \
	OrthoOrbital Cu 12   py \
	OrthoOrbital Cu 12   pz \
	OrthoOrbital Cu 12   d \
	OrthoOrbital Cu 12   dxy \
	OrthoOrbital Cu 12   dyz \
	OrthoOrbital Cu 12   dz2 \
	OrthoOrbital Cu 12   dxz \
	OrthoOrbital Cu 12   dx2-y2 \
	OrthoOrbital Cu 13   s \
	OrthoOrbital Cu 13   p \
	OrthoOrbital Cu 13   px \
	OrthoOrbital Cu 13   py \
	OrthoOrbital Cu 13   pz \
	OrthoOrbital Cu 13   d \
	OrthoOrbital Cu 13   dxy \
	OrthoOrbital Cu 13   dyz \
	OrthoOrbital Cu 13   dz2 \
	OrthoOrbital Cu 13   dxz \
	OrthoOrbital Cu 13   dx2-y2 \
	OrthoOrbital Cu 14   s \
	OrthoOrbital Cu 14   p \
	OrthoOrbital Cu 14   px \
	OrthoOrbital Cu 14   py \
	OrthoOrbital Cu 14   pz \
	OrthoOrbital Cu 14   d \
	OrthoOrbital Cu 14   dxy \
	OrthoOrbital Cu 14   dyz \
	OrthoOrbital Cu 14   dz2 \
	OrthoOrbital Cu 14   dxz \
	OrthoOrbital Cu 14   dx2-y2 \
	OrthoOrbital Cu 15   s \
	OrthoOrbital Cu 15   p \
	OrthoOrbital Cu 15   px \
	OrthoOrbital Cu 15   py \
	OrthoOrbital Cu 15   pz \
	OrthoOrbital Cu 15   d \
	OrthoOrbital Cu 15   dxy \
	OrthoOrbital Cu 15   dyz \
	OrthoOrbital Cu 15   dz2 \
	OrthoOrbital Cu 15   dxz \
	OrthoOrbital Cu 15   dx2-y2 \
	OrthoOrbital Cu 16   s \
	OrthoOrbital Cu 16   p \
	OrthoOrbital Cu 16   px \
	OrthoOrbital Cu 16   py \
	OrthoOrbital Cu 16   pz \
	OrthoOrbital Cu 16   d \
	OrthoOrbital Cu 16   dxy \
	OrthoOrbital Cu 16   dyz \
	OrthoOrbital Cu 16   dz2 \
	OrthoOrbital Cu 16   dxz \
	OrthoOrbital Cu 16   dx2-y2 \
	OrthoOrbital Cu 17   s \
	OrthoOrbital Cu 17   p \
	OrthoOrbital Cu 17   px \
	OrthoOrbital Cu 17   py \
	OrthoOrbital Cu 17   pz \
	OrthoOrbital Cu 17   d \
	OrthoOrbital Cu 17   dxy \
	OrthoOrbital Cu 17   dyz \
	OrthoOrbital Cu 17   dz2 \
	OrthoOrbital Cu 17   dxz \
	OrthoOrbital Cu 17   dx2-y2 \
	OrthoOrbital Cu 18   s \
	OrthoOrbital Cu 18   p \
	OrthoOrbital Cu 18   px \
	OrthoOrbital Cu 18   py \
	OrthoOrbital Cu 18   pz \
	OrthoOrbital Cu 18   d \
	OrthoOrbital Cu 18   dxy \
	OrthoOrbital Cu 18   dyz \
	OrthoOrbital Cu 18   dz2 \
	OrthoOrbital Cu 18   dxz \
	OrthoOrbital Cu 18   dx2-y2 \
	OrthoOrbital Cu 19   s \
	OrthoOrbital Cu 19   p \
	OrthoOrbital Cu 19   px \
	OrthoOrbital Cu 19   py \
	OrthoOrbital Cu 19   pz \
	OrthoOrbital Cu 19   d \
	OrthoOrbital Cu 19   dxy \
	OrthoOrbital Cu 19   dyz \
	OrthoOrbital Cu 19   dz2 \
	OrthoOrbital Cu 19   dxz \
	OrthoOrbital Cu 19   dx2-y2 \
	OrthoOrbital Cu 20   s \
	OrthoOrbital Cu 20   p \
	OrthoOrbital Cu 20   px \
	OrthoOrbital Cu 20   py \
	OrthoOrbital Cu 20   pz \
	OrthoOrbital Cu 20   d \
	OrthoOrbital Cu 20   dxy \
	OrthoOrbital Cu 20   dyz \
	OrthoOrbital Cu 20   dz2 \
	OrthoOrbital Cu 20   dxz \
	OrthoOrbital Cu 20   dx2-y2 \
	OrthoOrbital Cu 21   s \
	OrthoOrbital Cu 21   p \
	OrthoOrbital Cu 21   px \
	OrthoOrbital Cu 21   py \
	OrthoOrbital Cu 21   pz \
	OrthoOrbital Cu 21   d \
	OrthoOrbital Cu 21   dxy \
	OrthoOrbital Cu 21   dyz \
	OrthoOrbital Cu 21   dz2 \
	OrthoOrbital Cu 21   dxz \
	OrthoOrbital Cu 21   dx2-y2 \
	OrthoOrbital Cu 22   s \
	OrthoOrbital Cu 22   p \
	OrthoOrbital Cu 22   px \
	OrthoOrbital Cu 22   py \
	OrthoOrbital Cu 22   pz \
	OrthoOrbital Cu 22   d \
	OrthoOrbital Cu 22   dxy \
	OrthoOrbital Cu 22   dyz \
	OrthoOrbital Cu 22   dz2 \
	OrthoOrbital Cu 22   dxz \
	OrthoOrbital Cu 22   dx2-y2 \
	OrthoOrbital Cu 23   s \
	OrthoOrbital Cu 23   p \
	OrthoOrbital Cu 23   px \
	OrthoOrbital Cu 23   py \
	OrthoOrbital Cu 23   pz \
	OrthoOrbital Cu 23   d \
	OrthoOrbital Cu 23   dxy \
	OrthoOrbital Cu 23   dyz \
	OrthoOrbital Cu 23   dz2 \
	OrthoOrbital Cu 23   dxz \
	OrthoOrbital Cu 23   dx2-y2 \
	OrthoOrbital Cu 24   s \
	OrthoOrbital Cu 24   p \
	OrthoOrbital Cu 24   px \
	OrthoOrbital Cu 24   py \
	OrthoOrbital Cu 24   pz \
	OrthoOrbital Cu 24   d \
	OrthoOrbital Cu 24   dxy \
	OrthoOrbital Cu 24   dyz \
	OrthoOrbital Cu 24   dz2 \
	OrthoOrbital Cu 24   dxz \
	OrthoOrbital Cu 24   dx2-y2 \
	OrthoOrbital C 1   s \
	OrthoOrbital C 1   p \
	OrthoOrbital C 1   px \
	OrthoOrbital C 1   py \
	OrthoOrbital C 1   pz \
	OrthoOrbital O 1   s \
	OrthoOrbital O 1   p \
	OrthoOrbital O 1   px \
	OrthoOrbital O 1   py \
	OrthoOrbital O 1   pz
dump End ElecDensity KEdensity BandEigs EigStats RhoAtom DOS Kpoints
dump Ionic State IonicPositions Lattice EigStats Ecomponents
dump 
dump 
dump 
dump 
dump 
dump 
dump 
dump 
dump-name jdft.$VAR
elec-cutoff 20
elec-eigen-algo Davidson
elec-ex-corr gga-PBE
elec-initial-magnetization 0.000000 no
elec-n-bands 280
elec-smearing Fermi 0.001
electronic-minimize  \
	dirUpdateScheme      FletcherReeves \
	linminMethod         DirUpdateRecommended \
	nIterations          100 \
	history              15 \
	knormThreshold       0 \
	energyDiffThreshold  1e-07 \
	nEnergyDiff          2 \
	alphaTstart          1 \
	alphaTmin            1e-10 \
	updateTestStepSize   yes \
	alphaTreduceFactor   0.1 \
	alphaTincreaseFactor 3 \
	nAlphaAdjustMax      3 \
	wolfeEnergy          0.0001 \
	wolfeGradient        0.9 \
	fdTest               no
exchange-regularization WignerSeitzTruncated
fluid LinearPCM 298.000000 1.013250
fluid-anion F- 0.5 MeanFieldLJ \
	epsBulk 1 \
	pMol 0 \
	epsInf 1 \
	Pvap 0 \
	sigmaBulk 0 \
	Rvdw 2.24877 \
	Res 0 \
	tauNuc 343133
fluid-cation Na+ 0.5 MeanFieldLJ \
	epsBulk 1 \
	pMol 0 \
	epsInf 1 \
	Pvap 0 \
	sigmaBulk 0 \
	Rvdw 2.19208 \
	Res 0 \
	tauNuc 343133
fluid-ex-corr lda-TF lda-PZ
fluid-gummel-loop 10 1.000000e-05
fluid-minimize  \
	dirUpdateScheme      PolakRibiere \
	linminMethod         DirUpdateRecommended \
	nIterations          400 \
	history              15 \
	knormThreshold       1e-11 \
	energyDiffThreshold  0 \
	nEnergyDiff          2 \
	alphaTstart          1 \
	alphaTmin            1e-10 \
	updateTestStepSize   yes \
	alphaTreduceFactor   0.1 \
	alphaTincreaseFactor 3 \
	nAlphaAdjustMax      6 \
	wolfeEnergy          0.0001 \
	wolfeGradient        0.9 \
	fdTest               no
fluid-solvent H2O 55.338 ScalarEOS \
	epsBulk 78.4 \
	pMol 0.92466 \
	epsInf 1.77 \
	Pvap 1.06736e-10 \
	sigmaBulk 4.62e-05 \
	Rvdw 2.61727 \
	Res 1.42 \
	tauNuc 343133 \
	poleEl 15 7 1
forces-output-coords Positions
ion Cu   0.000167000000000   2.752075000000000   1.946880000000000 0
ion Cu  -2.383144000000000   6.880092999999999   1.946880000000000 0
ion Cu   4.766789000000000   2.752075000000000   1.946880000000000 0
ion Cu   2.383478000000000   6.880092999999999   1.946880000000000 0
ion Cu   2.383326000000000   4.128059000000000   9.737146000000001 0
ion Cu   4.766636999999999   0.000041000000000   9.737146000000001 0
ion Cu  -2.383297000000000   4.128059000000000   9.737146000000001 0
ion Cu   0.000014000000000   0.000041000000000   9.737146000000001 0
ion Cu   2.383264000000000   1.376083000000000   5.860082000000001 0
ion Cu  -0.000042999999999   5.504092999999999   5.860082000000001 0
ion Cu   7.149886000000000   1.376083000000000   5.860082000000001 0
ion Cu   4.766580000000000   5.504092999999999   5.860082000000001 0
ion Cu   0.000029000000000   2.751968000000000  13.615320000000002 0
ion Cu  -2.383283000000000   6.879985999999999  13.615320000000002 0
ion Cu   4.766651000000000   2.751968000000000  13.615320000000002 0
ion Cu   2.383340000000000   6.879985999999999  13.615320000000002 0
ion Cu   2.383211000000000   4.127927000000000  21.403309000000000 0
ion Cu  -0.000099999999999   8.255944999999999  21.403309000000000 0
ion Cu   7.149834000000000   4.127927000000000  21.403309000000000 0
ion Cu   4.766522000000001   8.255944999999999  21.403309000000000 0
ion Cu   2.383245000000000   1.375967000000000  17.492034000000004 0
ion Cu  -0.000067000000000   5.503984999999999  17.492034000000004 0
ion Cu   7.149867000000000   1.375967000000000  17.492034000000004 0
ion Cu   4.766556000000000   5.503984999999999  17.492034000000004 0
ion C   3.574867000000000   6.191935999999999  24.015184000000005 1  Linear 0 0 1
ion O   3.634964000000001   6.191935999999999  26.170536000000002 1  Linear 0 0 1
ion-species /projects/musgravc/apps/jdftx-1.6.0/build/pseudopotentials/GBRV_v1.5/$ID_pbe_v1.uspp
ion-species /projects/musgravc/apps/jdftx-1.6.0/build/pseudopotentials/GBRV_v1.5/$ID_pbe_v1.2.uspp
ion-species /projects/musgravc/apps/jdftx-1.6.0/build/pseudopotentials/GBRV_v1.5/$ID_pbe_v1.4.uspp
ion-species /projects/musgravc/apps/jdftx-1.6.0/build/pseudopotentials/GBRV_v1.5/$ID_pbe_v1.5.uspp
ion-width Ecut
ionic-minimize  \
	dirUpdateScheme      L-BFGS \
	linminMethod         DirUpdateRecommended \
	nIterations          100 \
	history              15 \
	knormThreshold       0.0001 \
	energyDiffThreshold  1e-06 \
	nEnergyDiff          2 \
	alphaTstart          1 \
	alphaTmin            1e-10 \
	updateTestStepSize   yes \
	alphaTreduceFactor   0.1 \
	alphaTincreaseFactor 3 \
	nAlphaAdjustMax      3 \
	wolfeEnergy          0.0001 \
	wolfeGradient        0.9 \
	fdTest               no
kpoint   0.000000000000   0.000000000000   0.000000000000  1.00000000000000
kpoint-folding 6 6 1 
latt-move-scale 0 0 0
latt-scale 1 1 1 
lattice  \
	   9.533245000000001   -4.766623000000000    0.000000000000000  \
	   0.000000000000000    8.256036000000000    0.000000000000000  \
	   0.000000000000000    0.000000000000000   58.378976999999999 
lattice-minimize  \
	dirUpdateScheme      L-BFGS \
	linminMethod         DirUpdateRecommended \
	nIterations          0 \
	history              15 \
	knormThreshold       0 \
	energyDiffThreshold  1e-06 \
	nEnergyDiff          2 \
	alphaTstart          1 \
	alphaTmin            1e-10 \
	updateTestStepSize   yes \
	alphaTreduceFactor   0.1 \
	alphaTincreaseFactor 3 \
	nAlphaAdjustMax      3 \
	wolfeEnergy          0.0001 \
	wolfeGradient        0.9 \
	fdTest               no
lcao-params 30 1e-06 0.001
pcm-variant CANDLE
spintype z-spin
subspace-rotation-factor 1 yes
symmetries automatic
symmetry-threshold 0.0001
van-der-waals D3



---------- Setting up symmetries ----------

Found 24 point-group symmetries of the bravais lattice
Found 1 space-group symmetries with basis
Applied RMS atom displacement 0 bohrs to make symmetries exact.

---------- Initializing the Grid ----------
R = 
[      9.53325     -4.76662            0  ]
[            0      8.25604            0  ]
[            0            0       58.379  ]
unit cell volume = 4594.82
G =
[   0.659081   0.380521         -0  ]
[          0   0.761041          0  ]
[          0         -0   0.107628  ]
Minimum fftbox size, Smin = [  40  40  236  ]
Chosen fftbox size, S = [  40  40  240  ]

---------- Exchange Correlation functional ----------
Initalized PBE GGA exchange.
Initalized PBE GGA correlation.

---------- Setting up pseudopotentials ----------
Width of ionic core gaussian charges (only for fluid interactions / plotting) set to 0.397384

Reading pseudopotential file '/projects/musgravc/apps/jdftx-1.6.0/build/pseudopotentials/GBRV_v1.5/cu_pbe_v1.2.uspp':
  Title: Cu.  Created by USPP 7.3.6 on 3-2-2014
  Reference state energy: -201.059491.  19 valence electrons in orbitals:
    |300>  occupation: 2  eigenvalue: -5.020764
    |310>  occupation: 6  eigenvalue: -3.445588
    |320>  occupation: 8  eigenvalue: -0.925168
    |400>  occupation: 2  eigenvalue: -0.567638
    |410>  occupation: 0  eigenvalue: -0.326154
  lMax: 2  lLocal: 3  QijEcut: 6
  6 projectors sampled on a log grid with 613 points:
    l: 0  eig: -5.020767  rCut: 1.4
    l: 0  eig: -0.567640  rCut: 1.4
    l: 1  eig: -3.445589  rCut: 1.55
    l: 1  eig: -0.326157  rCut: 1.55
    l: 2  eig: -0.925170  rCut: 1.5
    l: 2  eig: 1.500000  rCut: 1.5
  Partial core density with radius 0.8
  Transforming core density to a uniform radial grid of dG=0.02 with 1473 points.
  Transforming local potential to a uniform radial grid of dG=0.02 with 1473 points.
  Transforming nonlocal projectors to a uniform radial grid of dG=0.02 with 432 points.
  Transforming density augmentations to a uniform radial grid of dG=0.02 with 1473 points.
  Transforming atomic orbitals to a uniform radial grid of dG=0.02 with 432 points.
  Core radius for overlap checks: 1.55 bohrs.

Reading pseudopotential file '/projects/musgravc/apps/jdftx-1.6.0/build/pseudopotentials/GBRV_v1.5/c_pbe_v1.2.uspp':
  Title: C.  Created by USPP 7.3.6 on 3-2-2014
  Reference state energy: -5.406344.  4 valence electrons in orbitals:
    |200>  occupation: 2  eigenvalue: -0.504890
    |210>  occupation: 2  eigenvalue: -0.194356
  lMax: 1  lLocal: 2  QijEcut: 5
  4 projectors sampled on a log grid with 503 points:
    l: 0  eig: -0.504890  rCut: 1.3
    l: 0  eig: 0.000000  rCut: 1.3
    l: 1  eig: -0.194357  rCut: 1.3
    l: 1  eig: 0.000000  rCut: 1.3
  Partial core density with radius 1.1
  Transforming core density to a uniform radial grid of dG=0.02 with 1473 points.
  Transforming local potential to a uniform radial grid of dG=0.02 with 1473 points.
  Transforming nonlocal projectors to a uniform radial grid of dG=0.02 with 432 points.
  Transforming density augmentations to a uniform radial grid of dG=0.02 with 1473 points.
  Transforming atomic orbitals to a uniform radial grid of dG=0.02 with 432 points.
  Core radius for overlap checks: 1.30 bohrs.

Reading pseudopotential file '/projects/musgravc/apps/jdftx-1.6.0/build/pseudopotentials/GBRV_v1.5/o_pbe_v1.2.uspp':
  Title: O.  Created by USPP 7.3.6 on 3-2-2014
  Reference state energy: -15.894388.  6 valence electrons in orbitals:
    |200>  occupation: 2  eigenvalue: -0.878823
    |210>  occupation: 4  eigenvalue: -0.332131
  lMax: 2  lLocal: 2  QijEcut: 6
  5 projectors sampled on a log grid with 511 points:
    l: 0  eig: -0.878823  rCut: 1.25
    l: 0  eig: 0.000000  rCut: 1.25
    l: 1  eig: -0.332132  rCut: 1.25
    l: 1  eig: 0.000000  rCut: 1.25
    l: 2  eig: 1.000000  rCut: 1.25
  Partial core density with radius 0.7
  Transforming core density to a uniform radial grid of dG=0.02 with 1473 points.
  Transforming local potential to a uniform radial grid of dG=0.02 with 1473 points.
  Transforming nonlocal projectors to a uniform radial grid of dG=0.02 with 432 points.
  Transforming density augmentations to a uniform radial grid of dG=0.02 with 1473 points.
  Transforming atomic orbitals to a uniform radial grid of dG=0.02 with 432 points.
  Core radius for overlap checks: 1.25 bohrs.

Initialized 3 species with 26 total atoms.

Folded 1 k-points by 6x6x1 to 36 k-points.

---------- Setting up k-points, bands, fillings ----------
Adding inversion symmetry to k-mesh for non-inversion-symmetric unit cell.
Reduced to 20 k-points under symmetry. 
Computing the number of bands and number of electrons
Calculating initial fillings.
nElectrons: 466.000000   nBands: 280   nStates: 40

----- Setting up reduced wavefunction bases (one per k-point) -----
average nbasis = 19633.417 , ideal nbasis = 19629.435

----- Initializing Supercell corresponding to k-point mesh -----
Lattice vector linear combinations in supercell:
[   6   0   0  ]
[   0   6   0  ]
[   0   0   1  ]
Supercell lattice vectors:
[  57.1995  -28.5997  0  ]
[  0  49.5362  0  ]
[  0  0  58.379  ]

Initializing DFT-D3 calculator:
	Parameters set for gga-PBE functional
	s6:  1.000  s_r6:  1.217
	s8:  0.722  s_r8:  1.000
	Per-atom parameters loaded for:
	Cu:  sqrtQ[a0]:  5.226  Rcov[a0]:  1.909  CN: [ 0.00 0.96 ]
	 C:  sqrtQ[a0]:  3.105  Rcov[a0]:  1.417  CN: [ 0.00 0.99 2.00 3.00 3.98 ]
	 O:  sqrtQ[a0]:  2.594  Rcov[a0]:  1.191  CN: [ 0.00 0.99 1.99 ]

Initializing DFT-D2 calculator for fluid / solvation:
	Cu:  C6:  187.33 Eh-a0^6  R0: 2.952 a0
	 C:  C6:   30.35 Eh-a0^6  R0: 2.744 a0
	 O:  C6:   12.14 Eh-a0^6  R0: 2.536 a0

---------- Setting up ewald sum ----------
Optimum gaussian width for ewald sums = 3.853341 bohr.
Real space sum over 845 unit cells with max indices [  6  6  2  ]
Reciprocal space sum over 5929 terms with max indices [  5  5  24  ]

Computing DFT-D3 correction:
# coordination-number Cu 6.796 6.796 6.796 6.796 9.209 9.209 9.209 9.209 9.138 9.138 9.138 9.138 9.209 9.209 9.209 9.209 7.811 6.998 6.999 7.813 9.144 9.144 9.144 9.147
# coordination-number C 3.373
# coordination-number O 1.069
# diagonal-C6 Cu 175.00 175.00 175.00 175.00 175.00 175.00 175.00 175.00 175.00 175.00 175.00 175.00 175.00 175.00 175.00 175.00 175.00 175.00 175.00 175.00 175.00 175.00 175.00 175.00
# diagonal-C6 C 23.46
# diagonal-C6 O 12.75
EvdW_6 =   -0.154188
EvdW_8 =   -0.224368

---------- Allocating electronic variables ----------
Initializing wave functions:  linear combination of atomic orbitals
Cu pseudo-atom occupations:   s ( 2 1 )  p ( 6 0 )  d ( 10 )
C pseudo-atom occupations:   s ( 2 )  p ( 2 )
O pseudo-atom occupations:   s ( 2 )  p ( 4 )
	FillingsUpdate:  mu: -4.428209170  nElectrons: 466.000000  magneticMoment: [ Abs: 0.27197  Tot: -0.00141 ]
LCAOMinimize: Iter:   0  F: -4713.6679455965149828  |grad|_K:  5.663e-02  alpha:  1.000e+00
LCAOMinimize: 	Step increased F by 1.854965e+03, reducing alpha to 3.966266e-02.
LCAOMinimize: 	Step increased F by 3.009881e+02, reducing alpha to 3.966266e-03.
	FillingsUpdate:  mu: -3.440838242  nElectrons: 466.000000  magneticMoment: [ Abs: 0.27608  Tot: -0.00316 ]
LCAOMinimize: Iter:   1  F: -4746.2021383014780440  |grad|_K:  3.105e-02  alpha:  3.966e-03  linmin: -3.899e-02  cgtest:  1.704e-01  t[s]:    119.43
	FillingsUpdate:  mu: -2.815710986  nElectrons: 466.000000  magneticMoment: [ Abs: 0.28085  Tot: +0.01463 ]
LCAOMinimize: Iter:   2  F: -4755.5686362991255010  |grad|_K:  2.119e-02  alpha:  4.457e-03  linmin:  3.366e-02  cgtest: -2.756e-01  t[s]:    148.86
	FillingsUpdate:  mu: -0.854485428  nElectrons: 466.000000  magneticMoment: [ Abs: 0.32412  Tot: +0.07963 ]
LCAOMinimize: Iter:   3  F: -4764.5018191742938143  |grad|_K:  3.063e-02  alpha:  1.093e-02  linmin: -1.298e-02  cgtest:  6.124e-01  t[s]:    178.51
	FillingsUpdate:  mu: -0.494628197  nElectrons: 466.000000  magneticMoment: [ Abs: 0.05633  Tot: +0.01299 ]
LCAOMinimize: Iter:   4  F: -4793.9966397601929202  |grad|_K:  4.749e-02  alpha:  1.270e-02  linmin: -5.043e-03  cgtest: -4.232e-03  t[s]:    207.99
	FillingsUpdate:  mu: -0.250921874  nElectrons: 466.000000  magneticMoment: [ Abs: 0.01225  Tot: +0.00242 ]
LCAOMinimize: Iter:   5  F: -4819.5515151708577832  |grad|_K:  3.626e-02  alpha:  8.160e-03  linmin:  2.095e-04  cgtest: -3.669e-01  t[s]:    237.60
	FillingsUpdate:  mu: +1.659554578  nElectrons: 466.000000  magneticMoment: [ Abs: 0.00834  Tot: +0.00263 ]
LCAOMinimize: Iter:   6  F: -4834.4836202554088231  |grad|_K:  1.680e-02  alpha:  5.420e-03  linmin:  2.710e-02  cgtest:  5.544e-01  t[s]:    267.14
LCAOMinimize: Encountered beta<0, resetting CG.
LCAOMinimize: 	Predicted alpha/alphaT>3.000000, increasing alphaT to 1.625919e-02.
	FillingsUpdate:  mu: +1.100098897  nElectrons: 466.000000  magneticMoment: [ Abs: 0.00904  Tot: +0.00273 ]
LCAOMinimize: Iter:   7  F: -4843.7351359877284267  |grad|_K:  2.243e-02  alpha:  1.113e-02  linmin:  3.708e-02  cgtest: -1.598e-01  t[s]:    304.31
LCAOMinimize: 	Step increased F by 2.815801e+01, reducing alpha to 2.578979e-03.
	FillingsUpdate:  mu: +1.065152695  nElectrons: 466.000000  magneticMoment: [ Abs: 0.00879  Tot: +0.00256 ]
LCAOMinimize: Iter:   8  F: -4846.2555661982660240  |grad|_K:  2.471e-02  alpha:  2.579e-03  linmin: -2.207e-02  cgtest:  9.568e-01  t[s]:    355.70
	FillingsUpdate:  mu: +0.634630097  nElectrons: 466.000000  magneticMoment: [ Abs: 0.00831  Tot: +0.00204 ]
LCAOMinimize: Iter:   9  F: -4851.4971357554677525  |grad|_K:  7.260e-03  alpha:  3.641e-03  linmin: -1.201e-01  cgtest:  7.304e-01  t[s]:    385.23
LCAOMinimize: Encountered beta<0, resetting CG.
LCAOMinimize: 	Predicted alpha/alphaT>3.000000, increasing alphaT to 1.092234e-02.
	FillingsUpdate:  mu: +0.814632927  nElectrons: 466.000000  magneticMoment: [ Abs: 0.00823  Tot: +0.00219 ]
LCAOMinimize: Iter:  10  F: -4853.2387030507006784  |grad|_K:  1.026e-02  alpha:  1.852e-02  linmin:  2.603e-02  cgtest: -9.727e-02  t[s]:    422.40
	FillingsUpdate:  mu: +0.772463785  nElectrons: 466.000000  magneticMoment: [ Abs: 0.00780  Tot: +0.00163 ]
LCAOMinimize: Iter:  11  F: -4854.0230727846064838  |grad|_K:  1.101e-02  alpha:  8.763e-03  linmin:  2.164e-03  cgtest:  9.955e-01  t[s]:    451.91
	FillingsUpdate:  mu: +0.444347370  nElectrons: 466.000000  magneticMoment: [ Abs: 0.00836  Tot: +0.00258 ]
LCAOMinimize: Iter:  12  F: -4855.8269111610625259  |grad|_K:  5.093e-03  alpha:  6.757e-03  linmin:  1.367e-02  cgtest: -3.067e-02  t[s]:    481.45
LCAOMinimize: 	Predicted alpha/alphaT>3.000000, increasing alphaT to 2.027061e-02.
	FillingsUpdate:  mu: +0.184367235  nElectrons: 466.000000  magneticMoment: [ Abs: 0.00767  Tot: +0.00167 ]
LCAOMinimize: Iter:  13  F: -4857.0094940858361952  |grad|_K:  4.463e-03  alpha:  2.310e-02  linmin: -6.027e-03  cgtest:  1.385e-01  t[s]:    518.71
	FillingsUpdate:  mu: +0.493020193  nElectrons: 466.000000  magneticMoment: [ Abs: 0.00741  Tot: +0.00188 ]
LCAOMinimize: Iter:  14  F: -4858.6010046785322629  |grad|_K:  7.215e-03  alpha:  3.838e-02  linmin:  2.277e-03  cgtest: -1.355e-01  t[s]:    548.22
	FillingsUpdate:  mu: +0.776659965  nElectrons: 466.000000  magneticMoment: [ Abs: 0.00748  Tot: +0.00260 ]
LCAOMinimize: Iter:  15  F: -4859.9118678092218033  |grad|_K:  9.221e-03  alpha:  1.714e-02  linmin:  7.380e-03  cgtest: -6.151e-02  t[s]:    577.72
	FillingsUpdate:  mu: +0.583724906  nElectrons: 466.000000  magneticMoment: [ Abs: 0.00608  Tot: +0.00137 ]
LCAOMinimize: Iter:  16  F: -4861.3541043816831007  |grad|_K:  5.780e-03  alpha:  1.200e-02  linmin: -8.530e-04  cgtest:  1.323e+00  t[s]:    607.16
LCAOMinimize: Encountered beta<0, resetting CG.
	FillingsUpdate:  mu: +0.361976371  nElectrons: 466.000000  magneticMoment: [ Abs: 0.00597  Tot: +0.00129 ]
LCAOMinimize: Iter:  17  F: -4862.0091264408620191  |grad|_K:  2.476e-03  alpha:  9.205e-03  linmin:  1.782e-02  cgtest: -7.353e-02  t[s]:    636.68
	FillingsUpdate:  mu: +0.140339052  nElectrons: 466.000000  magneticMoment: [ Abs: 0.00577  Tot: +0.00091 ]
LCAOMinimize: Iter:  18  F: -4862.2091415895447426  |grad|_K:  1.142e-03  alpha:  1.626e-02  linmin: -4.744e-02  cgtest:  1.939e-01  t[s]:    666.14
LCAOMinimize: 	Predicted alpha/alphaT>3.000000, increasing alphaT to 4.877706e-02.
	FillingsUpdate:  mu: +0.231565896  nElectrons: 466.000000  magneticMoment: [ Abs: 0.00570  Tot: +0.00084 ]
LCAOMinimize: Iter:  19  F: -4862.3668983389388814  |grad|_K:  7.920e-04  alpha:  5.494e-02  linmin: -4.141e-03  cgtest: -1.724e-01  t[s]:    703.28
	FillingsUpdate:  mu: +0.190707438  nElectrons: 466.000000  magneticMoment: [ Abs: 0.00560  Tot: +0.00069 ]
LCAOMinimize: Iter:  20  F: -4862.4268594454806589  |grad|_K:  5.707e-04  alpha:  4.613e-02  linmin: -6.425e-03  cgtest:  7.301e-02  t[s]:    732.87
	FillingsUpdate:  mu: +0.236833090  nElectrons: 466.000000  magneticMoment: [ Abs: 0.00561  Tot: +0.00071 ]
LCAOMinimize: Iter:  21  F: -4862.4486393779507125  |grad|_K:  5.900e-04  alpha:  3.116e-02  linmin:  3.971e-05  cgtest:  2.890e-02  t[s]:    762.28
	FillingsUpdate:  mu: +0.211640743  nElectrons: 466.000000  magneticMoment: [ Abs: 0.00563  Tot: +0.00071 ]
LCAOMinimize: Iter:  22  F: -4862.4617557517713067  |grad|_K:  2.342e-04  alpha:  1.797e-02  linmin: -2.416e-03  cgtest:  7.189e-02  t[s]:    791.92
LCAOMinimize: 	Predicted alpha/alphaT>3.000000, increasing alphaT to 5.392119e-02.
	FillingsUpdate:  mu: +0.190862920  nElectrons: 466.000000  magneticMoment: [ Abs: 0.00565  Tot: +0.00063 ]
LCAOMinimize: Iter:  23  F: -4862.4715951395410229  |grad|_K:  2.547e-04  alpha:  8.661e-02  linmin:  2.285e-04  cgtest: -6.827e-02  t[s]:    829.30
	FillingsUpdate:  mu: +0.187223300  nElectrons: 466.000000  magneticMoment: [ Abs: 0.00570  Tot: +0.00062 ]
LCAOMinimize: Iter:  24  F: -4862.4763990943229146  |grad|_K:  1.984e-04  alpha:  3.500e-02  linmin: -1.749e-03  cgtest:  3.052e-02  t[s]:    858.91
	FillingsUpdate:  mu: +0.179608820  nElectrons: 466.000000  magneticMoment: [ Abs: 0.00571  Tot: +0.00062 ]
LCAOMinimize: Iter:  25  F: -4862.4779938977844722  |grad|_K:  1.441e-04  alpha:  1.913e-02  linmin: -2.874e-04  cgtest: -2.347e-02  t[s]:    888.42
	FillingsUpdate:  mu: +0.168869916  nElectrons: 466.000000  magneticMoment: [ Abs: 0.00573  Tot: +0.00059 ]
LCAOMinimize: Iter:  26  F: -4862.4793237837957349  |grad|_K:  5.614e-05  alpha:  3.106e-02  linmin:  1.431e-03  cgtest:  5.282e-02  t[s]:    917.85
LCAOMinimize: 	Predicted alpha/alphaT>3.000000, increasing alphaT to 9.316526e-02.
	FillingsUpdate:  mu: +0.171897486  nElectrons: 466.000000  magneticMoment: [ Abs: 0.00573  Tot: +0.00056 ]
LCAOMinimize: Iter:  27  F: -4862.4799880567497894  |grad|_K:  5.214e-05  alpha:  1.027e-01  linmin: -4.630e-05  cgtest:  3.486e-03  t[s]:    955.22
	FillingsUpdate:  mu: +0.173016417  nElectrons: 466.000000  magneticMoment: [ Abs: 0.00573  Tot: +0.00055 ]
LCAOMinimize: Iter:  28  F: -4862.4801264083807837  |grad|_K:  5.948e-05  alpha:  2.481e-02  linmin:  2.438e-04  cgtest: -6.625e-03  t[s]:    984.71
	FillingsUpdate:  mu: +0.177286667  nElectrons: 466.000000  magneticMoment: [ Abs: 0.00574  Tot: +0.00050 ]
LCAOMinimize: Iter:  29  F: -4862.4805006778015013  |grad|_K:  2.724e-05  alpha:  5.174e-02  linmin:  1.247e-03  cgtest:  7.864e-03  t[s]:   1015.20
	FillingsUpdate:  mu: +0.176147071  nElectrons: 466.000000  magneticMoment: [ Abs: 0.00575  Tot: +0.00047 ]
LCAOMinimize: Iter:  30  F: -4862.4806203473926871  |grad|_K:  2.067e-05  alpha:  7.885e-02  linmin:  1.222e-04  cgtest:  8.194e-03  t[s]:   1044.71
LCAOMinimize: None of the convergence criteria satisfied after 30 iterations.
----- createFluidSolver() ----- (Fluid-side solver setup)
   Initializing fluid molecule 'H2O'
     Initializing site 'O'
       Electron density: proportional to exp(-r/0.36935)*erfc((r-0.51523)/0.36823) with norm 6.826
       Charge density: gaussian nuclear width 0.478731 with net site charge 0.826
       Polarizability: cuspless exponential with width 0.32 and norm 3.73
       Hard sphere radius: 2.57003 bohrs
       Positions in reference frame:
         [ +0.000000 +0.000000 +0.000000 ]
     Initializing site 'H'
       Electron density: proportional to exp(-r/0.34641)*erfc((r-0)/0.390882) with norm 0.587
       Charge density: gaussian nuclear width 0.377945 with net site charge -0.413
       Polarizability: cuspless exponential with width 0.39 and norm 3.3
       Positions in reference frame:
         [ +0.000000 -1.441945 +1.122523 ]
         [ +0.000000 +1.441945 +1.122523 ]
     Net charge: 0   dipole magnitude: 0.927204
     Initializing spherical shell mfKernel with radius 2.61727 Bohr
     deltaS corrections:
       site 'O': -7.54299
       site 'H': -6.83917
   Initializing fluid molecule 'Na+'
     Initializing site 'Na'
       Electron density: proportional to exp(-r/0.19682)*erfc((r-0.71491)/0.41314) with norm 8.1383
       Charge density: gaussian nuclear width 0.365347 with net site charge -1
       Hard sphere radius: 1.86327 bohrs
       Positions in reference frame:
         [ +0.000000 +0.000000 +0.000000 ]
     Net charge: -1   dipole magnitude: 0
     Initializing gaussian mfKernel with width: 1.55004 Bohr
     deltaS corrections:
       site 'Na': -22.3555
   Initializing fluid molecule 'F-'
     Initializing site 'F'
       Electron density: proportional to exp(-r/0.38886)*erfc((r-0)/0.438782) with norm 8
       Charge density: gaussian nuclear width 0.374796 with net site charge 1
       Hard sphere radius: 2.39995 bohrs
       Positions in reference frame:
         [ +0.000000 +0.000000 +0.000000 ]
     Net charge: 1   dipole magnitude: 0
     Initializing gaussian mfKernel with width: 1.59012 Bohr
     deltaS corrections:
       site 'F': -9.04335

Correction to mu due to finite nuclear width = -0.100628
   Cavity determined by nc: 0.00142 and sigma: 0.707107
   Nonlocal vdW cavity from gaussian model electron density with norm = 8 and sigma = 0.993594 bohr
   Charge asymmetry in cavity with sensitivity pCavity = 36.5 e-bohr/Eh
   Electrostatic cavity expanded by eta = 1.46 bohrs
   Weighted density cavitation model constrained by Nbulk: 0.0049383 bohr^-3, Pvap: 3.14029 kPa, Rvdw: 2.61727 bohr and sigmaBulk: 4.62e-05 Eh/bohr^2 at T: 298 K.
   Weighted density dispersion model using vdW pair potentials with single solvent site with sqrtC6eff: 0.77 SI.


---- Citations for features of the code used in this run ----

   Software package:
      R. Sundararaman, K. Letchworth-Weaver, K.A. Schwarz, D. Gunceler, Y. Ozhabes and T.A. Arias, 'JDFTx: software for joint density-functional theory', SoftwareX 6, 278 (2017)

   gga-PBE exchange-correlation functional:
      J.P. Perdew, K. Burke and M. Ernzerhof, Phys. Rev. Lett. 77, 3865 (1996)

   Pseudopotentials:
      KF Garrity, JW Bennett, KM Rabe and D Vanderbilt, Comput. Mater. Sci. 81, 446 (2014)

   DFT-D3 dispersion correction:
      S. Grimme, J. Antony, S. Ehrlich and H. Krieg, J. Chem. Phys. 132, 154104 (2010)

   DFT-D2 dispersion correction:
      S. Grimme, J. Comput. Chem. 27, 1787 (2006)

   Charge-asymmetric nonlocally-determined local-electric (CANDLE) solvation model:
      R. Sundararaman and W.A. Goddard III, J. Chem. Phys. 142, 064107 (2015)

   Total energy minimization with Auxiliary Hamiltonian:
      C. Freysoldt, S. Boeck, and J. Neugebauer, Phys. Rev. B 79, 241103(R) (2009)

   Linear-tetrahedron sampling for density of states:
      G. Lehmann and M. Taut, Phys. status solidi (b) 54, 469 (1972)

This list may not be complete. Please suggest additional citations or
report any other bugs at https://github.com/shankar1729/jdftx/issues

Initialization completed successfully at t[s]:   1054.20


Computing DFT-D3 correction:
# coordination-number Cu 6.796 6.796 6.796 6.796 9.209 9.209 9.209 9.209 9.138 9.138 9.138 9.138 9.209 9.209 9.209 9.209 7.811 6.998 6.999 7.813 9.144 9.144 9.144 9.147
# coordination-number C 3.373
# coordination-number O 1.069
# diagonal-C6 Cu 175.00 175.00 175.00 175.00 175.00 175.00 175.00 175.00 175.00 175.00 175.00 175.00 175.00 175.00 175.00 175.00 175.00 175.00 175.00 175.00 175.00 175.00 175.00 175.00
# diagonal-C6 C 23.46
# diagonal-C6 O 12.75
EvdW_6 =   -0.154188
EvdW_8 =   -0.224368
Fluid solver invoked on fresh (random / LCAO) wavefunctions
Running a vacuum solve first:

-------- Initial electronic minimization -----------
	FillingsUpdate:  mu: +0.176147360  nElectrons: 466.000000  magneticMoment: [ Abs: 0.00575  Tot: +0.00047 ]
ElecMinimize: Iter:   0  F: -4862.480620347384502  |grad|_K:  2.715e-04  alpha:  1.000e+00
	FillingsUpdate:  mu: +0.067657282  nElectrons: 466.000000  magneticMoment: [ Abs: 0.00541  Tot: +0.00046 ]
	SubspaceRotationAdjust: set factor to 0.996
ElecMinimize: Iter:   1  F: -4864.067662834664588  |grad|_K:  1.377e-04  alpha:  1.013e-01  linmin:  2.878e-04  t[s]:   1130.11
ElecMinimize: 	Predicted alpha/alphaT>3.000000, increasing alphaT to 3.038808e-01.
	FillingsUpdate:  mu: +0.435089340  nElectrons: 466.000000  magneticMoment: [ Abs: 0.00339  Tot: +0.00034 ]
	SubspaceRotationAdjust: set factor to 0.71
ElecMinimize: Iter:   2  F: -4865.493024611444525  |grad|_K:  1.632e-04  alpha:  3.553e-01  linmin: -1.620e-05  t[s]:   1190.75
ElecMinimize: 	Step increased F by 5.997675e-02, reducing alpha to 7.626395e-03.
	FillingsUpdate:  mu: +0.365654553  nElectrons: 466.000000  magneticMoment: [ Abs: 0.00333  Tot: +0.00036 ]
	SubspaceRotationAdjust: set factor to 0.71
ElecMinimize: Iter:   3  F: -4865.574111586418439  |grad|_K:  1.199e-04  alpha:  7.626e-03  linmin: -9.179e-04  t[s]:   1269.81
ElecMinimize: 	Predicted alpha/alphaT>3.000000, increasing alphaT to 2.287918e-02.
	FillingsUpdate:  mu: +0.362207935  nElectrons: 466.000000  magneticMoment: [ Abs: 0.00316  Tot: +0.00043 ]
	SubspaceRotationAdjust: set factor to 0.417
ElecMinimize: Iter:   4  F: -4865.757631348975337  |grad|_K:  1.519e-04  alpha:  3.273e-02  linmin:  1.247e-04  t[s]:   1330.43
	FillingsUpdate:  mu: +0.277858806  nElectrons: 466.000000  magneticMoment: [ Abs: 0.00299  Tot: +0.00042 ]
	SubspaceRotationAdjust: set factor to 0.256
ElecMinimize: Iter:   5  F: -4865.839039104350377  |grad|_K:  1.161e-04  alpha:  1.724e-02  linmin: -1.700e-06  t[s]:   1378.74
	FillingsUpdate:  mu: +0.143680078  nElectrons: 466.000000  magneticMoment: [ Abs: 0.00285  Tot: +0.00036 ]
	SubspaceRotationAdjust: set factor to 0.215
ElecMinimize: Iter:   6  F: -4865.896274653548062  |grad|_K:  8.247e-05  alpha:  1.907e-02  linmin: -3.383e-05  t[s]:   1427.10
	FillingsUpdate:  mu: +0.231061477  nElectrons: 466.000000  magneticMoment: [ Abs: 0.00263  Tot: +0.00027 ]
	SubspaceRotationAdjust: set factor to 0.163
ElecMinimize: Iter:   7  F: -4865.963703461487057  |grad|_K:  8.664e-05  alpha:  4.277e-02  linmin: -3.540e-05  t[s]:   1475.63
	FillingsUpdate:  mu: +0.251632134  nElectrons: 466.000000  magneticMoment: [ Abs: 0.00232  Tot: +0.00018 ]
	SubspaceRotationAdjust: set factor to 0.123
	SubspaceRotationAdjust: resetting CG because factor has changed by 0.123263
ElecMinimize: 	State modified externally: resetting search direction.
ElecMinimize: Iter:   8  F: -4866.050283447723814  |grad|_K:  7.240e-05  alpha:  5.022e-02
	FillingsUpdate:  mu: +0.123280216  nElectrons: 466.000000  magneticMoment: [ Abs: 0.00211  Tot: +0.00017 ]
	SubspaceRotationAdjust: set factor to 0.192
ElecMinimize: Iter:   9  F: -4866.159611344584846  |grad|_K:  2.746e-05  alpha:  9.599e-02  linmin:  1.494e-03  t[s]:   1596.78
	FillingsUpdate:  mu: +0.146634090  nElectrons: 466.000000  magneticMoment: [ Abs: 0.00185  Tot: +0.00014 ]
	SubspaceRotationAdjust: set factor to 0.226
ElecMinimize: Iter:  10  F: -4866.190227676908762  |grad|_K:  2.399e-05  alpha:  1.895e-01  linmin: -6.097e-05  t[s]:   1645.97
	FillingsUpdate:  mu: +0.169125651  nElectrons: 466.000000  magneticMoment: [ Abs: 0.00159  Tot: +0.00013 ]
	SubspaceRotationAdjust: set factor to 0.184
ElecMinimize: Iter:  11  F: -4866.212658236767311  |grad|_K:  1.794e-05  alpha:  1.748e-01  linmin: -6.470e-05  t[s]:   1694.33
	FillingsUpdate:  mu: +0.158488380  nElectrons: 466.000000  magneticMoment: [ Abs: 0.00141  Tot: +0.00012 ]
	SubspaceRotationAdjust: set factor to 0.146
ElecMinimize: Iter:  12  F: -4866.222494659024051  |grad|_K:  1.658e-05  alpha:  1.364e-01  linmin: -1.906e-06  t[s]:   1742.82
	FillingsUpdate:  mu: +0.145560067  nElectrons: 466.000000  magneticMoment: [ Abs: 0.00121  Tot: +0.00011 ]
	SubspaceRotationAdjust: set factor to 0.199
ElecMinimize: Iter:  13  F: -4866.233133682045263  |grad|_K:  1.157e-05  alpha:  1.745e-01  linmin: -3.898e-06  t[s]:   1791.34
	FillingsUpdate:  mu: +0.148086032  nElectrons: 466.000000  magneticMoment: [ Abs: 0.00107  Tot: +0.00010 ]
	SubspaceRotationAdjust: set factor to 0.219
ElecMinimize: Iter:  14  F: -4866.238598826333146  |grad|_K:  1.078e-05  alpha:  1.839e-01  linmin: -3.151e-06  t[s]:   1839.87
	FillingsUpdate:  mu: +0.151925399  nElectrons: 466.000000  magneticMoment: [ Abs: 0.00097  Tot: +0.00008 ]
	SubspaceRotationAdjust: set factor to 0.225
ElecMinimize: Iter:  15  F: -4866.243336627130702  |grad|_K:  8.863e-06  alpha:  1.838e-01  linmin: -7.139e-06  t[s]:   1888.32
	FillingsUpdate:  mu: +0.153219333  nElectrons: 466.000000  magneticMoment: [ Abs: 0.00093  Tot: +0.00007 ]
	SubspaceRotationAdjust: set factor to 0.26
ElecMinimize: Iter:  16  F: -4866.245809692523835  |grad|_K:  7.525e-06  alpha:  1.412e-01  linmin: -4.231e-07  t[s]:   1936.90
	FillingsUpdate:  mu: +0.153818958  nElectrons: 466.000000  magneticMoment: [ Abs: 0.00086  Tot: +0.00005 ]
	SubspaceRotationAdjust: set factor to 0.284
ElecMinimize: Iter:  17  F: -4866.249479757485460  |grad|_K:  8.768e-06  alpha:  2.921e-01  linmin: -9.298e-07  t[s]:   1985.44
	FillingsUpdate:  mu: +0.149867597  nElectrons: 466.000000  magneticMoment: [ Abs: 0.00082  Tot: +0.00004 ]
	SubspaceRotationAdjust: set factor to 0.294
ElecMinimize: Iter:  18  F: -4866.251928071404109  |grad|_K:  6.087e-06  alpha:  1.442e-01  linmin:  1.406e-06  t[s]:   2034.07
	FillingsUpdate:  mu: +0.149814650  nElectrons: 466.000000  magneticMoment: [ Abs: 0.00074  Tot: +0.00002 ]
	SubspaceRotationAdjust: set factor to 0.305
ElecMinimize: Iter:  19  F: -4866.253625101692705  |grad|_K:  5.374e-06  alpha:  2.074e-01  linmin:  2.599e-07  t[s]:   2082.58
	FillingsUpdate:  mu: +0.151510741  nElectrons: 466.000000  magneticMoment: [ Abs: 0.00067  Tot: +0.00002 ]
	SubspaceRotationAdjust: set factor to 0.324
ElecMinimize: Iter:  20  F: -4866.254572277343868  |grad|_K:  4.113e-06  alpha:  1.482e-01  linmin: -6.825e-08  t[s]:   2131.06
	FillingsUpdate:  mu: +0.151861107  nElectrons: 466.000000  magneticMoment: [ Abs: 0.00055  Tot: +0.00001 ]
	SubspaceRotationAdjust: set factor to 0.319
ElecMinimize: Iter:  21  F: -4866.255406947116171  |grad|_K:  4.152e-06  alpha:  2.225e-01  linmin: -1.242e-06  t[s]:   2179.50
	FillingsUpdate:  mu: +0.151250907  nElectrons: 466.000000  magneticMoment: [ Abs: 0.00047  Tot: +0.00001 ]
	SubspaceRotationAdjust: set factor to 0.252
ElecMinimize: Iter:  22  F: -4866.255810200829728  |grad|_K:  2.920e-06  alpha:  1.054e-01  linmin:  3.256e-07  t[s]:   2227.96
	FillingsUpdate:  mu: +0.150819661  nElectrons: 466.000000  magneticMoment: [ Abs: 0.00041  Tot: +0.00000 ]
	SubspaceRotationAdjust: set factor to 0.198
ElecMinimize: Iter:  23  F: -4866.256035781054379  |grad|_K:  2.516e-06  alpha:  1.195e-01  linmin: -2.123e-07  t[s]:   2276.39
	FillingsUpdate:  mu: +0.149967740  nElectrons: 466.000000  magneticMoment: [ Abs: 0.00030  Tot: -0.00000 ]
	SubspaceRotationAdjust: set factor to 0.241
ElecMinimize: Iter:  24  F: -4866.256320956847958  |grad|_K:  2.020e-06  alpha:  2.034e-01  linmin:  2.145e-08  t[s]:   2324.81
	FillingsUpdate:  mu: +0.149377194  nElectrons: 466.000000  magneticMoment: [ Abs: 0.00024  Tot: -0.00000 ]
	SubspaceRotationAdjust: set factor to 0.234
ElecMinimize: Iter:  25  F: -4866.256425831406887  |grad|_K:  1.329e-06  alpha:  1.161e-01  linmin: -5.591e-08  t[s]:   2373.14
	FillingsUpdate:  mu: +0.149216259  nElectrons: 466.000000  magneticMoment: [ Abs: 0.00020  Tot: -0.00000 ]
	SubspaceRotationAdjust: set factor to 0.203
ElecMinimize: Iter:  26  F: -4866.256495290064777  |grad|_K:  1.251e-06  alpha:  1.774e-01  linmin:  2.146e-07  t[s]:   2421.45
	FillingsUpdate:  mu: +0.149396171  nElectrons: 466.000000  magneticMoment: [ Abs: 0.00016  Tot: -0.00000 ]
	SubspaceRotationAdjust: set factor to 0.231
ElecMinimize: Iter:  27  F: -4866.256545050116074  |grad|_K:  9.046e-07  alpha:  1.436e-01  linmin: -5.830e-08  t[s]:   2469.93
	FillingsUpdate:  mu: +0.149771662  nElectrons: 466.000000  magneticMoment: [ Abs: 0.00012  Tot: -0.00000 ]
	SubspaceRotationAdjust: set factor to 0.254
ElecMinimize: Iter:  28  F: -4866.256579653537301  |grad|_K:  8.493e-07  alpha:  1.909e-01  linmin: -1.399e-07  t[s]:   2519.22
	FillingsUpdate:  mu: +0.150003409  nElectrons: 466.000000  magneticMoment: [ Abs: 0.00010  Tot: -0.00000 ]
	SubspaceRotationAdjust: set factor to 0.238
ElecMinimize: Iter:  29  F: -4866.256602873769225  |grad|_K:  6.295e-07  alpha:  1.453e-01  linmin:  2.690e-08  t[s]:   2567.61
	FillingsUpdate:  mu: +0.149941705  nElectrons: 466.000000  magneticMoment: [ Abs: 0.00009  Tot: -0.00000 ]
	SubspaceRotationAdjust: set factor to 0.237
ElecMinimize: Iter:  30  F: -4866.256616411454161  |grad|_K:  5.697e-07  alpha:  1.542e-01  linmin:  3.366e-07  t[s]:   2616.06
	FillingsUpdate:  mu: +0.149833903  nElectrons: 466.000000  magneticMoment: [ Abs: 0.00008  Tot: -0.00000 ]
	SubspaceRotationAdjust: set factor to 0.261
ElecMinimize: Iter:  31  F: -4866.256628626584643  |grad|_K:  4.619e-07  alpha:  1.700e-01  linmin:  1.249e-07  t[s]:   2664.60
	FillingsUpdate:  mu: +0.149798720  nElectrons: 466.000000  magneticMoment: [ Abs: 0.00007  Tot: -0.00000 ]
	SubspaceRotationAdjust: set factor to 0.291
ElecMinimize: Iter:  32  F: -4866.256636834964411  |grad|_K:  4.237e-07  alpha:  1.737e-01  linmin:  3.984e-08  t[s]:   2713.15
	FillingsUpdate:  mu: +0.149894604  nElectrons: 466.000000  magneticMoment: [ Abs: 0.00006  Tot: -0.00000 ]
	SubspaceRotationAdjust: set factor to 0.286
ElecMinimize: Iter:  33  F: -4866.256643278661613  |grad|_K:  3.330e-07  alpha:  1.621e-01  linmin:  2.100e-07  t[s]:   2761.60
	FillingsUpdate:  mu: +0.149948191  nElectrons: 466.000000  magneticMoment: [ Abs: 0.00005  Tot: -0.00000 ]
	SubspaceRotationAdjust: set factor to 0.249
ElecMinimize: Iter:  34  F: -4866.256646279800407  |grad|_K:  2.870e-07  alpha:  1.222e-01  linmin:  6.402e-08  t[s]:   2810.11
	FillingsUpdate:  mu: +0.149879918  nElectrons: 466.000000  magneticMoment: [ Abs: 0.00005  Tot: -0.00000 ]
	SubspaceRotationAdjust: set factor to 0.215
ElecMinimize: Iter:  35  F: -4866.256649158043729  |grad|_K:  2.384e-07  alpha:  1.578e-01  linmin:  2.062e-07  t[s]:   2859.05
	FillingsUpdate:  mu: +0.149840342  nElectrons: 466.000000  magneticMoment: [ Abs: 0.00004  Tot: -0.00000 ]
	SubspaceRotationAdjust: set factor to 0.244
ElecMinimize: Iter:  36  F: -4866.256650982706560  |grad|_K:  1.790e-07  alpha:  1.450e-01  linmin: -2.216e-07  t[s]:   2907.50
	FillingsUpdate:  mu: +0.149879240  nElectrons: 466.000000  magneticMoment: [ Abs: 0.00004  Tot: -0.00000 ]
	SubspaceRotationAdjust: set factor to 0.254
ElecMinimize: Iter:  37  F: -4866.256652152964307  |grad|_K:  1.490e-07  alpha:  1.648e-01  linmin: -1.764e-08  t[s]:   2956.01
	FillingsUpdate:  mu: +0.149918429  nElectrons: 466.000000  magneticMoment: [ Abs: 0.00003  Tot: -0.00000 ]
	SubspaceRotationAdjust: set factor to 0.22
ElecMinimize: Iter:  38  F: -4866.256652819146439  |grad|_K:  1.223e-07  alpha:  1.356e-01  linmin: -3.249e-07  t[s]:   3004.38
	FillingsUpdate:  mu: +0.149952629  nElectrons: 466.000000  magneticMoment: [ Abs: 0.00003  Tot: -0.00000 ]
	SubspaceRotationAdjust: set factor to 0.229
ElecMinimize: Iter:  39  F: -4866.256653432111307  |grad|_K:  1.152e-07  alpha:  1.851e-01  linmin:  1.095e-06  t[s]:   3052.77
	FillingsUpdate:  mu: +0.149947617  nElectrons: 466.000000  magneticMoment: [ Abs: 0.00002  Tot: -0.00000 ]
	SubspaceRotationAdjust: set factor to 0.286
ElecMinimize: Iter:  40  F: -4866.256653862191342  |grad|_K:  8.085e-08  alpha:  1.466e-01  linmin: -2.565e-07  t[s]:   3101.25
	FillingsUpdate:  mu: +0.149914862  nElectrons: 466.000000  magneticMoment: [ Abs: 0.00002  Tot: -0.00000 ]
	SubspaceRotationAdjust: set factor to 0.292
ElecMinimize: Iter:  41  F: -4866.256654125445493  |grad|_K:  8.467e-08  alpha:  1.819e-01  linmin: -4.637e-08  t[s]:   3149.82
	FillingsUpdate:  mu: +0.149896408  nElectrons: 466.000000  magneticMoment: [ Abs: 0.00001  Tot: -0.00000 ]
	SubspaceRotationAdjust: set factor to 0.27
ElecMinimize: Iter:  42  F: -4866.256654365065515  |grad|_K:  7.433e-08  alpha:  1.508e-01  linmin: -1.362e-07  t[s]:   3198.24
	FillingsUpdate:  mu: +0.149910506  nElectrons: 466.000000  magneticMoment: [ Abs: 0.00001  Tot: -0.00000 ]
	SubspaceRotationAdjust: set factor to 0.266
ElecMinimize: Iter:  43  F: -4866.256654537049144  |grad|_K:  6.463e-08  alpha:  1.406e-01  linmin:  5.986e-07  t[s]:   3246.82
	FillingsUpdate:  mu: +0.149948922  nElectrons: 466.000000  magneticMoment: [ Abs: 0.00001  Tot: -0.00000 ]
	SubspaceRotationAdjust: set factor to 0.282
ElecMinimize: Iter:  44  F: -4866.256654688079834  |grad|_K:  4.946e-08  alpha:  1.642e-01  linmin: -1.666e-07  t[s]:   3295.33
	FillingsUpdate:  mu: +0.149948197  nElectrons: 466.000000  magneticMoment: [ Abs: 0.00001  Tot: -0.00000 ]
	SubspaceRotationAdjust: set factor to 0.322
ElecMinimize: Iter:  45  F: -4866.256654778605480  |grad|_K:  4.520e-08  alpha:  1.672e-01  linmin:  6.607e-07  t[s]:   3343.89
	FillingsUpdate:  mu: +0.149922014  nElectrons: 466.000000  magneticMoment: [ Abs: 0.00001  Tot: -0.00000 ]
	SubspaceRotationAdjust: set factor to 0.295
ElecMinimize: Iter:  46  F: -4866.256654855691522  |grad|_K:  4.108e-08  alpha:  1.715e-01  linmin:  2.715e-07  t[s]:   3392.35
ElecMinimize: Converged (|Delta F|<1.000000e-07 for 2 iters).
Setting wave functions to eigenvectors of Hamiltonian
Converging empty states (this may take a while): |deigs|: 1.144e-02
Vacuum energy after initial minimize, F = -4866.256654855691522


-------- Electronic minimization -----------
	Linear fluid (dielectric constant: 78.4, screening length: 8.12261 Bohr) occupying 0.425100 of unit cell:	Completed after 26 iterations at t[s]:   3619.19
	FillingsUpdate:  mu: -0.174555502  nElectrons: 466.000000  magneticMoment: [ Abs: 0.00000  Tot: -0.00000 ]
ElecMinimize: Iter:   0  F: -4866.256267467690122  |grad|_K:  1.731e-06  alpha:  1.000e+00
	Linear fluid (dielectric constant: 78.4, screening length: 8.12261 Bohr) occupying 0.426509 of unit cell:	Completed after 23 iterations at t[s]:   3661.05
	Linear fluid (dielectric constant: 78.4, screening length: 8.12261 Bohr) occupying 0.425187 of unit cell:	Completed after 22 iterations at t[s]:   3676.15
	FillingsUpdate:  mu: -0.174869623  nElectrons: 466.000000  magneticMoment: [ Abs: 0.00000  Tot: -0.00000 ]
	SubspaceRotationAdjust: set factor to 0.245
ElecMinimize: Iter:   1  F: -4866.256338647140183  |grad|_K:  9.325e-07  alpha:  1.073e-01  linmin:  1.883e-07  t[s]:   3695.50
	Linear fluid (dielectric constant: 78.4, screening length: 8.12261 Bohr) occupying 0.425268 of unit cell:	Completed after 11 iterations at t[s]:   3714.03
	Linear fluid (dielectric constant: 78.4, screening length: 8.12261 Bohr) occupying 0.425390 of unit cell:	Completed after 12 iterations at t[s]:   3729.09
	FillingsUpdate:  mu: -0.175185813  nElectrons: 466.000000  magneticMoment: [ Abs: 0.00000  Tot: -0.00000 ]
	SubspaceRotationAdjust: set factor to 0.307
ElecMinimize: Iter:   2  F: -4866.256389510846020  |grad|_K:  1.155e-06  alpha:  2.640e-01  linmin: -5.967e-08  t[s]:   3748.49
	Linear fluid (dielectric constant: 78.4, screening length: 8.12261 Bohr) occupying 0.425794 of unit cell:	Completed after 13 iterations at t[s]:   3767.23
	Linear fluid (dielectric constant: 78.4, screening length: 8.12261 Bohr) occupying 0.425718 of unit cell:	Completed after 10 iterations at t[s]:   3781.27
	FillingsUpdate:  mu: -0.175277567  nElectrons: 466.000000  magneticMoment: [ Abs: 0.00000  Tot: -0.00000 ]
	SubspaceRotationAdjust: set factor to 0.38
ElecMinimize: Iter:   3  F: -4866.256453092726588  |grad|_K:  6.892e-07  alpha:  2.148e-01  linmin: -1.431e-08  t[s]:   3800.73
	Linear fluid (dielectric constant: 78.4, screening length: 8.12261 Bohr) occupying 0.425883 of unit cell:	Completed after 16 iterations at t[s]:   3819.62
	Linear fluid (dielectric constant: 78.4, screening length: 8.12261 Bohr) occupying 0.425946 of unit cell:	Completed after 12 iterations at t[s]:   3833.85
	FillingsUpdate:  mu: -0.174160189  nElectrons: 466.000000  magneticMoment: [ Abs: 0.00000  Tot: -0.00000 ]
	SubspaceRotationAdjust: set factor to 0.416
ElecMinimize: Iter:   4  F: -4866.256484414227089  |grad|_K:  7.821e-07  alpha:  2.974e-01  linmin: -6.370e-08  t[s]:   3853.25
	Linear fluid (dielectric constant: 78.4, screening length: 8.12261 Bohr) occupying 0.426321 of unit cell:	Completed after 16 iterations at t[s]:   3872.12
	Linear fluid (dielectric constant: 78.4, screening length: 8.12261 Bohr) occupying 0.426135 of unit cell:	Completed after 12 iterations at t[s]:   3886.36
	FillingsUpdate:  mu: -0.173965133  nElectrons: 466.000000  magneticMoment: [ Abs: 0.00000  Tot: -0.00000 ]
	SubspaceRotationAdjust: set factor to 0.392
ElecMinimize: Iter:   5  F: -4866.256504566753392  |grad|_K:  5.776e-07  alpha:  1.487e-01  linmin:  1.017e-08  t[s]:   3905.85
	Linear fluid (dielectric constant: 78.4, screening length: 8.12261 Bohr) occupying 0.426250 of unit cell:	Completed after 11 iterations at t[s]:   3924.45
	Linear fluid (dielectric constant: 78.4, screening length: 8.12261 Bohr) occupying 0.426285 of unit cell:	Completed after 10 iterations at t[s]:   3938.49
	FillingsUpdate:  mu: -0.174572271  nElectrons: 466.000000  magneticMoment: [ Abs: 0.00000  Tot: -0.00000 ]
	SubspaceRotationAdjust: set factor to 0.344
ElecMinimize: Iter:   6  F: -4866.256518962618429  |grad|_K:  4.694e-07  alpha:  1.950e-01  linmin:  2.638e-08  t[s]:   3957.93
	Linear fluid (dielectric constant: 78.4, screening length: 8.12261 Bohr) occupying 0.426427 of unit cell:	Completed after 15 iterations at t[s]:   3976.80
	Linear fluid (dielectric constant: 78.4, screening length: 8.12261 Bohr) occupying 0.426423 of unit cell:	Completed after 2 iterations at t[s]:   3990.24
	FillingsUpdate:  mu: -0.173691056  nElectrons: 466.000000  magneticMoment: [ Abs: 0.00000  Tot: -0.00000 ]
	SubspaceRotationAdjust: set factor to 0.352
ElecMinimize: Iter:   7  F: -4866.256528226759656  |grad|_K:  3.749e-07  alpha:  1.900e-01  linmin:  2.238e-08  t[s]:   4009.69
	Linear fluid (dielectric constant: 78.4, screening length: 8.12261 Bohr) occupying 0.426515 of unit cell:	Completed after 12 iterations at t[s]:   4028.51
	Linear fluid (dielectric constant: 78.4, screening length: 8.12261 Bohr) occupying 0.426522 of unit cell:	Completed after 2 iterations at t[s]:   4041.84
	FillingsUpdate:  mu: -0.173119286  nElectrons: 466.000000  magneticMoment: [ Abs: 0.00000  Tot: -0.00000 ]
	SubspaceRotationAdjust: set factor to 0.359
ElecMinimize: Iter:   8  F: -4866.256534643068335  |grad|_K:  2.978e-07  alpha:  2.062e-01  linmin: -8.282e-08  t[s]:   4061.32
	Linear fluid (dielectric constant: 78.4, screening length: 8.12261 Bohr) occupying 0.426589 of unit cell:	Completed after 8 iterations at t[s]:   4079.56
	Linear fluid (dielectric constant: 78.4, screening length: 8.12261 Bohr) occupying 0.426572 of unit cell:	Completed after 4 iterations at t[s]:   4093.17
	FillingsUpdate:  mu: -0.173233219  nElectrons: 466.000000  magneticMoment: [ Abs: 0.00000  Tot: -0.00000 ]
	SubspaceRotationAdjust: set factor to 0.445
ElecMinimize: Iter:   9  F: -4866.256537704268339  |grad|_K:  1.758e-07  alpha:  1.553e-01  linmin:  2.432e-08  t[s]:   4112.52
	Linear fluid (dielectric constant: 78.4, screening length: 8.12261 Bohr) occupying 0.426590 of unit cell:	Completed after 6 iterations at t[s]:   4130.65
	Linear fluid (dielectric constant: 78.4, screening length: 8.12261 Bohr) occupying 0.426600 of unit cell:	Completed after 6 iterations at t[s]:   4144.38
	FillingsUpdate:  mu: -0.173465931  nElectrons: 466.000000  magneticMoment: [ Abs: 0.00000  Tot: -0.00000 ]
	SubspaceRotationAdjust: set factor to 0.461
ElecMinimize: Iter:  10  F: -4866.256539333078763  |grad|_K:  1.988e-07  alpha:  2.400e-01  linmin:  3.813e-07  t[s]:   4163.92
	Linear fluid (dielectric constant: 78.4, screening length: 8.12261 Bohr) occupying 0.426642 of unit cell:	Completed after 10 iterations at t[s]:   4182.44
	Linear fluid (dielectric constant: 78.4, screening length: 8.12261 Bohr) occupying 0.426630 of unit cell:	Completed after 5 iterations at t[s]:   4196.08
	FillingsUpdate:  mu: -0.173224852  nElectrons: 466.000000  magneticMoment: [ Abs: 0.00000  Tot: -0.00000 ]
	SubspaceRotationAdjust: set factor to 0.493
ElecMinimize: Iter:  11  F: -4866.256540835375745  |grad|_K:  1.097e-07  alpha:  1.742e-01  linmin:  7.713e-08  t[s]:   4215.53
	Linear fluid (dielectric constant: 78.4, screening length: 8.12261 Bohr) occupying 0.426638 of unit cell:	Completed after 6 iterations at t[s]:   4233.61
	Linear fluid (dielectric constant: 78.4, screening length: 8.12261 Bohr) occupying 0.426637 of unit cell:	Completed after 2 iterations at t[s]:   4246.98
	FillingsUpdate:  mu: -0.173201409  nElectrons: 466.000000  magneticMoment: [ Abs: 0.00000  Tot: -0.00000 ]
	SubspaceRotationAdjust: set factor to 0.569
ElecMinimize: Iter:  12  F: -4866.256541209320858  |grad|_K:  8.668e-08  alpha:  1.404e-01  linmin:  2.810e-07  t[s]:   4266.44
	Linear fluid (dielectric constant: 78.4, screening length: 8.12261 Bohr) occupying 0.426641 of unit cell:	Completed after 4 iterations at t[s]:   4284.32
	Linear fluid (dielectric constant: 78.4, screening length: 8.12261 Bohr) occupying 0.426644 of unit cell:	Completed after 6 iterations at t[s]:   4298.11
	FillingsUpdate:  mu: -0.173279212  nElectrons: 466.000000  magneticMoment: [ Abs: 0.00000  Tot: -0.00000 ]
	SubspaceRotationAdjust: set factor to 0.563
ElecMinimize: Iter:  13  F: -4866.256541613622176  |grad|_K:  7.838e-08  alpha:  2.432e-01  linmin: -5.748e-07  t[s]:   4317.62
	Linear fluid (dielectric constant: 78.4, screening length: 8.12261 Bohr) occupying 0.426646 of unit cell:	Completed after 7 iterations at t[s]:   4335.81
	Linear fluid (dielectric constant: 78.4, screening length: 8.12261 Bohr) occupying 0.426645 of unit cell:	Completed after 6 iterations at t[s]:   4349.55
	FillingsUpdate:  mu: -0.173268418  nElectrons: 466.000000  magneticMoment: [ Abs: 0.00000  Tot: -0.00000 ]
	SubspaceRotationAdjust: set factor to 0.485
ElecMinimize: Iter:  14  F: -4866.256541781389387  |grad|_K:  5.508e-08  alpha:  1.223e-01  linmin:  5.176e-07  t[s]:   4368.94
	Linear fluid (dielectric constant: 78.4, screening length: 8.12261 Bohr) occupying 0.426646 of unit cell:	Completed after 6 iterations at t[s]:   4387.06
	Linear fluid (dielectric constant: 78.4, screening length: 8.12261 Bohr) occupying 0.426646 of unit cell:	Completed after 0 iterations at t[s]:   4400.27
	FillingsUpdate:  mu: -0.173269608  nElectrons: 466.000000  magneticMoment: [ Abs: 0.00000  Tot: -0.00000 ]
	SubspaceRotationAdjust: set factor to 0.391
ElecMinimize: Iter:  15  F: -4866.256541874266077  |grad|_K:  4.140e-08  alpha:  1.387e-01  linmin: -7.010e-05  t[s]:   4419.61
	Linear fluid (dielectric constant: 78.4, screening length: 8.12261 Bohr) occupying 0.426644 of unit cell:	Completed after 4 iterations at t[s]:   4437.49
	Linear fluid (dielectric constant: 78.4, screening length: 8.12261 Bohr) occupying 0.426644 of unit cell:	Completed after 0 iterations at t[s]:   4450.64
	FillingsUpdate:  mu: -0.173289537  nElectrons: 466.000000  magneticMoment: [ Abs: 0.00000  Tot: -0.00000 ]
	SubspaceRotationAdjust: set factor to 0.394
ElecMinimize: Iter:  16  F: -4866.256541929389641  |grad|_K:  3.085e-08  alpha:  1.376e-01  linmin:  3.799e-06  t[s]:   4470.09
ElecMinimize: Converged (|Delta F|<1.000000e-07 for 2 iters).
Setting wave functions to eigenvectors of Hamiltonian
Converging empty states (this may take a while): |deigs|: 1.044e-04
Single-point solvation energy estimate, DeltaF = +0.000112926301881

Computing DFT-D3 correction:
# coordination-number Cu 6.796 6.796 6.796 6.796 9.209 9.209 9.209 9.209 9.138 9.138 9.138 9.138 9.209 9.209 9.209 9.209 7.811 6.998 6.999 7.813 9.144 9.144 9.144 9.147
# coordination-number C 3.373
# coordination-number O 1.069
# diagonal-C6 Cu 175.00 175.00 175.00 175.00 175.00 175.00 175.00 175.00 175.00 175.00 175.00 175.00 175.00 175.00 175.00 175.00 175.00 175.00 175.00 175.00 175.00 175.00 175.00 175.00
# diagonal-C6 C 23.46
# diagonal-C6 O 12.75
EvdW_6 =   -0.154188
EvdW_8 =   -0.224368

# Ionic positions in cartesian coordinates:
ion Cu   0.000167000000000   2.752075000000000   1.946880000000000 0
ion Cu  -2.383144000000000   6.880092999999999   1.946880000000000 0
ion Cu   4.766789000000000   2.752075000000000   1.946880000000000 0
ion Cu   2.383478000000000   6.880092999999999   1.946880000000000 0
ion Cu   2.383326000000000   4.128059000000000   9.737146000000001 0
ion Cu   4.766636999999999   0.000041000000000   9.737146000000001 0
ion Cu  -2.383297000000000   4.128059000000000   9.737146000000001 0
ion Cu   0.000014000000000   0.000041000000000   9.737146000000001 0
ion Cu   2.383264000000000   1.376083000000000   5.860082000000001 0
ion Cu  -0.000042999999999   5.504092999999999   5.860082000000001 0
ion Cu   7.149886000000000   1.376083000000000   5.860082000000001 0
ion Cu   4.766580000000000   5.504092999999999   5.860082000000001 0
ion Cu   0.000029000000000   2.751968000000000  13.615320000000002 0
ion Cu  -2.383283000000000   6.879985999999999  13.615320000000002 0
ion Cu   4.766651000000000   2.751968000000000  13.615320000000002 0
ion Cu   2.383340000000000   6.879985999999999  13.615320000000002 0
ion Cu   2.383211000000000   4.127927000000000  21.403309000000000 0
ion Cu  -0.000099999999999   8.255944999999999  21.403309000000000 0
ion Cu   7.149834000000000   4.127927000000000  21.403309000000000 0
ion Cu   4.766522000000001   8.255944999999999  21.403309000000000 0
ion Cu   2.383245000000000   1.375967000000000  17.492034000000004 0
ion Cu  -0.000067000000000   5.503984999999999  17.492034000000004 0
ion Cu   7.149867000000000   1.375967000000000  17.492034000000004 0
ion Cu   4.766556000000000   5.503984999999999  17.492034000000004 0
ion C   3.574867000000000   6.191935999999999  24.015184000000005 1  Linear 0 0 1
ion O   3.634964000000001   6.191935999999999  26.170536000000002 1  Linear 0 0 1

# Forces in Cartesian coordinates:
force Cu  -0.000203990565843   0.000111138180200  -0.000585049544670 0
force Cu   0.000207973185660   0.000247164942513  -0.000480054051718 0
force Cu  -0.000103749254601  -0.000301588361760  -0.000501368774888 0
force Cu  -0.000230875322334   0.000137482298185  -0.000802495817015 0
force Cu   0.000376201220006   0.000181835182680   0.000057178417551 0
force Cu   0.000078355811943  -0.000047628756680  -0.000865406615443 0
force Cu  -0.000006185669029  -0.000001811867518  -0.000467169098066 0
force Cu   0.000031808708651  -0.000412838383238   0.000030825116975 0
force Cu   0.000066607212133  -0.000039535725017   0.000471733030904 0
force Cu  -0.000053555739804  -0.000452473124892   0.000411522985668 0
force Cu   0.000367553588031   0.000290023768324   0.000416174976351 0
force Cu  -0.000343196512990   0.000185691291183   0.000802932923411 0
force Cu   0.000113112533816  -0.000078300267170  -0.000426318900059 0
force Cu   0.000523063533106   0.000094792289147  -0.000305081861664 0
force Cu   0.000193212948748  -0.000512868587462  -0.000320549940652 0
force Cu  -0.000666290726755   0.000407436037558   0.000065296176524 0
force Cu  -0.007535084869594  -0.013334590662654  -0.010436890204190 0
force Cu  -0.003171191898631   0.001823970098757  -0.001869662036222 0
force Cu   0.003571797003977  -0.002083136752482  -0.002197115397796 0
force Cu   0.007965709217780   0.013549123235556  -0.011181728773194 0
force Cu   0.000214047382584  -0.000089918490401   0.002903209830093 0
force Cu  -0.001063385827773  -0.000305121688446  -0.000810211579503 0
force Cu  -0.000284037307644   0.001080959036925  -0.000785399303139 0
force Cu   0.000361964032710  -0.000217524405914  -0.007949296003537 0
force C  -0.001793358809636  -0.000176102746322  -0.049220133094312 1  Linear 0 0 1
force O   0.001482841729466  -0.000065798436435   0.084116321665549 1  Linear 0 0 1

# Energy components:
   A_diel =       -0.0007578667999296
   Eewald =    26757.7330330662989581
       EH =    31231.5367182463014615
     Eloc =   -63773.0618779771757545
      Enl =      882.0757554361175607
     EvdW =       -0.3785553758383932
      Exc =     -471.2270996012415480
 Exc_core =        1.2259757916094864
       KE =      505.8412832430552726
-------------------------------------
     Etot =    -4866.2555250376699405
       TS =        0.0010168917197500
-------------------------------------
        F =    -4866.2565419293896412


Dumping 'jdft.fillings' ... done
Dumping 'jdft.wfns' ... done
Dumping 'jdft.fluidState' ... done
Dumping 'jdft.ionpos' ... done
Dumping 'jdft.lattice' ... done
Dumping 'jdft.eigenvals' ... done
Dumping 'jdft.eigStats' ... 
	eMin: -4.332538 at state 0 ( [ +0.000000 +0.000000 +0.000000 ] spin 1 )
	HOMO: -0.173497 at state 8 ( [ +0.166667 -0.333333 +0.000000 ] spin 1 )
	mu  : -0.173290
	LUMO: -0.173122 at state 39 ( [ +0.500000 +0.500000 +0.000000 ] spin -1 )
	eMax: +0.206476 at state 9 ( [ +0.166667 -0.166667 +0.000000 ] spin 1 )
	HOMO-LUMO gap: +0.000374
	Optical gap  : +0.003196 at state 39 ( [ +0.500000 +0.500000 +0.000000 ] spin -1 )
Dumping 'jdft.Ecomponents' ... done
IonicMinimize: Iter:   0  F: -4866.256541929389641  |grad|_K:  6.891e-02  t[s]:   4652.16

#--- Lowdin population analysis ---
# oxidation-state Cu +0.116 +0.116 +0.116 +0.118 +0.072 +0.073 +0.073 +0.072 +0.064 +0.064 +0.064 +0.063 +0.076 +0.075 +0.075 +0.080 -0.011 +0.127 +0.131 -0.009 +0.064 +0.063 +0.063 +0.062
# magnetic-moments Cu -0.000 -0.000 -0.000 -0.000 -0.000 -0.000 -0.000 -0.000 -0.000 -0.000 -0.000 -0.000 -0.000 -0.000 -0.000 -0.000 -0.000 -0.000 -0.000 -0.000 -0.000 -0.000 -0.000 -0.000
# oxidation-state C +0.380
# magnetic-moments C -0.000
# oxidation-state O -0.124
# magnetic-moments O -0.000


Computing DFT-D3 correction:
# coordination-number Cu 6.796 6.796 6.796 6.796 9.209 9.209 9.209 9.209 9.138 9.138 9.138 9.138 9.209 9.209 9.209 9.210 7.810 7.010 7.010 7.812 9.144 9.144 9.144 9.147
# coordination-number C 3.405
# coordination-number O 1.059
# diagonal-C6 Cu 175.00 175.00 175.00 175.00 175.00 175.00 175.00 175.00 175.00 175.00 175.00 175.00 175.00 175.00 175.00 175.00 175.00 175.00 175.00 175.00 175.00 175.00 175.00 175.00
# diagonal-C6 C 23.04
# diagonal-C6 O 12.76
EvdW_6 =   -0.154126
EvdW_8 =   -0.224361

-------- Electronic minimization -----------
	Linear fluid (dielectric constant: 78.4, screening length: 8.12261 Bohr) occupying 0.426551 of unit cell:	Completed after 20 iterations at t[s]:   4671.52
	FillingsUpdate:  mu: -0.164632326  nElectrons: 466.000000  magneticMoment: [ Abs: 0.00000  Tot: -0.00000 ]
ElecMinimize: Iter:   0  F: -4866.181790720565004  |grad|_K:  2.435e-05  alpha:  1.000e+00
	Linear fluid (dielectric constant: 78.4, screening length: 8.12261 Bohr) occupying 0.426666 of unit cell:	Completed after 24 iterations at t[s]:   4713.33
	Linear fluid (dielectric constant: 78.4, screening length: 8.12261 Bohr) occupying 0.425918 of unit cell:	Completed after 21 iterations at t[s]:   4728.32
	FillingsUpdate:  mu: -0.172705031  nElectrons: 466.000000  magneticMoment: [ Abs: 0.00000  Tot: -0.00000 ]
	SubspaceRotationAdjust: set factor to 0.268
ElecMinimize: Iter:   1  F: -4866.245773167131119  |grad|_K:  1.762e-05  alpha:  4.901e-01  linmin:  2.684e-04  t[s]:   4747.72
	Linear fluid (dielectric constant: 78.4, screening length: 8.12261 Bohr) occupying 0.435854 of unit cell:	Completed after 28 iterations at t[s]:   4767.73
	Linear fluid (dielectric constant: 78.4, screening length: 8.12261 Bohr) occupying 0.425898 of unit cell:	Completed after 25 iterations at t[s]:   4783.10
	FillingsUpdate:  mu: -0.174302564  nElectrons: 466.000000  magneticMoment: [ Abs: 0.00000  Tot: -0.00000 ]
	SubspaceRotationAdjust: set factor to 0.151
ElecMinimize: Iter:   2  F: -4866.251610155452909  |grad|_K:  7.932e-06  alpha:  8.810e-02  linmin:  7.918e-04  t[s]:   4802.54
	Linear fluid (dielectric constant: 78.4, screening length: 8.12261 Bohr) occupying 0.425902 of unit cell:	Completed after 19 iterations at t[s]:   4821.86
	Linear fluid (dielectric constant: 78.4, screening length: 8.12261 Bohr) occupying 0.425914 of unit cell:	Completed after 18 iterations at t[s]:   4836.82
	FillingsUpdate:  mu: -0.178709510  nElectrons: 466.000000  magneticMoment: [ Abs: 0.00000  Tot: -0.00000 ]
	SubspaceRotationAdjust: set factor to 0.197
ElecMinimize: Iter:   3  F: -4866.253836032551590  |grad|_K:  5.695e-06  alpha:  1.656e-01  linmin: -1.738e-05  t[s]:   4856.13
	Linear fluid (dielectric constant: 78.4, screening length: 8.12261 Bohr) occupying 0.425836 of unit cell:	Completed after 17 iterations at t[s]:   4875.09
	Linear fluid (dielectric constant: 78.4, screening length: 8.12261 Bohr) occupying 0.425821 of unit cell:	Completed after 11 iterations at t[s]:   4889.27
	FillingsUpdate:  mu: -0.180959610  nElectrons: 466.000000  magneticMoment: [ Abs: 0.00000  Tot: -0.00000 ]
	SubspaceRotationAdjust: set factor to 0.218
ElecMinimize: Iter:   4  F: -4866.255243509396678  |grad|_K:  4.009e-06  alpha:  1.959e-01  linmin:  3.924e-06  t[s]:   4908.69
	Linear fluid (dielectric constant: 78.4, screening length: 8.12261 Bohr) occupying 0.425728 of unit cell:	Completed after 19 iterations at t[s]:   4928.92
	Linear fluid (dielectric constant: 78.4, screening length: 8.12261 Bohr) occupying 0.425740 of unit cell:	Completed after 11 iterations at t[s]:   4943.06
	FillingsUpdate:  mu: -0.179830360  nElectrons: 466.000000  magneticMoment: [ Abs: 0.00000  Tot: -0.00000 ]
	SubspaceRotationAdjust: set factor to 0.237
ElecMinimize: Iter:   5  F: -4866.255850111102518  |grad|_K:  2.486e-06  alpha:  1.705e-01  linmin: -6.256e-06  t[s]:   4962.53
	Linear fluid (dielectric constant: 78.4, screening length: 8.12261 Bohr) occupying 0.425778 of unit cell:	Completed after 14 iterations at t[s]:   4981.35
	Linear fluid (dielectric constant: 78.4, screening length: 8.12261 Bohr) occupying 0.425784 of unit cell:	Completed after 9 iterations at t[s]:   4995.29
	FillingsUpdate:  mu: -0.179392473  nElectrons: 466.000000  magneticMoment: [ Abs: 0.00000  Tot: -0.00000 ]
	SubspaceRotationAdjust: set factor to 0.252
ElecMinimize: Iter:   6  F: -4866.256113296870353  |grad|_K:  2.179e-06  alpha:  1.922e-01  linmin:  2.382e-06  t[s]:   5014.86
	Linear fluid (dielectric constant: 78.4, screening length: 8.12261 Bohr) occupying 0.425791 of unit cell:	Completed after 17 iterations at t[s]:   5034.04
	Linear fluid (dielectric constant: 78.4, screening length: 8.12261 Bohr) occupying 0.425798 of unit cell:	Completed after 15 iterations at t[s]:   5048.61
	FillingsUpdate:  mu: -0.180534359  nElectrons: 466.000000  magneticMoment: [ Abs: 0.00000  Tot: -0.00000 ]
	SubspaceRotationAdjust: set factor to 0.303
ElecMinimize: Iter:   7  F: -4866.256429133501115  |grad|_K:  2.397e-06  alpha:  3.006e-01  linmin:  9.390e-06  t[s]:   5068.05
	Linear fluid (dielectric constant: 78.4, screening length: 8.12261 Bohr) occupying 0.425695 of unit cell:	Completed after 19 iterations at t[s]:   5087.24
	Linear fluid (dielectric constant: 78.4, screening length: 8.12261 Bohr) occupying 0.425747 of unit cell:	Completed after 17 iterations at t[s]:   5102.03
	FillingsUpdate:  mu: -0.181776439  nElectrons: 466.000000  magneticMoment: [ Abs: 0.00000  Tot: -0.00000 ]
	SubspaceRotationAdjust: set factor to 0.369
ElecMinimize: Iter:   8  F: -4866.256618355620958  |grad|_K:  1.538e-06  alpha:  1.490e-01  linmin: -2.181e-06  t[s]:   5121.53
	Linear fluid (dielectric constant: 78.4, screening length: 8.12261 Bohr) occupying 0.425757 of unit cell:	Completed after 14 iterations at t[s]:   5140.31
	Linear fluid (dielectric constant: 78.4, screening length: 8.12261 Bohr) occupying 0.425762 of unit cell:	Completed after 11 iterations at t[s]:   5154.54
	FillingsUpdate:  mu: -0.181166147  nElectrons: 466.000000  magneticMoment: [ Abs: 0.00000  Tot: -0.00000 ]
	SubspaceRotationAdjust: set factor to 0.419
ElecMinimize: Iter:   9  F: -4866.256738003274222  |grad|_K:  1.812e-06  alpha:  2.283e-01  linmin: -1.068e-06  t[s]:   5173.97
	Linear fluid (dielectric constant: 78.4, screening length: 8.12261 Bohr) occupying 0.425941 of unit cell:	Completed after 18 iterations at t[s]:   5193.16
	Linear fluid (dielectric constant: 78.4, screening length: 8.12261 Bohr) occupying 0.425920 of unit cell:	Completed after 9 iterations at t[s]:   5207.15
	FillingsUpdate:  mu: -0.180086286  nElectrons: 466.000000  magneticMoment: [ Abs: 0.00000  Tot: -0.00000 ]
	SubspaceRotationAdjust: set factor to 0.445
ElecMinimize: Iter:  10  F: -4866.256886044688144  |grad|_K:  1.311e-06  alpha:  2.034e-01  linmin:  1.243e-06  t[s]:   5226.76
	Linear fluid (dielectric constant: 78.4, screening length: 8.12261 Bohr) occupying 0.425988 of unit cell:	Completed after 12 iterations at t[s]:   5245.47
	Linear fluid (dielectric constant: 78.4, screening length: 8.12261 Bohr) occupying 0.425982 of unit cell:	Completed after 5 iterations at t[s]:   5259.14
	FillingsUpdate:  mu: -0.180782358  nElectrons: 466.000000  magneticMoment: [ Abs: 0.00000  Tot: -0.00000 ]
	SubspaceRotationAdjust: set factor to 0.505
ElecMinimize: Iter:  11  F: -4866.256956252817872  |grad|_K:  1.119e-06  alpha:  1.846e-01  linmin:  1.342e-06  t[s]:   5278.51
	Linear fluid (dielectric constant: 78.4, screening length: 8.12261 Bohr) occupying 0.426016 of unit cell:	Completed after 15 iterations at t[s]:   5297.43
	Linear fluid (dielectric constant: 78.4, screening length: 8.12261 Bohr) occupying 0.426014 of unit cell:	Completed after 7 iterations at t[s]:   5311.23
	FillingsUpdate:  mu: -0.180425606  nElectrons: 466.000000  magneticMoment: [ Abs: 0.00000  Tot: -0.00000 ]
	SubspaceRotationAdjust: set factor to 0.542
ElecMinimize: Iter:  12  F: -4866.257004131050962  |grad|_K:  9.526e-07  alpha:  1.728e-01  linmin:  5.119e-08  t[s]:   5330.63
	Linear fluid (dielectric constant: 78.4, screening length: 8.12261 Bohr) occupying 0.426068 of unit cell:	Completed after 12 iterations at t[s]:   5349.31
	Linear fluid (dielectric constant: 78.4, screening length: 8.12261 Bohr) occupying 0.426078 of unit cell:	Completed after 8 iterations at t[s]:   5363.24
	FillingsUpdate:  mu: -0.179544355  nElectrons: 466.000000  magneticMoment: [ Abs: 0.00000  Tot: -0.00000 ]
	SubspaceRotationAdjust: set factor to 0.552
ElecMinimize: Iter:  13  F: -4866.257045579324767  |grad|_K:  6.677e-07  alpha:  2.063e-01  linmin:  1.200e-06  t[s]:   5382.70
	Linear fluid (dielectric constant: 78.4, screening length: 8.12261 Bohr) occupying 0.426124 of unit cell:	Completed after 12 iterations at t[s]:   5401.34
	Linear fluid (dielectric constant: 78.4, screening length: 8.12261 Bohr) occupying 0.426106 of unit cell:	Completed after 12 iterations at t[s]:   5415.60
	FillingsUpdate:  mu: -0.179998750  nElectrons: 466.000000  magneticMoment: [ Abs: 0.00000  Tot: -0.00000 ]
	SubspaceRotationAdjust: set factor to 0.601
ElecMinimize: Iter:  14  F: -4866.257057930475639  |grad|_K:  4.542e-07  alpha:  1.252e-01  linmin: -6.434e-07  t[s]:   5435.05
	Linear fluid (dielectric constant: 78.4, screening length: 8.12261 Bohr) occupying 0.426127 of unit cell:	Completed after 8 iterations at t[s]:   5453.37
	Linear fluid (dielectric constant: 78.4, screening length: 8.12261 Bohr) occupying 0.426140 of unit cell:	Completed after 8 iterations at t[s]:   5467.36
	FillingsUpdate:  mu: -0.179793509  nElectrons: 466.000000  magneticMoment: [ Abs: 0.00000  Tot: -0.00000 ]
	SubspaceRotationAdjust: set factor to 0.635
ElecMinimize: Iter:  15  F: -4866.257067216843097  |grad|_K:  3.945e-07  alpha:  2.032e-01  linmin:  1.820e-06  t[s]:   5486.75
	Linear fluid (dielectric constant: 78.4, screening length: 8.12261 Bohr) occupying 0.426149 of unit cell:	Completed after 14 iterations at t[s]:   5505.62
	Linear fluid (dielectric constant: 78.4, screening length: 8.12261 Bohr) occupying 0.426146 of unit cell:	Completed after 8 iterations at t[s]:   5519.55
	FillingsUpdate:  mu: -0.179470749  nElectrons: 466.000000  magneticMoment: [ Abs: 0.00000  Tot: -0.00000 ]
	SubspaceRotationAdjust: set factor to 0.611
ElecMinimize: Iter:  16  F: -4866.257072278400301  |grad|_K:  3.307e-07  alpha:  1.469e-01  linmin:  4.273e-06  t[s]:   5538.98
	Linear fluid (dielectric constant: 78.4, screening length: 8.12261 Bohr) occupying 0.426171 of unit cell:	Completed after 11 iterations at t[s]:   5557.57
	Linear fluid (dielectric constant: 78.4, screening length: 8.12261 Bohr) occupying 0.426168 of unit cell:	Completed after 6 iterations at t[s]:   5571.26
	FillingsUpdate:  mu: -0.179447220  nElectrons: 466.000000  magneticMoment: [ Abs: 0.00000  Tot: -0.00000 ]
	SubspaceRotationAdjust: set factor to 0.477
ElecMinimize: Iter:  17  F: -4866.257075384204654  |grad|_K:  2.961e-07  alpha:  1.283e-01  linmin:  8.090e-06  t[s]:   5590.70
	Linear fluid (dielectric constant: 78.4, screening length: 8.12261 Bohr) occupying 0.426156 of unit cell:	Completed after 12 iterations at t[s]:   5609.32
	Linear fluid (dielectric constant: 78.4, screening length: 8.12261 Bohr) occupying 0.426159 of unit cell:	Completed after 6 iterations at t[s]:   5623.14
	FillingsUpdate:  mu: -0.179713722  nElectrons: 466.000000  magneticMoment: [ Abs: 0.00000  Tot: -0.00000 ]
	SubspaceRotationAdjust: set factor to 0.408
ElecMinimize: Iter:  18  F: -4866.257077274066432  |grad|_K:  1.778e-07  alpha:  9.764e-02  linmin: -1.606e-06  t[s]:   5642.62
	Linear fluid (dielectric constant: 78.4, screening length: 8.12261 Bohr) occupying 0.426160 of unit cell:	Completed after 5 iterations at t[s]:   5660.70
	Linear fluid (dielectric constant: 78.4, screening length: 8.12261 Bohr) occupying 0.426161 of unit cell:	Completed after 6 iterations at t[s]:   5674.41
	FillingsUpdate:  mu: -0.179863917  nElectrons: 466.000000  magneticMoment: [ Abs: 0.00000  Tot: -0.00000 ]
	SubspaceRotationAdjust: set factor to 0.462
ElecMinimize: Iter:  19  F: -4866.257078433482093  |grad|_K:  1.515e-07  alpha:  1.654e-01  linmin: -1.818e-06  t[s]:   5693.85
	Linear fluid (dielectric constant: 78.4, screening length: 8.12261 Bohr) occupying 0.426168 of unit cell:	Completed after 7 iterations at t[s]:   5712.13
	Linear fluid (dielectric constant: 78.4, screening length: 8.12261 Bohr) occupying 0.426168 of unit cell:	Completed after 0 iterations at t[s]:   5725.35
	FillingsUpdate:  mu: -0.179803937  nElectrons: 466.000000  magneticMoment: [ Abs: 0.00000  Tot: -0.00000 ]
	SubspaceRotationAdjust: set factor to 0.503
ElecMinimize: Iter:  20  F: -4866.257079228359544  |grad|_K:  1.130e-07  alpha:  1.563e-01  linmin:  1.312e-05  t[s]:   5744.71
	Linear fluid (dielectric constant: 78.4, screening length: 8.12261 Bohr) occupying 0.426169 of unit cell:	Completed after 6 iterations at t[s]:   5762.85
	Linear fluid (dielectric constant: 78.4, screening length: 8.12261 Bohr) occupying 0.426169 of unit cell:	Completed after 0 iterations at t[s]:   5776.07
	FillingsUpdate:  mu: -0.179772008  nElectrons: 466.000000  magneticMoment: [ Abs: 0.00000  Tot: -0.00000 ]
	SubspaceRotationAdjust: set factor to 0.497
ElecMinimize: Iter:  21  F: -4866.257079649946718  |grad|_K:  1.077e-07  alpha:  1.500e-01  linmin:  1.399e-05  t[s]:   5795.49
	Linear fluid (dielectric constant: 78.4, screening length: 8.12261 Bohr) occupying 0.426176 of unit cell:	Completed after 8 iterations at t[s]:   5813.84
	Linear fluid (dielectric constant: 78.4, screening length: 8.12261 Bohr) occupying 0.426176 of unit cell:	Completed after 0 iterations at t[s]:   5828.20
	FillingsUpdate:  mu: -0.179758607  nElectrons: 466.000000  magneticMoment: [ Abs: 0.00000  Tot: -0.00000 ]
	SubspaceRotationAdjust: set factor to 0.456
ElecMinimize: Iter:  22  F: -4866.257080032478370  |grad|_K:  8.289e-08  alpha:  1.502e-01  linmin: -6.430e-06  t[s]:   5847.67
	Linear fluid (dielectric constant: 78.4, screening length: 8.12261 Bohr) occupying 0.426173 of unit cell:	Completed after 6 iterations at t[s]:   5865.77
	Linear fluid (dielectric constant: 78.4, screening length: 8.12261 Bohr) occupying 0.426173 of unit cell:	Completed after 2 iterations at t[s]:   5879.15
	FillingsUpdate:  mu: -0.179779484  nElectrons: 466.000000  magneticMoment: [ Abs: 0.00000  Tot: -0.00000 ]
	SubspaceRotationAdjust: set factor to 0.476
ElecMinimize: Iter:  23  F: -4866.257080231528562  |grad|_K:  6.408e-08  alpha:  1.305e-01  linmin:  9.880e-06  t[s]:   5898.64
	Linear fluid (dielectric constant: 78.4, screening length: 8.12261 Bohr) occupying 0.426173 of unit cell:	Completed after 2 iterations at t[s]:   5916.51
	Linear fluid (dielectric constant: 78.4, screening length: 8.12261 Bohr) occupying 0.426172 of unit cell:	Completed after 2 iterations at t[s]:   5929.91
	FillingsUpdate:  mu: -0.179742404  nElectrons: 466.000000  magneticMoment: [ Abs: 0.00000  Tot: -0.00000 ]
	SubspaceRotationAdjust: set factor to 0.524
ElecMinimize: Iter:  24  F: -4866.257080417691213  |grad|_K:  5.223e-08  alpha:  2.067e-01  linmin: -7.904e-06  t[s]:   5949.35
	Linear fluid (dielectric constant: 78.4, screening length: 8.12261 Bohr) occupying 0.426171 of unit cell:	Completed after 3 iterations at t[s]:   5967.24
	Linear fluid (dielectric constant: 78.4, screening length: 8.12261 Bohr) occupying 0.426171 of unit cell:	Completed after 1 iterations at t[s]:   5980.54
	FillingsUpdate:  mu: -0.179757142  nElectrons: 466.000000  magneticMoment: [ Abs: 0.00000  Tot: -0.00000 ]
	SubspaceRotationAdjust: set factor to 0.561
[...]
ElecMinimize: Iter:   2  F: -4866.263154858042071  |grad|_K:  1.184e-07  alpha:  1.752e-01  linmin:  3.958e-05  t[s]:  13917.26
	Linear fluid (dielectric constant: 78.4, screening length: 8.12261 Bohr) occupying 0.421780 of unit cell:	Completed after 9 iterations at t[s]:  13935.73
	Linear fluid (dielectric constant: 78.4, screening length: 8.12261 Bohr) occupying 0.421780 of unit cell:	Completed after 2 iterations at t[s]:  13949.23
	FillingsUpdate:  mu: -0.174929543  nElectrons: 466.000000  magneticMoment: [ Abs: 0.00000  Tot: +0.00000 ]
	SubspaceRotationAdjust: set factor to 0.502
ElecMinimize: Iter:   3  F: -4866.263155303774511  |grad|_K:  8.688e-08  alpha:  1.436e-01  linmin:  9.618e-05  t[s]:  13968.66
	Linear fluid (dielectric constant: 78.4, screening length: 8.12261 Bohr) occupying 0.421778 of unit cell:	Completed after 6 iterations at t[s]:  13986.87
	Linear fluid (dielectric constant: 78.4, screening length: 8.12261 Bohr) occupying 0.421777 of unit cell:	Completed after 4 iterations at t[s]:  14000.50
	FillingsUpdate:  mu: -0.174966110  nElectrons: 466.000000  magneticMoment: [ Abs: 0.00000  Tot: +0.00000 ]
	SubspaceRotationAdjust: set factor to 0.542
ElecMinimize: Iter:   4  F: -4866.263155686602659  |grad|_K:  9.466e-08  alpha:  2.291e-01  linmin: -1.063e-04  t[s]:  14019.99
	Linear fluid (dielectric constant: 78.4, screening length: 8.12261 Bohr) occupying 0.421778 of unit cell:	Completed after 10 iterations at t[s]:  14038.53
	Linear fluid (dielectric constant: 78.4, screening length: 8.12261 Bohr) occupying 0.421777 of unit cell:	Completed after 8 iterations at t[s]:  14052.48
	FillingsUpdate:  mu: -0.175024560  nElectrons: 466.000000  magneticMoment: [ Abs: 0.00000  Tot: +0.00000 ]
	SubspaceRotationAdjust: set factor to 0.435
ElecMinimize: Iter:   5  F: -4866.263155945445760  |grad|_K:  6.874e-08  alpha:  1.274e-01  linmin:  2.688e-05  t[s]:  14072.05
	Linear fluid (dielectric constant: 78.4, screening length: 8.12261 Bohr) occupying 0.421775 of unit cell:	Completed after 7 iterations at t[s]:  14090.38
	Linear fluid (dielectric constant: 78.4, screening length: 8.12261 Bohr) occupying 0.421775 of unit cell:	Completed after 2 iterations at t[s]:  14103.84
	FillingsUpdate:  mu: -0.175055479  nElectrons: 466.000000  magneticMoment: [ Abs: 0.00000  Tot: +0.00000 ]
	SubspaceRotationAdjust: set factor to 0.345
ElecMinimize: Iter:   6  F: -4866.263156127616639  |grad|_K:  5.278e-08  alpha:  1.742e-01  linmin: -1.273e-04  t[s]:  14123.28
	Linear fluid (dielectric constant: 78.4, screening length: 8.12261 Bohr) occupying 0.421776 of unit cell:	Completed after 6 iterations at t[s]:  14141.45
	Linear fluid (dielectric constant: 78.4, screening length: 8.12261 Bohr) occupying 0.421777 of unit cell:	Completed after 2 iterations at t[s]:  14154.94
	FillingsUpdate:  mu: -0.174985114  nElectrons: 466.000000  magneticMoment: [ Abs: 0.00000  Tot: +0.00000 ]
	SubspaceRotationAdjust: set factor to 0.288
ElecMinimize: Iter:   7  F: -4866.263156250622160  |grad|_K:  4.407e-08  alpha:  1.982e-01  linmin:  6.626e-05  t[s]:  14174.51
	Linear fluid (dielectric constant: 78.4, screening length: 8.12261 Bohr) occupying 0.421776 of unit cell:	Completed after 2 iterations at t[s]:  14192.40
	Linear fluid (dielectric constant: 78.4, screening length: 8.12261 Bohr) occupying 0.421776 of unit cell:	Completed after 0 iterations at t[s]:  14205.57
	FillingsUpdate:  mu: -0.174977694  nElectrons: 466.000000  magneticMoment: [ Abs: 0.00000  Tot: +0.00000 ]
	SubspaceRotationAdjust: set factor to 0.337
ElecMinimize: Iter:   8  F: -4866.263156332821382  |grad|_K:  3.235e-08  alpha:  1.935e-01  linmin:  5.525e-05  t[s]:  14225.14
	Linear fluid (dielectric constant: 78.4, screening length: 8.12261 Bohr) occupying 0.421776 of unit cell:	Completed after 2 iterations at t[s]:  14242.96
	Linear fluid (dielectric constant: 78.4, screening length: 8.12261 Bohr) occupying 0.421776 of unit cell:	Completed after 2 iterations at t[s]:  14256.48
	FillingsUpdate:  mu: -0.174999827  nElectrons: 466.000000  magneticMoment: [ Abs: 0.00000  Tot: +0.00000 ]
	SubspaceRotationAdjust: set factor to 0.359
ElecMinimize: Iter:   9  F: -4866.263156361685105  |grad|_K:  1.645e-08  alpha:  1.244e-01  linmin:  1.292e-04  t[s]:  14276.07
ElecMinimize: Converged (|Delta F|<1.000000e-07 for 2 iters).
Setting wave functions to eigenvectors of Hamiltonian
Converging empty states (this may take a while): |deigs|: 8.307e-09

Computing DFT-D3 correction:
# coordination-number Cu 6.796 6.796 6.796 6.796 9.209 9.209 9.209 9.209 9.138 9.138 9.138 9.138 9.209 9.209 9.209 9.209 7.771 6.943 6.943 7.772 9.143 9.144 9.144 9.146
# coordination-number C 3.205
# coordination-number O 1.041
# diagonal-C6 Cu 175.00 175.00 175.00 175.00 175.00 175.00 175.00 175.00 175.00 175.00 175.00 175.00 175.00 175.00 175.00 175.00 175.00 175.00 175.00 175.00 175.00 175.00 175.00 175.00
# diagonal-C6 C 25.00
# diagonal-C6 O 12.78
EvdW_6 =   -0.154171
EvdW_8 =   -0.224239

# Ionic positions in cartesian coordinates:
ion Cu   0.000167000000000   2.752075000000000   1.946880000000000 0
ion Cu  -2.383144000000000   6.880092999999999   1.946880000000000 0
ion Cu   4.766789000000000   2.752075000000000   1.946880000000000 0
ion Cu   2.383478000000000   6.880092999999999   1.946880000000000 0
ion Cu   2.383326000000000   4.128059000000000   9.737146000000001 0
ion Cu   4.766636999999999   0.000041000000000   9.737146000000001 0
ion Cu  -2.383297000000000   4.128059000000000   9.737146000000001 0
ion Cu   0.000014000000000   0.000041000000000   9.737146000000001 0
ion Cu   2.383264000000000   1.376083000000000   5.860082000000001 0
ion Cu  -0.000042999999999   5.504092999999999   5.860082000000001 0
ion Cu   7.149886000000000   1.376083000000000   5.860082000000001 0
ion Cu   4.766580000000000   5.504092999999999   5.860082000000001 0
ion Cu   0.000029000000000   2.751968000000000  13.615320000000002 0
ion Cu  -2.383283000000000   6.879985999999999  13.615320000000002 0
ion Cu   4.766651000000000   2.751968000000000  13.615320000000002 0
ion Cu   2.383340000000000   6.879985999999999  13.615320000000002 0
ion Cu   2.383211000000000   4.127927000000000  21.403309000000000 0
ion Cu  -0.000099999999999   8.255944999999999  21.403309000000000 0
ion Cu   7.149834000000000   4.127927000000000  21.403309000000000 0
ion Cu   4.766522000000001   8.255944999999999  21.403309000000000 0
ion Cu   2.383245000000000   1.375967000000000  17.492034000000004 0
ion Cu  -0.000067000000000   5.503984999999999  17.492034000000004 0
ion Cu   7.149867000000000   1.375967000000000  17.492034000000004 0
ion Cu   4.766556000000000   5.503984999999999  17.492034000000004 0
ion C   3.574867000000000   6.191935999999999  24.264704840481343 1  Linear 0 0 1
ion O   3.634964000000001   6.191935999999999  26.485499530611278 1  Linear 0 0 1

# Forces in Cartesian coordinates:
force Cu  -0.000171221369906   0.000092009248599  -0.000539171535831 0
force Cu   0.000257906102778   0.000297909491563  -0.000364496059184 0
force Cu  -0.000122488102359  -0.000369994548989  -0.000385581871715 0
force Cu  -0.000266750517928   0.000158513556912  -0.000763753321014 0
force Cu   0.000317706460399   0.000085096098551   0.000160147899570 0
force Cu   0.000022312387424  -0.000015284201019  -0.000905438861216 0
force Cu   0.000059226433573  -0.000037998827825  -0.000440297914842 0
force Cu   0.000085947444796  -0.000315115178888   0.000132766626078 0
force Cu   0.000072413716699  -0.000042654563133   0.000342902327562 0
force Cu  -0.000019716650428  -0.000432329728975   0.000387309330428 0
force Cu   0.000367476684245   0.000248821908471   0.000392446825825 0
force Cu  -0.000382966832115   0.000208455369553   0.000726634756606 0
force Cu   0.000052838624930  -0.000044065218224  -0.000312853269832 0
force Cu   0.000559626330289   0.000101550517802  -0.000089080809576 0
force Cu   0.000206251810227  -0.000546969446617  -0.000113358502027 0
force Cu  -0.000734575048764   0.000446746450664  -0.000147861931964 0
force Cu  -0.001742046962549  -0.003327285785382   0.004077968973068 0
force Cu  -0.002277644241573   0.001313694041200  -0.000626337057226 0
force Cu   0.002750046335508  -0.001604079164785  -0.000777905947406 0
force Cu   0.002146943117667   0.003442231694337   0.003463203698894 0
force Cu  -0.000006883446533   0.000037683786881   0.003161114384280 0
force Cu  -0.000662120379340  -0.000259764550601  -0.000326212362256 0
force Cu  -0.000124762692800   0.000717482641792  -0.000307688009594 0
force Cu  -0.000018783333559  -0.000005852032163  -0.006688766725314 0
force C   0.000373651889986  -0.000100878671416   0.000249252927971 1  Linear 0 0 1
force O  -0.000627552192134  -0.000054932208635  -0.000217368103542 1  Linear 0 0 1

# Energy components:
   A_diel =       -0.0011776551181037
   Eewald =    26702.4957914150181750
       EH =    31175.7819330587917648
     Eloc =   -63661.9491361613036133
      Enl =      882.0558715548488635
     EvdW =       -0.3784099820124693
      Exc =     -471.1609553465995646
 Exc_core =        1.2259618538286909
       KE =      505.6680492646713105
-------------------------------------
     Etot =    -4866.2620719978758643
       TS =        0.0010843638089662
-------------------------------------
        F =    -4866.2631563616851054


Dumping 'jdft.fillings' ... done
Dumping 'jdft.wfns' ... done
Dumping 'jdft.fluidState' ... done
Dumping 'jdft.ionpos' ... done
Dumping 'jdft.lattice' ... done
Dumping 'jdft.eigenvals' ... done
Dumping 'jdft.eigStats' ... 
	eMin: -4.328432 at state 20 ( [ +0.000000 +0.000000 +0.000000 ] spin -1 )
	HOMO: -0.175053 at state 0 ( [ +0.000000 +0.000000 +0.000000 ] spin 1 )
	mu  : -0.175000
	LUMO: -0.174608 at state 25 ( [ +0.166667 +0.166667 +0.000000 ] spin -1 )
	eMax: +0.204610 at state 12 ( [ +0.333333 +0.333333 +0.000000 ] spin 1 )
	HOMO-LUMO gap: +0.000445
	Optical gap  : +0.003020 at state 39 ( [ +0.500000 +0.500000 +0.000000 ] spin -1 )
Dumping 'jdft.Ecomponents' ... done
IonicMinimize: Iter:   8  F: -4866.263156361685105  |grad|_K:  2.339e-04  alpha:  1.000e+00  linmin: -2.357e-03  t[s]:  14328.28

#--- Lowdin population analysis ---
# oxidation-state Cu +0.117 +0.117 +0.117 +0.120 +0.073 +0.073 +0.073 +0.073 +0.065 +0.064 +0.064 +0.063 +0.076 +0.075 +0.075 +0.080 -0.001 +0.127 +0.132 +0.000 +0.065 +0.063 +0.063 +0.061
# magnetic-moments Cu -0.000 +0.000 -0.000 +0.000 -0.000 +0.000 -0.000 -0.000 +0.000 +0.000 -0.000 -0.000 +0.000 +0.000 +0.000 -0.000 +0.000 +0.000 +0.000 -0.000 -0.000 -0.000 +0.000 -0.000
# oxidation-state C +0.367
# magnetic-moments C +0.000
# oxidation-state O -0.139
# magnetic-moments O +0.000


Computing DFT-D3 correction:
# coordination-number Cu 6.796 6.796 6.796 6.796 9.209 9.209 9.209 9.209 9.138 9.138 9.138 9.138 9.209 9.209 9.209 9.209 7.771 6.943 6.943 7.771 9.143 9.144 9.144 9.146
# coordination-number C 3.205
# coordination-number O 1.041
# diagonal-C6 Cu 175.00 175.00 175.00 175.00 175.00 175.00 175.00 175.00 175.00 175.00 175.00 175.00 175.00 175.00 175.00 175.00 175.00 175.00 175.00 175.00 175.00 175.00 175.00 175.00
# diagonal-C6 C 25.00
# diagonal-C6 O 12.78
EvdW_6 =   -0.154171
EvdW_8 =   -0.224239

-------- Electronic minimization -----------
	Linear fluid (dielectric constant: 78.4, screening length: 8.12261 Bohr) occupying 0.421767 of unit cell:	Completed after 6 iterations at t[s]:  14348.73
	FillingsUpdate:  mu: -0.175075560  nElectrons: 466.000000  magneticMoment: [ Abs: 0.00000  Tot: -0.00000 ]
ElecMinimize: Iter:   0  F: -4866.263156312128558  |grad|_K:  5.359e-08  alpha:  1.000e+00
	Linear fluid (dielectric constant: 78.4, screening length: 8.12261 Bohr) occupying 0.421786 of unit cell:	Completed after 11 iterations at t[s]:  14389.58
	Linear fluid (dielectric constant: 78.4, screening length: 8.12261 Bohr) occupying 0.421769 of unit cell:	Completed after 12 iterations at t[s]:  14403.90
	FillingsUpdate:  mu: -0.174994580  nElectrons: 466.000000  magneticMoment: [ Abs: 0.00000  Tot: -0.00000 ]
	SubspaceRotationAdjust: set factor to 0.461
ElecMinimize: Iter:   1  F: -4866.263156377069208  |grad|_K:  3.130e-08  alpha:  9.929e-02  linmin: -5.898e-05  t[s]:  14423.49
	Linear fluid (dielectric constant: 78.4, screening length: 8.12261 Bohr) occupying 0.421770 of unit cell:	Completed after 2 iterations at t[s]:  14441.42
	Linear fluid (dielectric constant: 78.4, screening length: 8.12261 Bohr) occupying 0.421771 of unit cell:	Completed after 2 iterations at t[s]:  14454.86
	FillingsUpdate:  mu: -0.174981996  nElectrons: 466.000000  magneticMoment: [ Abs: 0.00000  Tot: -0.00000 ]
	SubspaceRotationAdjust: set factor to 0.586
ElecMinimize: Iter:   2  F: -4866.263156423089640  |grad|_K:  1.585e-08  alpha:  1.976e-01  linmin: -2.206e-03  t[s]:  14474.43
ElecMinimize: Converged (|Delta F|<1.000000e-07 for 2 iters).
Setting wave functions to eigenvectors of Hamiltonian
Converging empty states (this may take a while): |deigs|: 3.579e-09

Computing DFT-D3 correction:
# coordination-number Cu 6.796 6.796 6.796 6.796 9.209 9.209 9.209 9.209 9.138 9.138 9.138 9.138 9.209 9.209 9.209 9.209 7.771 6.943 6.943 7.771 9.143 9.144 9.144 9.146
# coordination-number C 3.205
# coordination-number O 1.041
# diagonal-C6 Cu 175.00 175.00 175.00 175.00 175.00 175.00 175.00 175.00 175.00 175.00 175.00 175.00 175.00 175.00 175.00 175.00 175.00 175.00 175.00 175.00 175.00 175.00 175.00 175.00
# diagonal-C6 C 25.00
# diagonal-C6 O 12.78
EvdW_6 =   -0.154171
EvdW_8 =   -0.224239

# Ionic positions in cartesian coordinates:
ion Cu   0.000167000000000   2.752075000000000   1.946880000000000 0
ion Cu  -2.383144000000000   6.880092999999999   1.946880000000000 0
ion Cu   4.766789000000000   2.752075000000000   1.946880000000000 0
ion Cu   2.383478000000000   6.880092999999999   1.946880000000000 0
ion Cu   2.383326000000000   4.128059000000000   9.737146000000001 0
ion Cu   4.766636999999999   0.000041000000000   9.737146000000001 0
ion Cu  -2.383297000000000   4.128059000000000   9.737146000000001 0
ion Cu   0.000014000000000   0.000041000000000   9.737146000000001 0
ion Cu   2.383264000000000   1.376083000000000   5.860082000000001 0
ion Cu  -0.000042999999999   5.504092999999999   5.860082000000001 0
ion Cu   7.149886000000000   1.376083000000000   5.860082000000001 0
ion Cu   4.766580000000000   5.504092999999999   5.860082000000001 0
ion Cu   0.000029000000000   2.751968000000000  13.615320000000002 0
ion Cu  -2.383283000000000   6.879985999999999  13.615320000000002 0
ion Cu   4.766651000000000   2.751968000000000  13.615320000000002 0
ion Cu   2.383340000000000   6.879985999999999  13.615320000000002 0
ion Cu   2.383211000000000   4.127927000000000  21.403309000000000 0
ion Cu  -0.000099999999999   8.255944999999999  21.403309000000000 0
ion Cu   7.149834000000000   4.127927000000000  21.403309000000000 0
ion Cu   4.766522000000001   8.255944999999999  21.403309000000000 0
ion Cu   2.383245000000000   1.375967000000000  17.492034000000004 0
ion Cu  -0.000067000000000   5.503984999999999  17.492034000000004 0
ion Cu   7.149867000000000   1.375967000000000  17.492034000000004 0
ion Cu   4.766556000000000   5.503984999999999  17.492034000000004 0
ion C   3.574867000000000   6.191935999999999  24.265165294439914 1  Linear 0 0 1
ion O   3.634964000000001   6.191935999999999  26.485712846988591 1  Linear 0 0 1

# Forces in Cartesian coordinates:
force Cu  -0.000171449252575   0.000092131844178  -0.000540342034390 0
force Cu   0.000257312071938   0.000297178901529  -0.000364365564638 0
force Cu  -0.000122144032258  -0.000369118628908  -0.000385513048940 0
force Cu  -0.000266024250204   0.000158094262483  -0.000765895416506 0
force Cu   0.000317294148918   0.000084920541674   0.000210361477908 0
force Cu   0.000024841615636  -0.000016659403318  -0.000854915553830 0
force Cu   0.000055186646848  -0.000035599120651  -0.000391059211366 0
force Cu   0.000085827406551  -0.000314757560758   0.000182952153255 0
force Cu   0.000071606312139  -0.000042147158537   0.000407418710143 0
force Cu  -0.000018213820900  -0.000431552114924   0.000450827827966 0
force Cu   0.000367521553639   0.000247071771151   0.000455959607640 0
force Cu  -0.000380688243152   0.000207165032713   0.000789024593860 0
force Cu   0.000052392808845  -0.000043847163332  -0.000326919082669 0
force Cu   0.000560669897810   0.000104481330271  -0.000104641779963 0
force Cu   0.000204265969073  -0.000549306633403  -0.000128950930638 0
force Cu  -0.000736457414770   0.000447830070432  -0.000164967727456 0
force Cu  -0.001741645834186  -0.003326859441076   0.004081444397563 0
force Cu  -0.002293940018550   0.001323061710981  -0.000670058607341 0
force Cu   0.002766431941225  -0.001613605516436  -0.000820381149646 0
force Cu   0.002146787928080   0.003441730539297   0.003465456042040 0
force Cu  -0.000010409680058   0.000039746996989   0.003175945026976 0
force Cu  -0.000655885550933  -0.000260771881133  -0.000317980323873 0
force Cu  -0.000120801767524   0.000712686951640  -0.000299486434167 0
force Cu  -0.000024876692094  -0.000002465024806  -0.006688543561378 0
force C   0.000373738041656  -0.000103588525627   0.000068252057480 1  Linear 0 0 1
force O  -0.000624162801507  -0.000054449645939   0.000106606307746 1  Linear 0 0 1

# Energy components:
   A_diel =       -0.0011752409747836
   Eewald =    26702.4363284787505108
       EH =    31175.7294159249904624
     Eloc =   -63661.8371489210112486
      Enl =      882.0557356673012919
     EvdW =       -0.3784096603402655
      Exc =     -471.1609391851405917
 Exc_core =        1.2259618309356366
       KE =      505.6681592252799646
-------------------------------------
     Etot =    -4866.2620718802118063
       TS =        0.0010845428776882
-------------------------------------
        F =    -4866.2631564230896402


Dumping 'jdft.fillings' ... done
Dumping 'jdft.wfns' ... done
Dumping 'jdft.fluidState' ... done
Dumping 'jdft.ionpos' ... done
Dumping 'jdft.lattice' ... done
Dumping 'jdft.eigenvals' ... done
Dumping 'jdft.eigStats' ... 
	eMin: -4.328413 at state 0 ( [ +0.000000 +0.000000 +0.000000 ] spin 1 )
	HOMO: -0.175034 at state 0 ( [ +0.000000 +0.000000 +0.000000 ] spin 1 )
	mu  : -0.174982
	LUMO: -0.174590 at state 5 ( [ +0.166667 +0.166667 +0.000000 ] spin 1 )
	eMax: +0.204614 at state 12 ( [ +0.333333 +0.333333 +0.000000 ] spin 1 )
	HOMO-LUMO gap: +0.000443
	Optical gap  : +0.003020 at state 39 ( [ +0.500000 +0.500000 +0.000000 ] spin -1 )
Dumping 'jdft.Ecomponents' ... done
IonicMinimize: Iter:   9  F: -4866.263156423089640  |grad|_K:  8.951e-05  alpha:  1.000e+00  linmin: -9.010e-03  t[s]:  14526.69
IonicMinimize: Converged (|grad|_K<1.000000e-04).

#--- Lowdin population analysis ---
# oxidation-state Cu +0.117 +0.117 +0.117 +0.120 +0.073 +0.073 +0.073 +0.073 +0.064 +0.064 +0.064 +0.063 +0.076 +0.075 +0.075 +0.080 -0.001 +0.127 +0.132 +0.000 +0.065 +0.063 +0.063 +0.061
# magnetic-moments Cu +0.000 +0.000 +0.000 -0.000 +0.000 +0.000 -0.000 +0.000 -0.000 -0.000 -0.000 -0.000 -0.000 +0.000 +0.000 -0.000 -0.000 +0.000 +0.000 -0.000 +0.000 -0.000 +0.000 -0.000
# oxidation-state C +0.367
# magnetic-moments C -0.000
# oxidation-state O -0.140
# magnetic-moments O +0.000


Dumping 'jdft.n_up' ... done
Dumping 'jdft.n_dn' ... done
Dumping 'jdft.tau_up' ... done
Dumping 'jdft.tau_dn' ... done
Dumping 'jdft.eigenvals' ... done
Dumping 'jdft.eigStats' ... 
	eMin: -4.328413 at state 0 ( [ +0.000000 +0.000000 +0.000000 ] spin 1 )
	HOMO: -0.175034 at state 0 ( [ +0.000000 +0.000000 +0.000000 ] spin 1 )
	mu  : -0.174982
	LUMO: -0.174590 at state 5 ( [ +0.166667 +0.166667 +0.000000 ] spin 1 )
	eMax: +0.204614 at state 12 ( [ +0.333333 +0.333333 +0.000000 ] spin 1 )
	HOMO-LUMO gap: +0.000443
	Optical gap  : +0.003020 at state 39 ( [ +0.500000 +0.500000 +0.000000 ] spin -1 )
Dumping 'jdft.kPts' ... done
Dumping 'jdft.kMap' ... done
Dumping 'jdft.dosUp' ... done.
Dumping 'jdft.dosDn' ... done.
End date and time: Thu Feb 17 02:39:06 2022  (Duration: 0-4:02:41.59)
Done!
