
*************** JDFTx 1.6.0  ***************

Start date and time: Mon Dec  6 17:18:20 2021
Executable /projects/musgravc/apps/jdftx-1.6.1/build/jdftx with command-line: -i in
Running on hosts (process indices):  shas0802.rc.int.colorado.edu (0-23)
Divided in process groups (process indices):  0 (0)  1 (1)  2 (2)  3 (3)  4 (4)  5 (5)  6 (6)  7 (7)  8 (8)  9 (9)  10 (10)  11 (11)  12 (12)  13 (13)  14 (14)  15 (15)  16 (16)  17 (17)  18 (18)  19 (19)  20 (20)  21 (21)  22 (22)  23 (23)
Resource initialization completed at t[s]:      0.00
Run totals: 24 processes, 24 threads, 0 GPUs


Input parsed successfully to the following command list (including defaults):

basis kpoint-dependent
converge-empty-states yes
coords-type Cartesian
core-overlap-check none
coulomb-interaction Periodic
davidson-band-ratio 1.1
density-of-states Etol 1.000000e-06 Esigma 1.000000e-03 \
		Complete \
	Total \
	OrthoOrbital Ag 1   s \
	OrthoOrbital Ag 1   p \
	OrthoOrbital Ag 1   px \
	OrthoOrbital Ag 1   py \
	OrthoOrbital Ag 1   pz \
	OrthoOrbital Ag 1   d \
	OrthoOrbital Ag 1   dxy \
	OrthoOrbital Ag 1   dyz \
	OrthoOrbital Ag 1   dz2 \
	OrthoOrbital Ag 1   dxz \
	OrthoOrbital Ag 1   dx2-y2 \
	OrthoOrbital Ag 2   s \
	OrthoOrbital Ag 2   p \
	OrthoOrbital Ag 2   px \
	OrthoOrbital Ag 2   py \
	OrthoOrbital Ag 2   pz \
	OrthoOrbital Ag 2   d \
	OrthoOrbital Ag 2   dxy \
	OrthoOrbital Ag 2   dyz \
	OrthoOrbital Ag 2   dz2 \
	OrthoOrbital Ag 2   dxz \
	OrthoOrbital Ag 2   dx2-y2 \
	OrthoOrbital Ag 3   s \
	OrthoOrbital Ag 3   p \
	OrthoOrbital Ag 3   px \
	OrthoOrbital Ag 3   py \
	OrthoOrbital Ag 3   pz \
	OrthoOrbital Ag 3   d \
	OrthoOrbital Ag 3   dxy \
	OrthoOrbital Ag 3   dyz \
	OrthoOrbital Ag 3   dz2 \
	OrthoOrbital Ag 3   dxz \
	OrthoOrbital Ag 3   dx2-y2 \
	OrthoOrbital Ag 4   s \
	OrthoOrbital Ag 4   p \
	OrthoOrbital Ag 4   px \
	OrthoOrbital Ag 4   py \
	OrthoOrbital Ag 4   pz \
	OrthoOrbital Ag 4   d \
	OrthoOrbital Ag 4   dxy \
	OrthoOrbital Ag 4   dyz \
	OrthoOrbital Ag 4   dz2 \
	OrthoOrbital Ag 4   dxz \
	OrthoOrbital Ag 4   dx2-y2 \
	OrthoOrbital Ag 5   s \
	OrthoOrbital Ag 5   p \
	OrthoOrbital Ag 5   px \
	OrthoOrbital Ag 5   py \
	OrthoOrbital Ag 5   pz \
	OrthoOrbital Ag 5   d \
	OrthoOrbital Ag 5   dxy \
	OrthoOrbital Ag 5   dyz \
	OrthoOrbital Ag 5   dz2 \
	OrthoOrbital Ag 5   dxz \
	OrthoOrbital Ag 5   dx2-y2 \
	OrthoOrbital Ag 6   s \
	OrthoOrbital Ag 6   p \
	OrthoOrbital Ag 6   px \
	OrthoOrbital Ag 6   py \
	OrthoOrbital Ag 6   pz \
	OrthoOrbital Ag 6   d \
	OrthoOrbital Ag 6   dxy \
	OrthoOrbital Ag 6   dyz \
	OrthoOrbital Ag 6   dz2 \
	OrthoOrbital Ag 6   dxz \
	OrthoOrbital Ag 6   dx2-y2 \
	OrthoOrbital Ag 7   s \
	OrthoOrbital Ag 7   p \
	OrthoOrbital Ag 7   px \
	OrthoOrbital Ag 7   py \
	OrthoOrbital Ag 7   pz \
	OrthoOrbital Ag 7   d \
	OrthoOrbital Ag 7   dxy \
	OrthoOrbital Ag 7   dyz \
	OrthoOrbital Ag 7   dz2 \
	OrthoOrbital Ag 7   dxz \
	OrthoOrbital Ag 7   dx2-y2 \
	OrthoOrbital Ag 8   s \
	OrthoOrbital Ag 8   p \
	OrthoOrbital Ag 8   px \
	OrthoOrbital Ag 8   py \
	OrthoOrbital Ag 8   pz \
	OrthoOrbital Ag 8   d \
	OrthoOrbital Ag 8   dxy \
	OrthoOrbital Ag 8   dyz \
	OrthoOrbital Ag 8   dz2 \
	OrthoOrbital Ag 8   dxz \
	OrthoOrbital Ag 8   dx2-y2 \
	OrthoOrbital Ag 9   s \
	OrthoOrbital Ag 9   p \
	OrthoOrbital Ag 9   px \
	OrthoOrbital Ag 9   py \
	OrthoOrbital Ag 9   pz \
	OrthoOrbital Ag 9   d \
	OrthoOrbital Ag 9   dxy \
	OrthoOrbital Ag 9   dyz \
	OrthoOrbital Ag 9   dz2 \
	OrthoOrbital Ag 9   dxz \
	OrthoOrbital Ag 9   dx2-y2 \
	OrthoOrbital Ag 10   s \
	OrthoOrbital Ag 10   p \
	OrthoOrbital Ag 10   px \
	OrthoOrbital Ag 10   py \
	OrthoOrbital Ag 10   pz \
	OrthoOrbital Ag 10   d \
	OrthoOrbital Ag 10   dxy \
	OrthoOrbital Ag 10   dyz \
	OrthoOrbital Ag 10   dz2 \
	OrthoOrbital Ag 10   dxz \
	OrthoOrbital Ag 10   dx2-y2 \
	OrthoOrbital Ag 11   s \
	OrthoOrbital Ag 11   p \
	OrthoOrbital Ag 11   px \
	OrthoOrbital Ag 11   py \
	OrthoOrbital Ag 11   pz \
	OrthoOrbital Ag 11   d \
	OrthoOrbital Ag 11   dxy \
	OrthoOrbital Ag 11   dyz \
	OrthoOrbital Ag 11   dz2 \
	OrthoOrbital Ag 11   dxz \
	OrthoOrbital Ag 11   dx2-y2 \
	OrthoOrbital Ag 12   s \
	OrthoOrbital Ag 12   p \
	OrthoOrbital Ag 12   px \
	OrthoOrbital Ag 12   py \
	OrthoOrbital Ag 12   pz \
	OrthoOrbital Ag 12   d \
	OrthoOrbital Ag 12   dxy \
	OrthoOrbital Ag 12   dyz \
	OrthoOrbital Ag 12   dz2 \
	OrthoOrbital Ag 12   dxz \
	OrthoOrbital Ag 12   dx2-y2
dump End ElecDensity KEdensity BandEigs EigStats RhoAtom DOS Kpoints
dump Ionic State IonicPositions Lattice EigStats Ecomponents
dump 
dump 
dump 
dump 
dump 
dump 
dump 
dump 
dump-name jdft.$VAR
elec-cutoff 20
elec-eigen-algo Davidson
elec-ex-corr gga-PBE
elec-initial-magnetization 0.000000 no
elec-n-bands 137
elec-smearing Fermi 0.001
electronic-minimize  \
	dirUpdateScheme      FletcherReeves \
	linminMethod         DirUpdateRecommended \
	nIterations          100 \
	history              15 \
	knormThreshold       0 \
	energyDiffThreshold  1e-07 \
	nEnergyDiff          2 \
	alphaTstart          1 \
	alphaTmin            1e-10 \
	updateTestStepSize   yes \
	alphaTreduceFactor   0.1 \
	alphaTincreaseFactor 3 \
	nAlphaAdjustMax      3 \
	wolfeEnergy          0.0001 \
	wolfeGradient        0.9 \
	fdTest               no
exchange-regularization WignerSeitzTruncated
fluid None
fluid-ex-corr lda-TF lda-PZ
fluid-gummel-loop 10 1.000000e-05
fluid-minimize  \
	dirUpdateScheme      PolakRibiere \
	linminMethod         DirUpdateRecommended \
	nIterations          100 \
	history              15 \
	knormThreshold       0 \
	energyDiffThreshold  0 \
	nEnergyDiff          2 \
	alphaTstart          1 \
	alphaTmin            1e-10 \
	updateTestStepSize   yes \
	alphaTreduceFactor   0.1 \
	alphaTincreaseFactor 3 \
	nAlphaAdjustMax      3 \
	wolfeEnergy          0.0001 \
	wolfeGradient        0.9 \
	fdTest               no
fluid-solvent H2O 55.338 ScalarEOS \
	epsBulk 78.4 \
	pMol 0.92466 \
	epsInf 1.77 \
	Pvap 1.06736e-10 \
	sigmaBulk 4.62e-05 \
	Rvdw 2.61727 \
	Res 1.42 \
	tauNuc 343133 \
	poleEl 15 7 1
forces-output-coords Positions
ion Ag  15.331336999999998   7.665667999999999   7.665667999999999 1
ion Ag   0.000008000000000   3.832834000000000   3.832834000000000 1
ion Ag  -0.000008000000000   7.665667999999999   7.665667999999999 1
ion Ag   7.665667999999999   3.832833999999999   3.832834000000000 1
ion Ag   7.665675999999999   7.665668000000000   7.665668000000000 1
ion Ag   7.665661000000001  11.498502999999998  11.498502999999998 1
ion Ag  -3.832834000000001  11.498502999999999   7.665668000000000 1
ion Ag   3.832842000000000   7.665668999999999   3.832833999999999 1
ion Ag   3.832827000000000  11.498502999999999   7.665668000000000 1
ion Ag   3.832834000000000  15.331336999999998  11.498501999999998 1
ion Ag  11.498509999999998  11.498502999999999   7.665667999999999 1
ion Ag  -3.832841999999999   7.665668999999999   3.832833999999999 1
ion-species /projects/musgravc/apps/jdftx-1.6.0/build/pseudopotentials/GBRV_v1.5/$ID_pbe_v1.uspp
ion-species /projects/musgravc/apps/jdftx-1.6.0/build/pseudopotentials/GBRV_v1.5/$ID_pbe_v1.2.uspp
ion-species /projects/musgravc/apps/jdftx-1.6.0/build/pseudopotentials/GBRV_v1.5/$ID_pbe_v1.4.uspp
ion-species /projects/musgravc/apps/jdftx-1.6.0/build/pseudopotentials/GBRV_v1.5/$ID_pbe_v1.5.uspp
ion-width 0
ionic-minimize  \
	dirUpdateScheme      L-BFGS \
	linminMethod         DirUpdateRecommended \
	nIterations          0 \
	history              15 \
	knormThreshold       0.0001 \
	energyDiffThreshold  1e-06 \
	nEnergyDiff          2 \
	alphaTstart          1 \
	alphaTmin            1e-10 \
	updateTestStepSize   yes \
	alphaTreduceFactor   0.1 \
	alphaTincreaseFactor 3 \
	nAlphaAdjustMax      3 \
	wolfeEnergy          0.0001 \
	wolfeGradient        0.9 \
	fdTest               no
kpoint   0.000000000000   0.000000000000   0.000000000000  1.00000000000000
kpoint-folding 8 3 2 
latt-move-scale 0 0 0
latt-scale 1 1 1 
lattice  \
	   0.000000000000000   -7.665668000000000   15.331337000000000  \
	   3.832835000000000    7.665668000000000    7.665668000000000  \
	  -3.832835000000000    7.665668000000000    7.665668000000000 
lattice-minimize  \
	dirUpdateScheme      L-BFGS \
	linminMethod         DirUpdateRecommended \
	nIterations          0 \
	history              15 \
	knormThreshold       0 \
	energyDiffThreshold  1e-06 \
	nEnergyDiff          2 \
	alphaTstart          1 \
	alphaTmin            1e-10 \
	updateTestStepSize   yes \
	alphaTreduceFactor   0.1 \
	alphaTincreaseFactor 3 \
	nAlphaAdjustMax      3 \
	wolfeEnergy          0.0001 \
	wolfeGradient        0.9 \
	fdTest               no
lcao-params 30 1e-06 0.001
pcm-variant GLSSA13
spintype z-spin
subspace-rotation-factor 1 yes
symmetries none
symmetry-threshold 0.0001
van-der-waals D3


Applied RMS atom displacement 0 bohrs to make symmetries exact.

---------- Initializing the Grid ----------
R = 
[            0     -7.66567      15.3313  ]
[      3.83284      7.66567      7.66567  ]
[     -3.83284      7.66567      7.66567  ]
unit cell volume = 1351.36
G =
[ 1.20286e-17   0.819652  -0.819652  ]
[  -0.273218   0.273218   0.273218  ]
[   0.273218   0.136609   0.136609  ]
Minimum fftbox size, Smin = [  24  56  76  ]
Chosen fftbox size, S = [  24  56  80  ]

---------- Exchange Correlation functional ----------
Initalized PBE GGA exchange.
Initalized PBE GGA correlation.

---------- Setting up pseudopotentials ----------
Width of ionic core gaussian charges (only for fluid interactions / plotting) set to 0

Reading pseudopotential file '/projects/musgravc/apps/jdftx-1.6.0/build/pseudopotentials/GBRV_v1.5/ag_pbe_v1.4.uspp':
  Title: Ag.  Created by USPP 7.3.6 on 1-4-15
  Reference state energy: -147.606242.  19 valence electrons in orbitals:
    |400>  occupation: 2  eigenvalue: -3.637437
    |410>  occupation: 6  eigenvalue: -2.297267
    |420>  occupation: 10  eigenvalue: -0.417763
    |500>  occupation: 0.5  eigenvalue: -0.283525
    |510>  occupation: 0  eigenvalue: -0.122889
  lMax: 2  lLocal: 0  QijEcut: 5.5
  6 projectors sampled on a log grid with 717 points:
    l: 0  eig: -0.283528  rCut: 1.5
    l: 0  eig: -3.637440  rCut: 1.5
    l: 1  eig: -0.122892  rCut: 1.5
    l: 1  eig: -2.297267  rCut: 1.5
    l: 2  eig: -0.417762  rCut: 1.7
    l: 2  eig: -1.000000  rCut: 1.7
  Partial core density with radius 1.2
  Transforming core density to a uniform radial grid of dG=0.02 with 1176 points.
  Transforming local potential to a uniform radial grid of dG=0.02 with 1176 points.
  Transforming nonlocal projectors to a uniform radial grid of dG=0.02 with 432 points.
  Transforming density augmentations to a uniform radial grid of dG=0.02 with 1176 points.
  Transforming atomic orbitals to a uniform radial grid of dG=0.02 with 432 points.
  Core radius for overlap checks: 1.70 bohrs.

Initialized 1 species with 12 total atoms.

Folded 1 k-points by 8x3x2 to 48 k-points.

---------- Setting up k-points, bands, fillings ----------
No reducable k-points. 
Computing the number of bands and number of electrons
Calculating initial fillings.
nElectrons: 228.000000   nBands: 137   nStates: 96

----- Setting up reduced wavefunction bases (one per k-point) -----
average nbasis = 5775.771 , ideal nbasis = 5773.117

----- Initializing Supercell corresponding to k-point mesh -----
Lattice vector linear combinations in supercell:
[   8   0   0  ]
[   0   3   0  ]
[   0   0   2  ]
Supercell lattice vectors:
[  0  -22.997  30.6627  ]
[  30.6627  22.997  15.3313  ]
[  -30.6627  22.997  15.3313  ]

Initializing DFT-D3 calculator:
	Parameters set for gga-PBE functional
	s6:  1.000  s_r6:  1.217
	s8:  0.722  s_r8:  1.000
	Per-atom parameters loaded for:
	Ag:  sqrtQ[a0]:  5.443  Rcov[a0]:  2.173  CN: [ 0.00 0.97 ]

---------- Setting up ewald sum ----------
Optimum gaussian width for ewald sums = 2.914989 bohr.
Real space sum over 945 unit cells with max indices [  7  4  3  ]
Reciprocal space sum over 3519 terms with max indices [  4  8  11  ]

Computing DFT-D3 correction:
# coordination-number Ag 9.216 9.216 9.216 9.216 9.216 9.216 9.216 9.216 9.216 9.216 9.216 9.216
# diagonal-C6 Ag 268.61 268.61 268.61 268.61 268.61 268.61 268.61 268.61 268.61 268.61 268.61 268.61
EvdW_6 =   -0.100901
EvdW_8 =   -0.125265

---------- Allocating electronic variables ----------
Initializing wave functions:  linear combination of atomic orbitals
Ag pseudo-atom occupations:   s ( 2 1 )  p ( 6 0 )  d ( 10 )
	FillingsUpdate:  mu: +0.646135562  nElectrons: 228.000000  magneticMoment: [ Abs: 0.01235  Tot: -0.00002 ]
LCAOMinimize: Iter:   0  F: -1771.2413817785329684  |grad|_K:  4.692e-04  alpha:  1.000e+00
	FillingsUpdate:  mu: +0.658266416  nElectrons: 228.000000  magneticMoment: [ Abs: 0.00510  Tot: -0.00004 ]
LCAOMinimize: Iter:   1  F: -1771.3771729297504862  |grad|_K:  1.577e-05  alpha:  5.755e-01  linmin:  2.823e-01  cgtest: -1.042e+00  t[s]:     12.32
	FillingsUpdate:  mu: +0.658273524  nElectrons: 228.000000  magneticMoment: [ Abs: 0.00506  Tot: -0.00004 ]
LCAOMinimize: Iter:   2  F: -1771.3771792998174988  |grad|_K:  1.573e-05  alpha:  5.986e-01  linmin:  9.900e-06  cgtest:  9.758e-01  t[s]:     17.22
	FillingsUpdate:  mu: +0.657698106  nElectrons: 228.000000  magneticMoment: [ Abs: 0.00527  Tot: -0.00004 ]
LCAOMinimize: Iter:   3  F: -1771.3773407942637732  |grad|_K:  6.343e-06  alpha:  5.511e-01  linmin:  9.622e-04  cgtest: -5.891e-03  t[s]:     22.03
	FillingsUpdate:  mu: +0.657671229  nElectrons: 228.000000  magneticMoment: [ Abs: 0.00528  Tot: -0.00004 ]
LCAOMinimize: Iter:   4  F: -1771.3773471860185964  |grad|_K:  7.205e-07  alpha:  1.341e-01  linmin: -4.895e-03  cgtest:  5.053e-02  t[s]:     26.85
	FillingsUpdate:  mu: +0.657671556  nElectrons: 228.000000  magneticMoment: [ Abs: 0.00528  Tot: -0.00004 ]
LCAOMinimize: Iter:   5  F: -1771.3773473346554965  |grad|_K:  2.699e-07  alpha:  2.415e-01  linmin: -1.544e-05  cgtest: -4.660e-03  t[s]:     31.66
	FillingsUpdate:  mu: +0.657673266  nElectrons: 228.000000  magneticMoment: [ Abs: 0.00527  Tot: -0.00004 ]
LCAOMinimize: Iter:   6  F: -1771.3773473929518332  |grad|_K:  1.722e-07  alpha:  6.766e-01  linmin:  4.372e-05  cgtest:  6.041e-04  t[s]:     36.47
LCAOMinimize: Converged (|Delta F|<1.000000e-06 for 2 iters).


---- Citations for features of the code used in this run ----

   Software package:
      R. Sundararaman, K. Letchworth-Weaver, K.A. Schwarz, D. Gunceler, Y. Ozhabes and T.A. Arias, 'JDFTx: software for joint density-functional theory', SoftwareX 6, 278 (2017)

   gga-PBE exchange-correlation functional:
      J.P. Perdew, K. Burke and M. Ernzerhof, Phys. Rev. Lett. 77, 3865 (1996)

   Pseudopotentials:
      KF Garrity, JW Bennett, KM Rabe and D Vanderbilt, Comput. Mater. Sci. 81, 446 (2014)

   DFT-D3 dispersion correction:
      S. Grimme, J. Antony, S. Ehrlich and H. Krieg, J. Chem. Phys. 132, 154104 (2010)

   Total energy minimization with Auxiliary Hamiltonian:
      C. Freysoldt, S. Boeck, and J. Neugebauer, Phys. Rev. B 79, 241103(R) (2009)

   Linear-tetrahedron sampling for density of states:
      G. Lehmann and M. Taut, Phys. status solidi (b) 54, 469 (1972)

This list may not be complete. Please suggest additional citations or
report any other bugs at https://github.com/shankar1729/jdftx/issues

Initialization completed successfully at t[s]:     37.58


Computing DFT-D3 correction:
# coordination-number Ag 9.216 9.216 9.216 9.216 9.216 9.216 9.216 9.216 9.216 9.216 9.216 9.216
# diagonal-C6 Ag 268.61 268.61 268.61 268.61 268.61 268.61 268.61 268.61 268.61 268.61 268.61 268.61
EvdW_6 =   -0.100901
EvdW_8 =   -0.125265

-------- Electronic minimization -----------
	FillingsUpdate:  mu: +0.657673266  nElectrons: 228.000000  magneticMoment: [ Abs: 0.00527  Tot: -0.00004 ]
ElecMinimize: Iter:   0  F: -1771.377347392952288  |grad|_K:  3.998e-05  alpha:  1.000e+00
	FillingsUpdate:  mu: +0.661590263  nElectrons: 228.000000  magneticMoment: [ Abs: 0.00381  Tot: -0.00004 ]
	SubspaceRotationAdjust: set factor to 1
ElecMinimize: Iter:   1  F: -1771.426723067695548  |grad|_K:  2.604e-05  alpha:  4.031e-01  linmin:  6.040e-05  t[s]:     50.56
	FillingsUpdate:  mu: +0.656939704  nElectrons: 228.000000  magneticMoment: [ Abs: 0.00264  Tot: -0.00004 ]
	SubspaceRotationAdjust: set factor to 0.973
ElecMinimize: Iter:   2  F: -1771.441138176114009  |grad|_K:  1.083e-05  alpha:  2.765e-01  linmin:  6.954e-06  t[s]:     58.58
	FillingsUpdate:  mu: +0.656247628  nElectrons: 228.000000  magneticMoment: [ Abs: 0.00158  Tot: -0.00003 ]
	SubspaceRotationAdjust: set factor to 1.03
ElecMinimize: Iter:   3  F: -1771.444702979316617  |grad|_K:  5.011e-06  alpha:  3.955e-01  linmin:  2.530e-05  t[s]:     66.56
	FillingsUpdate:  mu: +0.656453502  nElectrons: 228.000000  magneticMoment: [ Abs: 0.00086  Tot: -0.00002 ]
	SubspaceRotationAdjust: set factor to 1.23
ElecMinimize: Iter:   4  F: -1771.445552384810753  |grad|_K:  2.515e-06  alpha:  4.407e-01  linmin:  8.635e-07  t[s]:     74.81
	FillingsUpdate:  mu: +0.656481699  nElectrons: 228.000000  magneticMoment: [ Abs: 0.00043  Tot: -0.00001 ]
	SubspaceRotationAdjust: set factor to 1.2
ElecMinimize: Iter:   5  F: -1771.445768381349126  |grad|_K:  1.482e-06  alpha:  4.444e-01  linmin:  3.209e-06  t[s]:     82.80
	FillingsUpdate:  mu: +0.656537983  nElectrons: 228.000000  magneticMoment: [ Abs: 0.00032  Tot: -0.00000 ]
	SubspaceRotationAdjust: set factor to 0.748
ElecMinimize: Iter:   6  F: -1771.445800588939392  |grad|_K:  1.007e-06  alpha:  1.910e-01  linmin:  8.277e-06  t[s]:     90.84
	FillingsUpdate:  mu: +0.656569232  nElectrons: 228.000000  magneticMoment: [ Abs: 0.00021  Tot: -0.00000 ]
	SubspaceRotationAdjust: set factor to 0.536
ElecMinimize: Iter:   7  F: -1771.445818111833887  |grad|_K:  5.343e-07  alpha:  2.250e-01  linmin: -3.315e-08  t[s]:     98.78
	FillingsUpdate:  mu: +0.656537327  nElectrons: 228.000000  magneticMoment: [ Abs: 0.00014  Tot: -0.00000 ]
	SubspaceRotationAdjust: set factor to 0.641
ElecMinimize: Iter:   8  F: -1771.445825119611754  |grad|_K:  3.095e-07  alpha:  3.194e-01  linmin:  4.383e-06  t[s]:    106.98
	FillingsUpdate:  mu: +0.656545987  nElectrons: 228.000000  magneticMoment: [ Abs: 0.00009  Tot: -0.00000 ]
	SubspaceRotationAdjust: set factor to 0.539
ElecMinimize: Iter:   9  F: -1771.445827745653787  |grad|_K:  1.934e-07  alpha:  3.567e-01  linmin:  1.244e-06  t[s]:    115.02
	FillingsUpdate:  mu: +0.656542034  nElectrons: 228.000000  magneticMoment: [ Abs: 0.00006  Tot: -0.00000 ]
	SubspaceRotationAdjust: set factor to 0.476
ElecMinimize: Iter:  10  F: -1771.445828678328553  |grad|_K:  1.224e-07  alpha:  3.243e-01  linmin:  6.351e-07  t[s]:    123.02
	FillingsUpdate:  mu: +0.656533156  nElectrons: 228.000000  magneticMoment: [ Abs: 0.00004  Tot: +0.00000 ]
	SubspaceRotationAdjust: set factor to 0.553
ElecMinimize: Iter:  11  F: -1771.445829102053949  |grad|_K:  7.690e-08  alpha:  3.681e-01  linmin:  5.528e-07  t[s]:    131.11
	FillingsUpdate:  mu: +0.656536954  nElectrons: 228.000000  magneticMoment: [ Abs: 0.00002  Tot: +0.00000 ]
	SubspaceRotationAdjust: set factor to 0.52
ElecMinimize: Iter:  12  F: -1771.445829262629331  |grad|_K:  4.446e-08  alpha:  3.533e-01  linmin:  2.118e-07  t[s]:    139.22
	FillingsUpdate:  mu: +0.656535458  nElectrons: 228.000000  magneticMoment: [ Abs: 0.00002  Tot: +0.00000 ]
	SubspaceRotationAdjust: set factor to 0.479
ElecMinimize: Iter:  13  F: -1771.445829318466394  |grad|_K:  2.872e-08  alpha:  3.674e-01  linmin:  3.009e-07  t[s]:    147.28
	FillingsUpdate:  mu: +0.656534277  nElectrons: 228.000000  magneticMoment: [ Abs: 0.00001  Tot: -0.00000 ]
	SubspaceRotationAdjust: set factor to 0.514
ElecMinimize: Iter:  14  F: -1771.445829340881573  |grad|_K:  1.801e-08  alpha:  3.537e-01  linmin: -1.573e-07  t[s]:    155.31
ElecMinimize: Converged (|Delta F|<1.000000e-07 for 2 iters).
Setting wave functions to eigenvectors of Hamiltonian
Converging empty states (this may take a while): |deigs|: 6.668e-04

Computing DFT-D3 correction:
# coordination-number Ag 9.216 9.216 9.216 9.216 9.216 9.216 9.216 9.216 9.216 9.216 9.216 9.216
# diagonal-C6 Ag 268.61 268.61 268.61 268.61 268.61 268.61 268.61 268.61 268.61 268.61 268.61 268.61
EvdW_6 =   -0.100901
EvdW_8 =   -0.125265

# Ionic positions in cartesian coordinates:
ion Ag  15.331336999999998   7.665667999999999   7.665667999999999 1
ion Ag   0.000008000000000   3.832834000000000   3.832834000000000 1
ion Ag  -0.000008000000000   7.665667999999999   7.665667999999999 1
ion Ag   7.665667999999999   3.832833999999999   3.832834000000000 1
ion Ag   7.665675999999999   7.665668000000000   7.665668000000000 1
ion Ag   7.665661000000001  11.498502999999998  11.498502999999998 1
ion Ag  -3.832834000000001  11.498502999999999   7.665668000000000 1
ion Ag   3.832842000000000   7.665668999999999   3.832833999999999 1
ion Ag   3.832827000000000  11.498502999999999   7.665668000000000 1
ion Ag   3.832834000000000  15.331336999999998  11.498501999999998 1
ion Ag  11.498509999999998  11.498502999999999   7.665667999999999 1
ion Ag  -3.832841999999999   7.665668999999999   3.832833999999999 1

# Forces in Cartesian coordinates:
force Ag  -0.000020729991438  -0.000010692377393  -0.000010680414866 1
force Ag  -0.000064247881539   0.000015523520324   0.000014816423090 1
force Ag   0.000047091790136  -0.000023878427353  -0.000023175210686 1
force Ag   0.000021109531590   0.000010311992365   0.000010300899914 1
force Ag  -0.000026394277821   0.000034577965803   0.000033969295215 1
force Ag   0.000043121806357  -0.000025783048998  -0.000025298430490 1
force Ag  -0.000009654116705  -0.000005200625776  -0.000005196260139 1
force Ag  -0.000032142277719   0.000031655580224   0.000030963220905 1
force Ag   0.000068148734209  -0.000013196349226  -0.000012528351067 1
force Ag   0.000009999503495   0.000004787878033   0.000004732225122 1
force Ag  -0.000058461235883   0.000018302985867   0.000017792954989 1
force Ag   0.000022129485670  -0.000036371295596  -0.000035863086315 1

# Energy components:
   Eewald =    -1295.4918273135544950
       EH =      425.1673315048572022
     Eloc =    -1179.2658809472854955
      Enl =       47.3011397679025265
     EvdW =       -0.2261660919736483
      Exc =     -174.0354416752574878
 Exc_core =        2.4980477393067639
       KE =      402.6071522012891251
-------------------------------------
     Etot =    -1771.4456448147154788
       TS =        0.0001845261660730
-------------------------------------
        F =    -1771.4458293408815734


Dumping 'jdft.fillings' ... done
Dumping 'jdft.wfns' ... done
Dumping 'jdft.ionpos' ... done
Dumping 'jdft.lattice' ... done
Dumping 'jdft.eigenvals' ... done
Dumping 'jdft.eigStats' ... 
	eMin: -2.725882 at state 48 ( [ +0.000000 +0.000000 +0.000000 ] spin -1 )
	HOMO: +0.656174 at state 77 ( [ +0.500000 -0.333333 +0.500000 ] spin -1 )
	mu  : +0.656534
	LUMO: +0.657605 at state 51 ( [ +0.000000 +0.333333 +0.500000 ] spin -1 )
	eMax: +1.175832 at state 1 ( [ +0.000000 +0.000000 +0.500000 ] spin 1 )
	HOMO-LUMO gap: +0.001431
	Optical gap  : +0.018298 at state 77 ( [ +0.500000 -0.333333 +0.500000 ] spin -1 )
Dumping 'jdft.Ecomponents' ... done
IonicMinimize: Iter:   0  F: -1771.445829340881573  |grad|_K:  2.928e-05  t[s]:    180.10
IonicMinimize: Converged (|grad|_K<1.000000e-04).

#--- Lowdin population analysis ---
# oxidation-state Ag +0.004 +0.004 +0.004 +0.004 +0.004 +0.004 +0.004 +0.004 +0.004 +0.004 +0.004 +0.004
# magnetic-moments Ag -0.000 +0.000 -0.000 +0.000 -0.000 -0.000 -0.000 -0.000 -0.000 +0.000 -0.000 +0.000


Dumping 'jdft.n_up' ... done
Dumping 'jdft.n_dn' ... done
Dumping 'jdft.tau_up' ... done
Dumping 'jdft.tau_dn' ... done
Dumping 'jdft.eigenvals' ... done
Dumping 'jdft.eigStats' ... 
	eMin: -2.725882 at state 48 ( [ +0.000000 +0.000000 +0.000000 ] spin -1 )
	HOMO: +0.656174 at state 77 ( [ +0.500000 -0.333333 +0.500000 ] spin -1 )
	mu  : +0.656534
	LUMO: +0.657605 at state 51 ( [ +0.000000 +0.333333 +0.500000 ] spin -1 )
	eMax: +1.175832 at state 1 ( [ +0.000000 +0.000000 +0.500000 ] spin 1 )
	HOMO-LUMO gap: +0.001431
	Optical gap  : +0.018298 at state 77 ( [ +0.500000 -0.333333 +0.500000 ] spin -1 )
Dumping 'jdft.kPts' ... done
Dumping 'jdft.dosUp' ... done.
Dumping 'jdft.dosDn' ... done.
End date and time: Mon Dec  6 17:21:27 2021  (Duration: 0-0:03:07.38)
Done!
ipcrm: permission denied for id (113181351)
ipcrm: permission denied for id (113804040)
ipcrm: permission denied for id (114426703)
ipcrm: permission denied for id (115344208)
ipcrm: permission denied for id (118817617)
