
*************** JDFTx 1.7.0 (git hash 5f12716a) ***************

Start date and time: Sat Sep 10 11:30:09 2022
Executable /home/nisi6161/jdftx_alpine/build/jdftx with command-line: -i in
Running on hosts (process indices):  c3cpu-a2-u11-3.rc.int.colorado.edu (0-23)
Divided in process groups (process indices):  0 (0)  1 (1)  2 (2)  3 (3)  4 (4)  5 (5)  6 (6)  7 (7)  8 (8)  9 (9)  10 (10)  11 (11)  12 (12)  13 (13)  14 (14)  15 (15)  16 (16)  17 (17)  18 (18)  19 (19)  20 (20)  21 (21)  22 (22)  23 (23)
Resource initialization completed at t[s]:      0.00
Run totals: 24 processes, 64 threads, 0 GPUs


Input parsed successfully to the following command list (including defaults):

basis kpoint-dependent
converge-empty-states yes
coords-type Cartesian
core-overlap-check none
coulomb-interaction Periodic
davidson-band-ratio 1.1
density-of-states Etol 1.000000e-06 Esigma 1.000000e-03 \
		Complete \
	Total \
	OrthoOrbital Cu 1   s \
	OrthoOrbital Cu 1   p \
	OrthoOrbital Cu 1   px \
	OrthoOrbital Cu 1   py \
	OrthoOrbital Cu 1   pz \
	OrthoOrbital Cu 1   d \
	OrthoOrbital Cu 1   dxy \
	OrthoOrbital Cu 1   dyz \
	OrthoOrbital Cu 1   dz2 \
	OrthoOrbital Cu 1   dxz \
	OrthoOrbital Cu 1   dx2-y2 \
	OrthoOrbital Cu 2   s \
	OrthoOrbital Cu 2   p \
	OrthoOrbital Cu 2   px \
	OrthoOrbital Cu 2   py \
	OrthoOrbital Cu 2   pz \
	OrthoOrbital Cu 2   d \
	OrthoOrbital Cu 2   dxy \
	OrthoOrbital Cu 2   dyz \
	OrthoOrbital Cu 2   dz2 \
	OrthoOrbital Cu 2   dxz \
	OrthoOrbital Cu 2   dx2-y2 \
	OrthoOrbital Cu 3   s \
	OrthoOrbital Cu 3   p \
	OrthoOrbital Cu 3   px \
	OrthoOrbital Cu 3   py \
	OrthoOrbital Cu 3   pz \
	OrthoOrbital Cu 3   d \
	OrthoOrbital Cu 3   dxy \
	OrthoOrbital Cu 3   dyz \
	OrthoOrbital Cu 3   dz2 \
	OrthoOrbital Cu 3   dxz \
	OrthoOrbital Cu 3   dx2-y2 \
	OrthoOrbital Cu 4   s \
	OrthoOrbital Cu 4   p \
	OrthoOrbital Cu 4   px \
	OrthoOrbital Cu 4   py \
	OrthoOrbital Cu 4   pz \
	OrthoOrbital Cu 4   d \
	OrthoOrbital Cu 4   dxy \
	OrthoOrbital Cu 4   dyz \
	OrthoOrbital Cu 4   dz2 \
	OrthoOrbital Cu 4   dxz \
	OrthoOrbital Cu 4   dx2-y2 \
	OrthoOrbital Cu 5   s \
	OrthoOrbital Cu 5   p \
	OrthoOrbital Cu 5   px \
	OrthoOrbital Cu 5   py \
	OrthoOrbital Cu 5   pz \
	OrthoOrbital Cu 5   d \
	OrthoOrbital Cu 5   dxy \
	OrthoOrbital Cu 5   dyz \
	OrthoOrbital Cu 5   dz2 \
	OrthoOrbital Cu 5   dxz \
	OrthoOrbital Cu 5   dx2-y2 \
	OrthoOrbital Cu 6   s \
	OrthoOrbital Cu 6   p \
	OrthoOrbital Cu 6   px \
	OrthoOrbital Cu 6   py \
	OrthoOrbital Cu 6   pz \
	OrthoOrbital Cu 6   d \
	OrthoOrbital Cu 6   dxy \
	OrthoOrbital Cu 6   dyz \
	OrthoOrbital Cu 6   dz2 \
	OrthoOrbital Cu 6   dxz \
	OrthoOrbital Cu 6   dx2-y2 \
	OrthoOrbital Cu 7   s \
	OrthoOrbital Cu 7   p \
	OrthoOrbital Cu 7   px \
	OrthoOrbital Cu 7   py \
	OrthoOrbital Cu 7   pz \
	OrthoOrbital Cu 7   d \
	OrthoOrbital Cu 7   dxy \
	OrthoOrbital Cu 7   dyz \
	OrthoOrbital Cu 7   dz2 \
	OrthoOrbital Cu 7   dxz \
	OrthoOrbital Cu 7   dx2-y2 \
	OrthoOrbital Cu 8   s \
	OrthoOrbital Cu 8   p \
	OrthoOrbital Cu 8   px \
	OrthoOrbital Cu 8   py \
	OrthoOrbital Cu 8   pz \
	OrthoOrbital Cu 8   d \
	OrthoOrbital Cu 8   dxy \
	OrthoOrbital Cu 8   dyz \
	OrthoOrbital Cu 8   dz2 \
	OrthoOrbital Cu 8   dxz \
	OrthoOrbital Cu 8   dx2-y2 \
	OrthoOrbital Cu 9   s \
	OrthoOrbital Cu 9   p \
	OrthoOrbital Cu 9   px \
	OrthoOrbital Cu 9   py \
	OrthoOrbital Cu 9   pz \
	OrthoOrbital Cu 9   d \
	OrthoOrbital Cu 9   dxy \
	OrthoOrbital Cu 9   dyz \
	OrthoOrbital Cu 9   dz2 \
	OrthoOrbital Cu 9   dxz \
	OrthoOrbital Cu 9   dx2-y2 \
	OrthoOrbital Cu 10   s \
	OrthoOrbital Cu 10   p \
	OrthoOrbital Cu 10   px \
	OrthoOrbital Cu 10   py \
	OrthoOrbital Cu 10   pz \
	OrthoOrbital Cu 10   d \
	OrthoOrbital Cu 10   dxy \
	OrthoOrbital Cu 10   dyz \
	OrthoOrbital Cu 10   dz2 \
	OrthoOrbital Cu 10   dxz \
	OrthoOrbital Cu 10   dx2-y2 \
	OrthoOrbital Cu 11   s \
	OrthoOrbital Cu 11   p \
	OrthoOrbital Cu 11   px \
	OrthoOrbital Cu 11   py \
	OrthoOrbital Cu 11   pz \
	OrthoOrbital Cu 11   d \
	OrthoOrbital Cu 11   dxy \
	OrthoOrbital Cu 11   dyz \
	OrthoOrbital Cu 11   dz2 \
	OrthoOrbital Cu 11   dxz \
	OrthoOrbital Cu 11   dx2-y2 \
	OrthoOrbital Cu 12   s \
	OrthoOrbital Cu 12   p \
	OrthoOrbital Cu 12   px \
	OrthoOrbital Cu 12   py \
	OrthoOrbital Cu 12   pz \
	OrthoOrbital Cu 12   d \
	OrthoOrbital Cu 12   dxy \
	OrthoOrbital Cu 12   dyz \
	OrthoOrbital Cu 12   dz2 \
	OrthoOrbital Cu 12   dxz \
	OrthoOrbital Cu 12   dx2-y2 \
	OrthoOrbital Cu 13   s \
	OrthoOrbital Cu 13   p \
	OrthoOrbital Cu 13   px \
	OrthoOrbital Cu 13   py \
	OrthoOrbital Cu 13   pz \
	OrthoOrbital Cu 13   d \
	OrthoOrbital Cu 13   dxy \
	OrthoOrbital Cu 13   dyz \
	OrthoOrbital Cu 13   dz2 \
	OrthoOrbital Cu 13   dxz \
	OrthoOrbital Cu 13   dx2-y2 \
	OrthoOrbital Cu 14   s \
	OrthoOrbital Cu 14   p \
	OrthoOrbital Cu 14   px \
	OrthoOrbital Cu 14   py \
	OrthoOrbital Cu 14   pz \
	OrthoOrbital Cu 14   d \
	OrthoOrbital Cu 14   dxy \
	OrthoOrbital Cu 14   dyz \
	OrthoOrbital Cu 14   dz2 \
	OrthoOrbital Cu 14   dxz \
	OrthoOrbital Cu 14   dx2-y2 \
	OrthoOrbital Cu 15   s \
	OrthoOrbital Cu 15   p \
	OrthoOrbital Cu 15   px \
	OrthoOrbital Cu 15   py \
	OrthoOrbital Cu 15   pz \
	OrthoOrbital Cu 15   d \
	OrthoOrbital Cu 15   dxy \
	OrthoOrbital Cu 15   dyz \
	OrthoOrbital Cu 15   dz2 \
	OrthoOrbital Cu 15   dxz \
	OrthoOrbital Cu 15   dx2-y2 \
	OrthoOrbital Cu 16   s \
	OrthoOrbital Cu 16   p \
	OrthoOrbital Cu 16   px \
	OrthoOrbital Cu 16   py \
	OrthoOrbital Cu 16   pz \
	OrthoOrbital Cu 16   d \
	OrthoOrbital Cu 16   dxy \
	OrthoOrbital Cu 16   dyz \
	OrthoOrbital Cu 16   dz2 \
	OrthoOrbital Cu 16   dxz \
	OrthoOrbital Cu 16   dx2-y2 \
	OrthoOrbital Cu 17   s \
	OrthoOrbital Cu 17   p \
	OrthoOrbital Cu 17   px \
	OrthoOrbital Cu 17   py \
	OrthoOrbital Cu 17   pz \
	OrthoOrbital Cu 17   d \
	OrthoOrbital Cu 17   dxy \
	OrthoOrbital Cu 17   dyz \
	OrthoOrbital Cu 17   dz2 \
	OrthoOrbital Cu 17   dxz \
	OrthoOrbital Cu 17   dx2-y2 \
	OrthoOrbital Cu 18   s \
	OrthoOrbital Cu 18   p \
	OrthoOrbital Cu 18   px \
	OrthoOrbital Cu 18   py \
	OrthoOrbital Cu 18   pz \
	OrthoOrbital Cu 18   d \
	OrthoOrbital Cu 18   dxy \
	OrthoOrbital Cu 18   dyz \
	OrthoOrbital Cu 18   dz2 \
	OrthoOrbital Cu 18   dxz \
	OrthoOrbital Cu 18   dx2-y2 \
	OrthoOrbital Cu 19   s \
	OrthoOrbital Cu 19   p \
	OrthoOrbital Cu 19   px \
	OrthoOrbital Cu 19   py \
	OrthoOrbital Cu 19   pz \
	OrthoOrbital Cu 19   d \
	OrthoOrbital Cu 19   dxy \
	OrthoOrbital Cu 19   dyz \
	OrthoOrbital Cu 19   dz2 \
	OrthoOrbital Cu 19   dxz \
	OrthoOrbital Cu 19   dx2-y2 \
	OrthoOrbital Cu 20   s \
	OrthoOrbital Cu 20   p \
	OrthoOrbital Cu 20   px \
	OrthoOrbital Cu 20   py \
	OrthoOrbital Cu 20   pz \
	OrthoOrbital Cu 20   d \
	OrthoOrbital Cu 20   dxy \
	OrthoOrbital Cu 20   dyz \
	OrthoOrbital Cu 20   dz2 \
	OrthoOrbital Cu 20   dxz \
	OrthoOrbital Cu 20   dx2-y2 \
	OrthoOrbital Cu 21   s \
	OrthoOrbital Cu 21   p \
	OrthoOrbital Cu 21   px \
	OrthoOrbital Cu 21   py \
	OrthoOrbital Cu 21   pz \
	OrthoOrbital Cu 21   d \
	OrthoOrbital Cu 21   dxy \
	OrthoOrbital Cu 21   dyz \
	OrthoOrbital Cu 21   dz2 \
	OrthoOrbital Cu 21   dxz \
	OrthoOrbital Cu 21   dx2-y2 \
	OrthoOrbital Cu 22   s \
	OrthoOrbital Cu 22   p \
	OrthoOrbital Cu 22   px \
	OrthoOrbital Cu 22   py \
	OrthoOrbital Cu 22   pz \
	OrthoOrbital Cu 22   d \
	OrthoOrbital Cu 22   dxy \
	OrthoOrbital Cu 22   dyz \
	OrthoOrbital Cu 22   dz2 \
	OrthoOrbital Cu 22   dxz \
	OrthoOrbital Cu 22   dx2-y2 \
	OrthoOrbital Cu 23   s \
	OrthoOrbital Cu 23   p \
	OrthoOrbital Cu 23   px \
	OrthoOrbital Cu 23   py \
	OrthoOrbital Cu 23   pz \
	OrthoOrbital Cu 23   d \
	OrthoOrbital Cu 23   dxy \
	OrthoOrbital Cu 23   dyz \
	OrthoOrbital Cu 23   dz2 \
	OrthoOrbital Cu 23   dxz \
	OrthoOrbital Cu 23   dx2-y2 \
	OrthoOrbital Cu 24   s \
	OrthoOrbital Cu 24   p \
	OrthoOrbital Cu 24   px \
	OrthoOrbital Cu 24   py \
	OrthoOrbital Cu 24   pz \
	OrthoOrbital Cu 24   d \
	OrthoOrbital Cu 24   dxy \
	OrthoOrbital Cu 24   dyz \
	OrthoOrbital Cu 24   dz2 \
	OrthoOrbital Cu 24   dxz \
	OrthoOrbital Cu 24   dx2-y2 \
	OrthoOrbital Cu 25   s \
	OrthoOrbital Cu 25   p \
	OrthoOrbital Cu 25   px \
	OrthoOrbital Cu 25   py \
	OrthoOrbital Cu 25   pz \
	OrthoOrbital Cu 25   d \
	OrthoOrbital Cu 25   dxy \
	OrthoOrbital Cu 25   dyz \
	OrthoOrbital Cu 25   dz2 \
	OrthoOrbital Cu 25   dxz \
	OrthoOrbital Cu 25   dx2-y2 \
	OrthoOrbital Cu 26   s \
	OrthoOrbital Cu 26   p \
	OrthoOrbital Cu 26   px \
	OrthoOrbital Cu 26   py \
	OrthoOrbital Cu 26   pz \
	OrthoOrbital Cu 26   d \
	OrthoOrbital Cu 26   dxy \
	OrthoOrbital Cu 26   dyz \
	OrthoOrbital Cu 26   dz2 \
	OrthoOrbital Cu 26   dxz \
	OrthoOrbital Cu 26   dx2-y2 \
	OrthoOrbital Cu 27   s \
	OrthoOrbital Cu 27   p \
	OrthoOrbital Cu 27   px \
	OrthoOrbital Cu 27   py \
	OrthoOrbital Cu 27   pz \
	OrthoOrbital Cu 27   d \
	OrthoOrbital Cu 27   dxy \
	OrthoOrbital Cu 27   dyz \
	OrthoOrbital Cu 27   dz2 \
	OrthoOrbital Cu 27   dxz \
	OrthoOrbital Cu 27   dx2-y2 \
	OrthoOrbital Cu 28   s \
	OrthoOrbital Cu 28   p \
	OrthoOrbital Cu 28   px \
	OrthoOrbital Cu 28   py \
	OrthoOrbital Cu 28   pz \
	OrthoOrbital Cu 28   d \
	OrthoOrbital Cu 28   dxy \
	OrthoOrbital Cu 28   dyz \
	OrthoOrbital Cu 28   dz2 \
	OrthoOrbital Cu 28   dxz \
	OrthoOrbital Cu 28   dx2-y2
dump End ElecDensity KEdensity BandEigs EigStats RhoAtom DOS Kpoints
dump Ionic State IonicPositions Lattice EigStats Ecomponents
dump 
dump 
dump 
dump 
dump 
dump 
dump 
dump 
dump-name jdft.$VAR
elec-cutoff 20
elec-eigen-algo Davidson
elec-ex-corr gga-PBE
elec-initial-magnetization 0.000000 no
elec-n-bands 320
elec-smearing Fermi 0.001
electronic-minimize  \
	dirUpdateScheme      FletcherReeves \
	linminMethod         DirUpdateRecommended \
	nIterations          100 \
	history              15 \
	knormThreshold       0 \
	energyDiffThreshold  1e-07 \
	nEnergyDiff          2 \
	alphaTstart          1 \
	alphaTmin            1e-10 \
	updateTestStepSize   yes \
	alphaTreduceFactor   0.1 \
	alphaTincreaseFactor 3 \
	nAlphaAdjustMax      3 \
	wolfeEnergy          0.0001 \
	wolfeGradient        0.9 \
	fdTest               no
exchange-regularization WignerSeitzTruncated
fluid LinearPCM 298.000000 1.013250
fluid-anion F- 0.5 MeanFieldLJ \
	epsBulk 1 \
	pMol 0 \
	epsInf 1 \
	Pvap 0 \
	sigmaBulk 0 \
	Rvdw 2.24877 \
	Res 0 \
	tauNuc 343133
fluid-cation Na+ 0.5 MeanFieldLJ \
	epsBulk 1 \
	pMol 0 \
	epsInf 1 \
	Pvap 0 \
	sigmaBulk 0 \
	Rvdw 2.19208 \
	Res 0 \
	tauNuc 343133
fluid-ex-corr lda-TF lda-PZ
fluid-gummel-loop 10 1.000000e-05
fluid-minimize  \
	dirUpdateScheme      PolakRibiere \
	linminMethod         DirUpdateRecommended \
	nIterations          400 \
	history              15 \
	knormThreshold       1e-11 \
	energyDiffThreshold  0 \
	nEnergyDiff          2 \
	alphaTstart          1 \
	alphaTmin            1e-10 \
	updateTestStepSize   yes \
	alphaTreduceFactor   0.1 \
	alphaTincreaseFactor 3 \
	nAlphaAdjustMax      6 \
	wolfeEnergy          0.0001 \
	wolfeGradient        0.9 \
	fdTest               no
fluid-solvent H2O 55.338 ScalarEOS \
	epsBulk 78.4 \
	pMol 0.92466 \
	epsInf 1.77 \
	Pvap 1.06736e-10 \
	sigmaBulk 4.62e-05 \
	Rvdw 2.61727 \
	Res 1.42 \
	tauNuc 343133 \
	poleEl 15 7 1
forces-output-coords Positions
initial-state jdft.$VAR
ion Cu  -0.000724000000000   0.022324000000000  24.623589000000003 1
ion Cu   5.510154000000000   5.877606000000000   1.399779000000000 1
ion Cu   5.509031000000000   1.496393000000000   3.072794000000000 1
ion Cu   2.760669000000000   7.379919999999999   4.947464000000000 1
ion Cu   2.752545000000000   2.925123000000000   6.774992000000001 1
ion Cu  -0.004456000000000   8.815333000000001   8.547813000000000 1
ion Cu  -0.001500000000000   4.404401999999999  10.363840000000000 1
ion Cu   5.501438000000000   5.893999000000000  13.948601999999999 1
ion Cu   0.002298000000000  -0.002142000000000  12.164809999999999 1
ion Cu   5.510509000000000   1.477858000000000  15.781050000000000 1
ion Cu   2.748860000000000   7.369581999999999  17.558411000000000 1
ion Cu   2.744096000000000   2.952287000000000  19.351434999999999 1
ion Cu   0.029248000000000   8.764660999999998  21.252361000000001 1
ion Cu  -0.010529000000000   4.430649999999999  23.024273999999998 1
ion Cu   1.386892000000000   3.659460000000000   2.197317000000000 1
ion Cu  -1.404790000000000   9.622347000000000   3.970441000000000 1
ion Cu  -1.368058000000000   5.137616999999999   5.872124000000001 1
ion Cu   6.882882000000000   0.721712000000000   7.663105000000001 1
ion Cu   4.121369999999999   6.612148999999999   9.442434000000000 1
ion Cu   4.130527000000001   2.197140000000000  11.276243000000001 1
ion Cu   1.373784000000000   8.092653000000000  13.056328000000002 1
ion Cu  -1.371102000000000   9.572631999999999  16.673929999999999 1
ion Cu   1.377511000000000   3.686593000000000  14.861156000000001 1
ion Cu  -1.376724000000000   5.165685999999999  18.448718000000000 1
ion Cu   6.871398000000000   0.710684000000000  20.275490000000001 1
ion Cu   4.122639000000000   6.593933000000000  22.148041000000003 1
ion Cu   4.121725999999999   2.213604999999999  23.821662000000000 1
ion Cu   1.376536000000000   8.067868000000001   0.598154000000000 1
ion-species /projects/musgravc/apps/jdftx-1.6.0/build/pseudopotentials/GBRV_v1.5/$ID_pbe_v1.uspp
ion-species /projects/musgravc/apps/jdftx-1.6.0/build/pseudopotentials/GBRV_v1.5/$ID_pbe_v1.2.uspp
ion-species /projects/musgravc/apps/jdftx-1.6.0/build/pseudopotentials/GBRV_v1.5/$ID_pbe_v1.4.uspp
ion-species /projects/musgravc/apps/jdftx-1.6.0/build/pseudopotentials/GBRV_v1.5/$ID_pbe_v1.5.uspp
ion-width Ecut
ionic-minimize  \
	dirUpdateScheme      L-BFGS \
	linminMethod         DirUpdateRecommended \
	nIterations          100 \
	history              15 \
	knormThreshold       0.0001 \
	energyDiffThreshold  0.0001 \
	nEnergyDiff          2 \
	alphaTstart          1 \
	alphaTmin            1e-10 \
	updateTestStepSize   yes \
	alphaTreduceFactor   0.1 \
	alphaTincreaseFactor 3 \
	nAlphaAdjustMax      3 \
	wolfeEnergy          0.0001 \
	wolfeGradient        0.9 \
	fdTest               no
kpoint   0.000000000000   0.000000000000   0.000000000000  1.00000000000000
kpoint-folding 7 5 1 
latt-move-scale 0 0 0
latt-scale 1 1 1 
lattice  \
	   8.256034000000000   -2.752012000000000    0.000000000000000  \
	   0.000000000000000   10.297084000000000    0.000000000000000  \
	  -0.000000000000000    0.000000000000000   75.667800999999997 
lattice-minimize  \
	dirUpdateScheme      L-BFGS \
	linminMethod         DirUpdateRecommended \
	nIterations          0 \
	history              15 \
	knormThreshold       0 \
	energyDiffThreshold  1e-06 \
	nEnergyDiff          2 \
	alphaTstart          1 \
	alphaTmin            1e-10 \
	updateTestStepSize   yes \
	alphaTreduceFactor   0.1 \
	alphaTincreaseFactor 3 \
	nAlphaAdjustMax      3 \
	wolfeEnergy          0.0001 \
	wolfeGradient        0.9 \
	fdTest               no
lcao-params 30 1e-06 0.001
pcm-variant CANDLE
spintype z-spin
subspace-rotation-factor 1 yes
symmetries automatic
symmetry-threshold 0.0001
target-mu -0.1345 no

van-der-waals D3



---------- Setting up symmetries ----------

Found 4 point-group symmetries of the bravais lattice
Found 1 space-group symmetries with basis
Applied RMS atom displacement 0 bohrs to make symmetries exact.

---------- Initializing the Grid ----------
R = 
[      8.25603     -2.75201            0  ]
[            0      10.2971            0  ]
[            0            0      75.6678  ]
unit cell volume = 6432.75
G =
[   0.761042   0.203397         -0  ]
[         -0   0.610191          0  ]
[          0          0  0.0830364  ]
Minimum fftbox size, Smin = [  36  44  308  ]
Chosen fftbox size, S = [  36  48  320  ]

---------- Exchange Correlation functional ----------
Initalized PBE GGA exchange.
Initalized PBE GGA correlation.

---------- Setting up pseudopotentials ----------
Width of ionic core gaussian charges (only for fluid interactions / plotting) set to 0.397384

Reading pseudopotential file '/projects/musgravc/apps/jdftx-1.6.0/build/pseudopotentials/GBRV_v1.5/cu_pbe_v1.2.uspp':
  Title: Cu.  Created by USPP 7.3.6 on 3-2-2014
  Reference state energy: -201.059491.  19 valence electrons in orbitals:
    |300>  occupation: 2  eigenvalue: -5.020764
    |310>  occupation: 6  eigenvalue: -3.445588
    |320>  occupation: 8  eigenvalue: -0.925168
    |400>  occupation: 2  eigenvalue: -0.567638
    |410>  occupation: 0  eigenvalue: -0.326154
  lMax: 2  lLocal: 3  QijEcut: 6
  6 projectors sampled on a log grid with 613 points:
    l: 0  eig: -5.020767  rCut: 1.4
    l: 0  eig: -0.567640  rCut: 1.4
    l: 1  eig: -3.445589  rCut: 1.55
    l: 1  eig: -0.326157  rCut: 1.55
    l: 2  eig: -0.925170  rCut: 1.5
    l: 2  eig: 1.500000  rCut: 1.5
  Partial core density with radius 0.8
  Transforming core density to a uniform radial grid of dG=0.02 with 1328 points.
  Transforming local potential to a uniform radial grid of dG=0.02 with 1328 points.
  Transforming nonlocal projectors to a uniform radial grid of dG=0.02 with 432 points.
  Transforming density augmentations to a uniform radial grid of dG=0.02 with 1328 points.
  Transforming atomic orbitals to a uniform radial grid of dG=0.02 with 432 points.
  Core radius for overlap checks: 1.55 bohrs.

Initialized 1 species with 28 total atoms.

Folded 1 k-points by 7x5x1 to 35 k-points.

---------- Setting up k-points, bands, fillings ----------
Adding inversion symmetry to k-mesh for non-inversion-symmetric unit cell.
Reduced to 18 k-points under symmetry. 
Computing the number of bands and number of electrons
Reading initial fillings from file jdft.fillings.
nElectrons: 530.847138   nBands: 320   nStates: 36

----- Setting up reduced wavefunction bases (one per k-point) -----
average nbasis = 27481.743 , ideal nbasis = 27481.209

----- Initializing Supercell corresponding to k-point mesh -----
Lattice vector linear combinations in supercell:
[   7   0   0  ]
[   0   5   0  ]
[   0   0   1  ]
Supercell lattice vectors:
[  57.7922  -13.7601  0  ]
[  0  51.4854  0  ]
[  0  0  75.6678  ]

Initializing DFT-D3 calculator:
	Parameters set for gga-PBE functional
	s6:  1.000  s_r6:  1.217
	s8:  0.722  s_r8:  1.000
	Per-atom parameters loaded for:
	Cu:  sqrtQ[a0]:  5.226  Rcov[a0]:  1.909  CN: [ 0.00 0.96 ]

Initializing DFT-D2 calculator for fluid / solvation:
	Cu:  C6:  187.33 Eh-a0^6  R0: 2.952 a0

---------- Setting up ewald sum ----------
Optimum gaussian width for ewald sums = 4.257775 bohr.
Real space sum over 825 unit cells with max indices [  7  5  2  ]
Reciprocal space sum over 5643 terms with max indices [  4  5  28  ]

Computing DFT-D3 correction:
# coordination-number Cu 4.905 6.247 7.612 9.094 9.050 9.108 9.173 9.160 9.160 9.162 9.107 9.040 8.340 6.875 6.871 8.339 9.037 9.104 9.161 9.159 9.162 9.108 9.174 9.053 9.096 7.616 6.249 4.905
# diagonal-C6 Cu 175.00 175.00 175.00 175.00 175.00 175.00 175.00 175.00 175.00 175.00 175.00 175.00 175.00 175.00 175.00 175.00 175.00 175.00 175.00 175.00 175.00 175.00 175.00 175.00 175.00 175.00 175.00 175.00
EvdW_6 =   -0.175888
EvdW_8 =   -0.258693

---------- Allocating electronic variables ----------
Initializing wave functions:  reading from 'jdft.wfns'
----- createFluidSolver() ----- (Fluid-side solver setup)
   Initializing fluid molecule 'H2O'
     Initializing site 'O'
       Electron density: proportional to exp(-r/0.36935)*erfc((r-0.51523)/0.36823) with norm 6.826
       Charge density: gaussian nuclear width 0.478731 with net site charge 0.826
       Polarizability: cuspless exponential with width 0.32 and norm 3.73
       Hard sphere radius: 2.57003 bohrs
       Positions in reference frame:
         [ +0.000000 +0.000000 +0.000000 ]
     Initializing site 'H'
       Electron density: proportional to exp(-r/0.34641)*erfc((r-0)/0.390882) with norm 0.587
       Charge density: gaussian nuclear width 0.377945 with net site charge -0.413
       Polarizability: cuspless exponential with width 0.39 and norm 3.3
       Positions in reference frame:
         [ +0.000000 -1.441945 +1.122523 ]
         [ +0.000000 +1.441945 +1.122523 ]
     Net charge: 0   dipole magnitude: 0.927204
     Initializing spherical shell mfKernel with radius 2.61727 Bohr
     deltaS corrections:
       site 'O': -7.54299
       site 'H': -6.83917
   Initializing fluid molecule 'Na+'
     Initializing site 'Na'
       Electron density: proportional to exp(-r/0.19682)*erfc((r-0.71491)/0.41314) with norm 8.1383
       Charge density: gaussian nuclear width 0.365347 with net site charge -1
       Hard sphere radius: 1.86327 bohrs
       Positions in reference frame:
         [ +0.000000 +0.000000 +0.000000 ]
     Net charge: -1   dipole magnitude: 0
     Initializing gaussian mfKernel with width: 1.55004 Bohr
     deltaS corrections:
       site 'Na': -22.3555
   Initializing fluid molecule 'F-'
     Initializing site 'F'
       Electron density: proportional to exp(-r/0.38886)*erfc((r-0)/0.438782) with norm 8
       Charge density: gaussian nuclear width 0.374796 with net site charge 1
       Hard sphere radius: 2.39995 bohrs
       Positions in reference frame:
         [ +0.000000 +0.000000 +0.000000 ]
     Net charge: 1   dipole magnitude: 0
     Initializing gaussian mfKernel with width: 1.59012 Bohr
     deltaS corrections:
       site 'F': -9.04335

Correction to mu due to finite nuclear width = -0.0820568
   Cavity determined by nc: 0.00142 and sigma: 0.707107
   Nonlocal vdW cavity from gaussian model electron density with norm = 8 and sigma = 0.993594 bohr
   Charge asymmetry in cavity with sensitivity pCavity = 36.5 e-bohr/Eh
   Electrostatic cavity expanded by eta = 1.46 bohrs
   Weighted density cavitation model constrained by Nbulk: 0.0049383 bohr^-3, Pvap: 3.14029 kPa, Rvdw: 2.61727 bohr and sigmaBulk: 4.62e-05 Eh/bohr^2 at T: 298 K.
   Weighted density dispersion model using vdW pair potentials with single solvent site with sqrtC6eff: 0.77 SI.
Reading fluid state from 'jdft.fluidState'


---- Citations for features of the code used in this run ----

   Software package:
      R. Sundararaman, K. Letchworth-Weaver, K.A. Schwarz, D. Gunceler, Y. Ozhabes and T.A. Arias, 'JDFTx: software for joint density-functional theory', SoftwareX 6, 278 (2017)

   gga-PBE exchange-correlation functional:
      J.P. Perdew, K. Burke and M. Ernzerhof, Phys. Rev. Lett. 77, 3865 (1996)

   Pseudopotentials:
      KF Garrity, JW Bennett, KM Rabe and D Vanderbilt, Comput. Mater. Sci. 81, 446 (2014)

   DFT-D3 dispersion correction:
      S. Grimme, J. Antony, S. Ehrlich and H. Krieg, J. Chem. Phys. 132, 154104 (2010)

   DFT-D2 dispersion correction:
      S. Grimme, J. Comput. Chem. 27, 1787 (2006)

   Charge-asymmetric nonlocally-determined local-electric (CANDLE) solvation model:
      R. Sundararaman and W.A. Goddard III, J. Chem. Phys. 142, 064107 (2015)

   Total energy minimization with Auxiliary Hamiltonian:
      C. Freysoldt, S. Boeck, and J. Neugebauer, Phys. Rev. B 79, 241103(R) (2009)

   Grand-canonical (fixed-potential) DFT:
      R. Sundararaman, W. A. Goddard III and T. A. Arias, J. Chem. Phys. 146, 114104 (2017)

   Linear-tetrahedron sampling for density of states:
      G. Lehmann and M. Taut, Phys. status solidi (b) 54, 469 (1972)

This list may not be complete. Please suggest additional citations or
report any other bugs at https://github.com/shankar1729/jdftx/issues

Initialization completed successfully at t[s]:     33.93


Computing DFT-D3 correction:
# coordination-number Cu 4.905 6.247 7.612 9.094 9.050 9.108 9.173 9.160 9.160 9.162 9.107 9.040 8.340 6.875 6.871 8.339 9.037 9.104 9.161 9.159 9.162 9.108 9.174 9.053 9.096 7.616 6.249 4.905
# diagonal-C6 Cu 175.00 175.00 175.00 175.00 175.00 175.00 175.00 175.00 175.00 175.00 175.00 175.00 175.00 175.00 175.00 175.00 175.00 175.00 175.00 175.00 175.00 175.00 175.00 175.00 175.00 175.00 175.00 175.00
EvdW_6 =   -0.175888
EvdW_8 =   -0.258693
Shifting auxilliary hamiltonian by 0.110251 to set nElectrons=530.847138

-------- Electronic minimization -----------
	Linear fluid (dielectric constant: 78.4, screening length: 8.12261 Bohr) occupying 0.569675 of unit cell:	Completed after 24 iterations at t[s]:     66.25
	FillingsUpdate:  mu: -0.134500000  nElectrons: 530.847138  magneticMoment: [ Abs: 0.00018  Tot: -0.00003 ]
ElecMinimize: Iter:   0  G: -5578.893730133280769  |grad|_K:  1.590e-04  alpha:  1.000e+00
	Linear fluid (dielectric constant: 78.4, screening length: 8.12261 Bohr) occupying 0.606696 of unit cell:	Completed after 31 iterations at t[s]:    226.21
	Linear fluid (dielectric constant: 78.4, screening length: 8.12261 Bohr) occupying 0.573168 of unit cell:	Completed after 34 iterations at t[s]:    281.25
	FillingsUpdate:  mu: -0.134500000  nElectrons: 532.194469  magneticMoment: [ Abs: 0.00015  Tot: -0.00001 ]
	SubspaceRotationAdjust: set factor to 0.591
ElecMinimize: Iter:   1  G: -5579.116174387613682  |grad|_K:  2.081e-04  alpha:  5.008e-02  linmin:  7.143e-04  t[s]:    361.00
	Linear fluid (dielectric constant: 78.4, screening length: 8.12261 Bohr) occupying 0.568119 of unit cell:	Completed after 25 iterations at t[s]:    433.59
	Linear fluid (dielectric constant: 78.4, screening length: 8.12261 Bohr) occupying 0.568575 of unit cell:	Completed after 24 iterations at t[s]:    485.72
	FillingsUpdate:  mu: -0.134500000  nElectrons: 531.656345  magneticMoment: [ Abs: 0.00014  Tot: -0.00004 ]
	SubspaceRotationAdjust: set factor to 0.337
ElecMinimize: Iter:   2  G: -5579.586167224886594  |grad|_K:  9.452e-05  alpha:  3.377e-02  linmin:  9.188e-05  t[s]:    564.00
	Linear fluid (dielectric constant: 78.4, screening length: 8.12261 Bohr) occupying 0.568183 of unit cell:	Completed after 23 iterations at t[s]:    634.76
ElecMinimize: 	Predicted alpha/alphaT>3.000000, increasing alphaT to 1.013234e-01.
	Linear fluid (dielectric constant: 78.4, screening length: 8.12261 Bohr) occupying 0.567388 of unit cell:	Completed after 24 iterations at t[s]:    689.93
	Linear fluid (dielectric constant: 78.4, screening length: 8.12261 Bohr) occupying 0.566404 of unit cell:	Completed after 24 iterations at t[s]:    744.40
	FillingsUpdate:  mu: -0.134500000  nElectrons: 531.565349  magneticMoment: [ Abs: 0.00009  Tot: -0.00004 ]
	SubspaceRotationAdjust: set factor to 0.41
ElecMinimize: Iter:   3  G: -5580.093963497951336  |grad|_K:  7.283e-05  alpha:  1.831e-01  linmin:  1.796e-04  t[s]:    821.63
	Linear fluid (dielectric constant: 78.4, screening length: 8.12261 Bohr) occupying 0.603882 of unit cell:	Completed after 40 iterations at t[s]:    896.06
	Linear fluid (dielectric constant: 78.4, screening length: 8.12261 Bohr) occupying 0.566195 of unit cell:	Completed after 28 iterations at t[s]:    951.02
	FillingsUpdate:  mu: -0.134500000  nElectrons: 531.961409  magneticMoment: [ Abs: 0.00009  Tot: -0.00004 ]
	SubspaceRotationAdjust: set factor to 0.255
ElecMinimize: Iter:   4  G: -5580.212028154241125  |grad|_K:  3.883e-05  alpha:  6.344e-02  linmin: -9.307e-04  t[s]:   1030.36
	Linear fluid (dielectric constant: 78.4, screening length: 8.12261 Bohr) occupying 0.565628 of unit cell:	Completed after 22 iterations at t[s]:   1100.92
	Linear fluid (dielectric constant: 78.4, screening length: 8.12261 Bohr) occupying 0.565513 of unit cell:	Completed after 20 iterations at t[s]:   1155.62
	FillingsUpdate:  mu: -0.134500000  nElectrons: 531.834705  magneticMoment: [ Abs: 0.00009  Tot: -0.00003 ]
	SubspaceRotationAdjust: set factor to 0.251
ElecMinimize: Iter:   5  G: -5580.255668975447406  |grad|_K:  2.240e-05  alpha:  8.197e-02  linmin: -8.900e-05  t[s]:   1232.72
	Linear fluid (dielectric constant: 78.4, screening length: 8.12261 Bohr) occupying 0.565094 of unit cell:	Completed after 19 iterations at t[s]:   1301.92
	Linear fluid (dielectric constant: 78.4, screening length: 8.12261 Bohr) occupying 0.564337 of unit cell:	Completed after 21 iterations at t[s]:   1355.35
	FillingsUpdate:  mu: -0.134500000  nElectrons: 531.736586  magneticMoment: [ Abs: 0.00009  Tot: -0.00003 ]
	SubspaceRotationAdjust: set factor to 0.29
ElecMinimize: Iter:   6  G: -5580.292091979729776  |grad|_K:  1.741e-05  alpha:  2.262e-01  linmin:  4.659e-05  t[s]:   1436.54
	Linear fluid (dielectric constant: 78.4, screening length: 8.12261 Bohr) occupying 0.563292 of unit cell:	Completed after 23 iterations at t[s]:   1505.34
	Linear fluid (dielectric constant: 78.4, screening length: 8.12261 Bohr) occupying 0.563798 of unit cell:	Completed after 22 iterations at t[s]:   1558.03
	FillingsUpdate:  mu: -0.134500000  nElectrons: 531.827162  magneticMoment: [ Abs: 0.00008  Tot: -0.00003 ]
	SubspaceRotationAdjust: set factor to 0.227
ElecMinimize: Iter:   7  G: -5580.303069512300681  |grad|_K:  1.231e-05  alpha:  1.093e-01  linmin: -2.035e-04  t[s]:   1637.63
	Linear fluid (dielectric constant: 78.4, screening length: 8.12261 Bohr) occupying 0.563219 of unit cell:	Completed after 21 iterations at t[s]:   1709.24
	Linear fluid (dielectric constant: 78.4, screening length: 8.12261 Bohr) occupying 0.563155 of unit cell:	Completed after 17 iterations at t[s]:   1759.86
	FillingsUpdate:  mu: -0.134500000  nElectrons: 531.765575  magneticMoment: [ Abs: 0.00007  Tot: -0.00003 ]
	SubspaceRotationAdjust: set factor to 0.192
ElecMinimize: Iter:   8  G: -5580.309098907388034  |grad|_K:  8.887e-06  alpha:  1.211e-01  linmin: -1.626e-05  t[s]:   1838.25
	Linear fluid (dielectric constant: 78.4, screening length: 8.12261 Bohr) occupying 0.562572 of unit cell:	Completed after 19 iterations at t[s]:   1908.10
	Linear fluid (dielectric constant: 78.4, screening length: 8.12261 Bohr) occupying 0.562292 of unit cell:	Completed after 19 iterations at t[s]:   1962.28
	FillingsUpdate:  mu: -0.134500000  nElectrons: 531.809615  magneticMoment: [ Abs: 0.00006  Tot: -0.00003 ]
	SubspaceRotationAdjust: set factor to 0.244
ElecMinimize: Iter:   9  G: -5580.313571910743121  |grad|_K:  7.522e-06  alpha:  1.775e-01  linmin:  1.534e-05  t[s]:   2040.02
	Linear fluid (dielectric constant: 78.4, screening length: 8.12261 Bohr) occupying 0.561310 of unit cell:	Completed after 20 iterations at t[s]:   2111.14
	Linear fluid (dielectric constant: 78.4, screening length: 8.12261 Bohr) occupying 0.560683 of unit cell:	Completed after 20 iterations at t[s]:   2162.83
	FillingsUpdate:  mu: -0.134500000  nElectrons: 531.902421  magneticMoment: [ Abs: 0.00005  Tot: -0.00003 ]
	SubspaceRotationAdjust: set factor to 0.251
ElecMinimize: Iter:  10  G: -5580.318577238622311  |grad|_K:  1.080e-05  alpha:  2.850e-01  linmin:  8.863e-05  t[s]:   2241.43
	Linear fluid (dielectric constant: 78.4, screening length: 8.12261 Bohr) occupying 0.556093 of unit cell:	Completed after 22 iterations at t[s]:   2312.12
	Linear fluid (dielectric constant: 78.4, screening length: 8.12261 Bohr) occupying 0.558806 of unit cell:	Completed after 21 iterations at t[s]:   2366.32
	FillingsUpdate:  mu: -0.134500000  nElectrons: 531.888297  magneticMoment: [ Abs: 0.00004  Tot: -0.00003 ]
	SubspaceRotationAdjust: set factor to 0.193
ElecMinimize: Iter:  11  G: -5580.322939320251862  |grad|_K:  8.623e-06  alpha:  1.257e-01  linmin:  1.622e-05  t[s]:   2446.10
	Linear fluid (dielectric constant: 78.4, screening length: 8.12261 Bohr) occupying 0.557377 of unit cell:	Completed after 21 iterations at t[s]:   2514.91
	Linear fluid (dielectric constant: 78.4, screening length: 8.12261 Bohr) occupying 0.557318 of unit cell:	Completed after 12 iterations at t[s]:   2565.87
	FillingsUpdate:  mu: -0.134500000  nElectrons: 531.988990  magneticMoment: [ Abs: 0.00004  Tot: -0.00003 ]
	SubspaceRotationAdjust: set factor to 0.164
ElecMinimize: Iter:  12  G: -5580.326015049246053  |grad|_K:  7.998e-06  alpha:  1.315e-01  linmin:  6.772e-05  t[s]:   2645.37
	Linear fluid (dielectric constant: 78.4, screening length: 8.12261 Bohr) occupying 0.555801 of unit cell:	Completed after 20 iterations at t[s]:   2715.42
	Linear fluid (dielectric constant: 78.4, screening length: 8.12261 Bohr) occupying 0.555061 of unit cell:	Completed after 19 iterations at t[s]:   2768.70
	FillingsUpdate:  mu: -0.134500000  nElectrons: 532.039666  magneticMoment: [ Abs: 0.00003  Tot: -0.00002 ]
	SubspaceRotationAdjust: set factor to 0.185
ElecMinimize: Iter:  13  G: -5580.329775949458963  |grad|_K:  6.165e-06  alpha:  1.940e-01  linmin:  1.932e-05  t[s]:   2845.76
	Linear fluid (dielectric constant: 78.4, screening length: 8.12261 Bohr) occupying 0.553349 of unit cell:	Completed after 19 iterations at t[s]:   2915.58
	Linear fluid (dielectric constant: 78.4, screening length: 8.12261 Bohr) occupying 0.553953 of unit cell:	Completed after 15 iterations at t[s]:   2967.66
	FillingsUpdate:  mu: -0.134500000  nElectrons: 532.047208  magneticMoment: [ Abs: 0.00002  Tot: -0.00001 ]
	SubspaceRotationAdjust: set factor to 0.19
ElecMinimize: Iter:  14  G: -5580.331306727368428  |grad|_K:  4.854e-06  alpha:  1.276e-01  linmin:  1.715e-06  t[s]:   3047.73
	Linear fluid (dielectric constant: 78.4, screening length: 8.12261 Bohr) occupying 0.553671 of unit cell:	Completed after 20 iterations at t[s]:   3116.15
	Linear fluid (dielectric constant: 78.4, screening length: 8.12261 Bohr) occupying 0.553662 of unit cell:	Completed after 17 iterations at t[s]:   3168.51
	FillingsUpdate:  mu: -0.134500000  nElectrons: 532.113694  magneticMoment: [ Abs: 0.00002  Tot: -0.00001 ]
	SubspaceRotationAdjust: set factor to 0.156
ElecMinimize: Iter:  15  G: -5580.332577049798601  |grad|_K:  4.967e-06  alpha:  1.697e-01  linmin:  1.518e-05  t[s]:   3248.25
	Linear fluid (dielectric constant: 78.4, screening length: 8.12261 Bohr) occupying 0.552370 of unit cell:	Completed after 20 iterations at t[s]:   3318.97
	Linear fluid (dielectric constant: 78.4, screening length: 8.12261 Bohr) occupying 0.552722 of unit cell:	Completed after 18 iterations at t[s]:   3370.27
	FillingsUpdate:  mu: -0.134500000  nElectrons: 532.117113  magneticMoment: [ Abs: 0.00001  Tot: -0.00001 ]
	SubspaceRotationAdjust: set factor to 0.147
ElecMinimize: Iter:  16  G: -5580.333546033691164  |grad|_K:  3.294e-06  alpha:  1.243e-01  linmin:  2.136e-06  t[s]:   3449.00
	Linear fluid (dielectric constant: 78.4, screening length: 8.12261 Bohr) occupying 0.552485 of unit cell:	Completed after 12 iterations at t[s]:   3517.25
	Linear fluid (dielectric constant: 78.4, screening length: 8.12261 Bohr) occupying 0.552369 of unit cell:	Completed after 12 iterations at t[s]:   3569.11
	FillingsUpdate:  mu: -0.134500000  nElectrons: 532.137985  magneticMoment: [ Abs: 0.00001  Tot: -0.00000 ]
	SubspaceRotationAdjust: set factor to 0.163
ElecMinimize: Iter:  17  G: -5580.334204964916353  |grad|_K:  3.259e-06  alpha:  1.909e-01  linmin:  1.797e-06  t[s]:   3649.43
	Linear fluid (dielectric constant: 78.4, screening length: 8.12261 Bohr) occupying 0.552828 of unit cell:	Completed after 20 iterations at t[s]:   3717.17
	Linear fluid (dielectric constant: 78.4, screening length: 8.12261 Bohr) occupying 0.552648 of unit cell:	Completed after 15 iterations at t[s]:   3768.87
	FillingsUpdate:  mu: -0.134500000  nElectrons: 532.172619  magneticMoment: [ Abs: 0.00001  Tot: -0.00000 ]
	SubspaceRotationAdjust: set factor to 0.146
ElecMinimize: Iter:  18  G: -5580.334671876308676  |grad|_K:  2.236e-06  alpha:  1.377e-01  linmin:  2.988e-06  t[s]:   3848.12
	Linear fluid (dielectric constant: 78.4, screening length: 8.12261 Bohr) occupying 0.552243 of unit cell:	Completed after 15 iterations at t[s]:   3918.45
	Linear fluid (dielectric constant: 78.4, screening length: 8.12261 Bohr) occupying 0.552185 of unit cell:	Completed after 10 iterations at t[s]:   3968.02
	FillingsUpdate:  mu: -0.134500000  nElectrons: 532.169759  magneticMoment: [ Abs: 0.00001  Tot: -0.00000 ]
	SubspaceRotationAdjust: set factor to 0.13
	SubspaceRotationAdjust: resetting CG because factor has changed by 0.130102
	Linear fluid (dielectric constant: 78.4, screening length: 8.12261 Bohr) occupying 0.552185 of unit cell:	Completed after 0 iterations at t[s]:   4072.34
ElecMinimize: 	State modified externally: resetting search direction.
ElecMinimize: Iter:  19  G: -5580.334922488807024  |grad|_K:  2.077e-06  alpha:  1.574e-01
	Linear fluid (dielectric constant: 78.4, screening length: 8.12261 Bohr) occupying 0.552590 of unit cell:	Completed after 18 iterations at t[s]:   4221.65
	Linear fluid (dielectric constant: 78.4, screening length: 8.12261 Bohr) occupying 0.552422 of unit cell:	Completed after 13 iterations at t[s]:   4271.91
	FillingsUpdate:  mu: -0.134500000  nElectrons: 532.178012  magneticMoment: [ Abs: 0.00001  Tot: -0.00000 ]
	SubspaceRotationAdjust: set factor to 0.196
ElecMinimize: Iter:  20  G: -5580.335051951939022  |grad|_K:  1.154e-06  alpha:  9.418e-02  linmin: -3.101e-06  t[s]:   4350.30
	Linear fluid (dielectric constant: 78.4, screening length: 8.12261 Bohr) occupying 0.552386 of unit cell:	Completed after 10 iterations at t[s]:   4418.16
ElecMinimize: 	Predicted alpha/alphaT>3.000000, increasing alphaT to 2.825467e-01.
	Linear fluid (dielectric constant: 78.4, screening length: 8.12261 Bohr) occupying 0.552313 of unit cell:	Completed after 13 iterations at t[s]:   4471.22
	Linear fluid (dielectric constant: 78.4, screening length: 8.12261 Bohr) occupying 0.552299 of unit cell:	Completed after 8 iterations at t[s]:   4520.28
	FillingsUpdate:  mu: -0.134500000  nElectrons: 532.175037  magneticMoment: [ Abs: 0.00001  Tot: -0.00000 ]
	SubspaceRotationAdjust: set factor to 0.214
ElecMinimize: Iter:  21  G: -5580.335186550855724  |grad|_K:  1.196e-06  alpha:  3.173e-01  linmin: -1.367e-05  t[s]:   4598.71
	Linear fluid (dielectric constant: 78.4, screening length: 8.12261 Bohr) occupying 0.552157 of unit cell:	Completed after 14 iterations at t[s]:   4667.49
	Linear fluid (dielectric constant: 78.4, screening length: 8.12261 Bohr) occupying 0.552218 of unit cell:	Completed after 10 iterations at t[s]:   4718.67
	FillingsUpdate:  mu: -0.134500000  nElectrons: 532.174447  magneticMoment: [ Abs: 0.00001  Tot: -0.00000 ]
	SubspaceRotationAdjust: set factor to 0.248
ElecMinimize: Iter:  22  G: -5580.335270268124987  |grad|_K:  1.202e-06  alpha:  1.837e-01  linmin: -5.676e-06  t[s]:   4797.12
	Linear fluid (dielectric constant: 78.4, screening length: 8.12261 Bohr) occupying 0.552235 of unit cell:	Completed after 15 iterations at t[s]:   4865.14
	Linear fluid (dielectric constant: 78.4, screening length: 8.12261 Bohr) occupying 0.552235 of unit cell:	Completed after 2 iterations at t[s]:   4914.19
	FillingsUpdate:  mu: -0.134500000  nElectrons: 532.179109  magneticMoment: [ Abs: 0.00001  Tot: -0.00000 ]
	SubspaceRotationAdjust: set factor to 0.278
ElecMinimize: Iter:  23  G: -5580.335357930101054  |grad|_K:  9.509e-07  alpha:  1.905e-01  linmin: -1.458e-05  t[s]:   4993.75
	Linear fluid (dielectric constant: 78.4, screening length: 8.12261 Bohr) occupying 0.551930 of unit cell:	Completed after 12 iterations at t[s]:   5061.92
	Linear fluid (dielectric constant: 78.4, screening length: 8.12261 Bohr) occupying 0.551927 of unit cell:	Completed after 0 iterations at t[s]:   5110.02
	FillingsUpdate:  mu: -0.134500000  nElectrons: 532.173845  magneticMoment: [ Abs: 0.00001  Tot: -0.00000 ]
	SubspaceRotationAdjust: set factor to 0.226
ElecMinimize: Iter:  24  G: -5580.335413341703315  |grad|_K:  1.388e-06  alpha:  1.919e-01  linmin: -9.708e-06  t[s]:   5188.30
	Linear fluid (dielectric constant: 78.4, screening length: 8.12261 Bohr) occupying 0.552449 of unit cell:	Completed after 18 iterations at t[s]:   5257.75
	Linear fluid (dielectric constant: 78.4, screening length: 8.12261 Bohr) occupying 0.552179 of unit cell:	Completed after 14 iterations at t[s]:   5310.84
	FillingsUpdate:  mu: -0.134500000  nElectrons: 532.189187  magneticMoment: [ Abs: 0.00001  Tot: -0.00000 ]
	SubspaceRotationAdjust: set factor to 0.154
ElecMinimize: Iter:  25  G: -5580.335477220759458  |grad|_K:  1.163e-06  alpha:  1.017e-01  linmin: -2.215e-05  t[s]:   5388.49
	Linear fluid (dielectric constant: 78.4, screening length: 8.12261 Bohr) occupying 0.552004 of unit cell:	Completed after 13 iterations at t[s]:   5456.03
	Linear fluid (dielectric constant: 78.4, screening length: 8.12261 Bohr) occupying 0.551952 of unit cell:	Completed after 10 iterations at t[s]:   5507.28
	FillingsUpdate:  mu: -0.134500000  nElectrons: 532.190293  magneticMoment: [ Abs: 0.00000  Tot: -0.00000 ]
	SubspaceRotationAdjust: set factor to 0.2
ElecMinimize: Iter:  26  G: -5580.335534910249407  |grad|_K:  7.405e-07  alpha:  1.324e-01  linmin: -1.575e-05  t[s]:   5587.95
	Linear fluid (dielectric constant: 78.4, screening length: 8.12261 Bohr) occupying 0.551771 of unit cell:	Completed after 13 iterations at t[s]:   5654.28
	Linear fluid (dielectric constant: 78.4, screening length: 8.12261 Bohr) occupying 0.551689 of unit cell:	Completed after 10 iterations at t[s]:   5704.96
	FillingsUpdate:  mu: -0.134500000  nElectrons: 532.188552  magneticMoment: [ Abs: 0.00000  Tot: -0.00000 ]
	SubspaceRotationAdjust: set factor to 0.184
ElecMinimize: Iter:  27  G: -5580.335568747676007  |grad|_K:  8.781e-07  alpha:  1.924e-01  linmin: -1.581e-05  t[s]:   5784.01
	Linear fluid (dielectric constant: 78.4, screening length: 8.12261 Bohr) occupying 0.551984 of unit cell:	Completed after 15 iterations at t[s]:   5854.01
	Linear fluid (dielectric constant: 78.4, screening length: 8.12261 Bohr) occupying 0.551849 of unit cell:	Completed after 12 iterations at t[s]:   5904.10
	FillingsUpdate:  mu: -0.134500000  nElectrons: 532.199407  magneticMoment: [ Abs: 0.00000  Tot: -0.00000 ]
	SubspaceRotationAdjust: set factor to 0.123
ElecMinimize: Iter:  28  G: -5580.335596562780665  |grad|_K:  6.407e-07  alpha:  1.113e-01  linmin: -1.312e-05  t[s]:   5982.31
	Linear fluid (dielectric constant: 78.4, screening length: 8.12261 Bohr) occupying 0.551742 of unit cell:	Completed after 11 iterations at t[s]:   6050.73
	Linear fluid (dielectric constant: 78.4, screening length: 8.12261 Bohr) occupying 0.551711 of unit cell:	Completed after 7 iterations at t[s]:   6100.98
	FillingsUpdate:  mu: -0.134500000  nElectrons: 532.200514  magneticMoment: [ Abs: 0.00000  Tot: -0.00000 ]
	SubspaceRotationAdjust: set factor to 0.135
ElecMinimize: Iter:  29  G: -5580.335615399070775  |grad|_K:  5.451e-07  alpha:  1.433e-01  linmin: -6.415e-06  t[s]:   6179.69
	Linear fluid (dielectric constant: 78.4, screening length: 8.12261 Bohr) occupying 0.551597 of unit cell:	Completed after 11 iterations at t[s]:   6246.67
	Linear fluid (dielectric constant: 78.4, screening length: 8.12261 Bohr) occupying 0.551540 of unit cell:	Completed after 10 iterations at t[s]:   6297.66
	FillingsUpdate:  mu: -0.134500000  nElectrons: 532.202244  magneticMoment: [ Abs: 0.00000  Tot: -0.00000 ]
	SubspaceRotationAdjust: set factor to 0.137
ElecMinimize: Iter:  30  G: -5580.335635925154747  |grad|_K:  6.039e-07  alpha:  2.160e-01  linmin: -1.217e-05  t[s]:   6377.04
	Linear fluid (dielectric constant: 78.4, screening length: 8.12261 Bohr) occupying 0.551741 of unit cell:	Completed after 14 iterations at t[s]:   6445.72
	Linear fluid (dielectric constant: 78.4, screening length: 8.12261 Bohr) occupying 0.551683 of unit cell:	Completed after 10 iterations at t[s]:   6496.10
	FillingsUpdate:  mu: -0.134500000  nElectrons: 532.212917  magneticMoment: [ Abs: 0.00000  Tot: -0.00000 ]
	SubspaceRotationAdjust: set factor to 0.11
ElecMinimize: Iter:  31  G: -5580.335654639000495  |grad|_K:  4.920e-07  alpha:  1.595e-01  linmin:  7.463e-06  t[s]:   6574.38
	Linear fluid (dielectric constant: 78.4, screening length: 8.12261 Bohr) occupying 0.551653 of unit cell:	Completed after 7 iterations at t[s]:   6641.45
	Linear fluid (dielectric constant: 78.4, screening length: 8.12261 Bohr) occupying 0.551644 of unit cell:	Completed after 4 iterations at t[s]:   6692.31
	FillingsUpdate:  mu: -0.134500000  nElectrons: 532.218515  magneticMoment: [ Abs: 0.00000  Tot: -0.00000 ]
	SubspaceRotationAdjust: set factor to 0.121
ElecMinimize: Iter:  32  G: -5580.335671170773821  |grad|_K:  4.811e-07  alpha:  2.152e-01  linmin:  2.034e-06  t[s]:   6769.74
	Linear fluid (dielectric constant: 78.4, screening length: 8.12261 Bohr) occupying 0.551549 of unit cell:	Completed after 12 iterations at t[s]:   6836.94
	Linear fluid (dielectric constant: 78.4, screening length: 8.12261 Bohr) occupying 0.551586 of unit cell:	Completed after 7 iterations at t[s]:   6887.59
	FillingsUpdate:  mu: -0.134500000  nElectrons: 532.221081  magneticMoment: [ Abs: 0.00000  Tot: -0.00000 ]
	SubspaceRotationAdjust: set factor to 0.122
ElecMinimize: Iter:  33  G: -5580.335680688676803  |grad|_K:  3.329e-07  alpha:  1.294e-01  linmin:  4.981e-06  t[s]:   6968.18
	Linear fluid (dielectric constant: 78.4, screening length: 8.12261 Bohr) occupying 0.551616 of unit cell:	Completed after 10 iterations at t[s]:   7033.75
	Linear fluid (dielectric constant: 78.4, screening length: 8.12261 Bohr) occupying 0.551637 of unit cell:	Completed after 9 iterations at t[s]:   7084.28
	FillingsUpdate:  mu: -0.134500000  nElectrons: 532.225961  magneticMoment: [ Abs: 0.00000  Tot: -0.00000 ]
	SubspaceRotationAdjust: set factor to 0.12
ElecMinimize: Iter:  34  G: -5580.335688259321614  |grad|_K:  3.544e-07  alpha:  2.136e-01  linmin: -1.985e-05  t[s]:   7163.68
	Linear fluid (dielectric constant: 78.4, screening length: 8.12261 Bohr) occupying 0.551626 of unit cell:	Completed after 10 iterations at t[s]:   7232.66
	Linear fluid (dielectric constant: 78.4, screening length: 8.12261 Bohr) occupying 0.551628 of unit cell:	Completed after 2 iterations at t[s]:   7280.82
	FillingsUpdate:  mu: -0.134500000  nElectrons: 532.228963  magneticMoment: [ Abs: 0.00000  Tot: -0.00000 ]
	SubspaceRotationAdjust: set factor to 0.135
ElecMinimize: Iter:  35  G: -5580.335694725015856  |grad|_K:  2.311e-07  alpha:  1.602e-01  linmin:  6.649e-06  t[s]:   7359.21
	Linear fluid (dielectric constant: 78.4, screening length: 8.12261 Bohr) occupying 0.551587 of unit cell:	Completed after 10 iterations at t[s]:   7427.09
	Linear fluid (dielectric constant: 78.4, screening length: 8.12261 Bohr) occupying 0.551588 of unit cell:	Completed after 0 iterations at t[s]:   7475.57
	FillingsUpdate:  mu: -0.134500000  nElectrons: 532.229434  magneticMoment: [ Abs: 0.00000  Tot: +0.00000 ]
	SubspaceRotationAdjust: set factor to 0.142
ElecMinimize: Iter:  36  G: -5580.335697432748930  |grad|_K:  2.115e-07  alpha:  1.595e-01  linmin: -5.422e-06  t[s]:   7554.91
	Linear fluid (dielectric constant: 78.4, screening length: 8.12261 Bohr) occupying 0.551595 of unit cell:	Completed after 8 iterations at t[s]:   7621.07
	Linear fluid (dielectric constant: 78.4, screening length: 8.12261 Bohr) occupying 0.551597 of unit cell:	Completed after 2 iterations at t[s]:   7670.16
	FillingsUpdate:  mu: -0.134500000  nElectrons: 532.231258  magneticMoment: [ Abs: 0.00000  Tot: +0.00000 ]
	SubspaceRotationAdjust: set factor to 0.155
ElecMinimize: Iter:  37  G: -5580.335700110485050  |grad|_K:  1.699e-07  alpha:  1.875e-01  linmin: -1.695e-05  t[s]:   7749.86
	Linear fluid (dielectric constant: 78.4, screening length: 8.12261 Bohr) occupying 0.551606 of unit cell:	Completed after 7 iterations at t[s]:   7817.70
	Linear fluid (dielectric constant: 78.4, screening length: 8.12261 Bohr) occupying 0.551604 of unit cell:	Completed after 2 iterations at t[s]:   7865.72
	FillingsUpdate:  mu: -0.134500000  nElectrons: 532.232250  magneticMoment: [ Abs: 0.00000  Tot: +0.00000 ]
	SubspaceRotationAdjust: set factor to 0.183
ElecMinimize: Iter:  38  G: -5580.335701360959320  |grad|_K:  1.334e-07  alpha:  1.359e-01  linmin: -5.614e-06  t[s]:   7944.48
	Linear fluid (dielectric constant: 78.4, screening length: 8.12261 Bohr) occupying 0.551590 of unit cell:	Completed after 7 iterations at t[s]:   8011.39
	Linear fluid (dielectric constant: 78.4, screening length: 8.12261 Bohr) occupying 0.551582 of unit cell:	Completed after 2 iterations at t[s]:   8062.06
	FillingsUpdate:  mu: -0.134500000  nElectrons: 532.232610  magneticMoment: [ Abs: 0.00000  Tot: +0.00000 ]
	SubspaceRotationAdjust: set factor to 0.189
ElecMinimize: Iter:  39  G: -5580.335702552419207  |grad|_K:  1.514e-07  alpha:  2.079e-01  linmin: -4.509e-05  t[s]:   8139.24
	Linear fluid (dielectric constant: 78.4, screening length: 8.12261 Bohr) occupying 0.551656 of unit cell:	Completed after 9 iterations at t[s]:   8205.80
	Linear fluid (dielectric constant: 78.4, screening length: 8.12261 Bohr) occupying 0.551639 of unit cell:	Completed after 6 iterations at t[s]:   8257.07
	FillingsUpdate:  mu: -0.134500000  nElectrons: 532.234948  magneticMoment: [ Abs: 0.00000  Tot: +0.00000 ]
	SubspaceRotationAdjust: set factor to 0.192
ElecMinimize: Iter:  40  G: -5580.335703769520478  |grad|_K:  1.364e-07  alpha:  1.607e-01  linmin:  2.903e-05  t[s]:   8336.55
	Linear fluid (dielectric constant: 78.4, screening length: 8.12261 Bohr) occupying 0.551663 of unit cell:	Completed after 5 iterations at t[s]:   8401.32
	Linear fluid (dielectric constant: 78.4, screening length: 8.12261 Bohr) occupying 0.551669 of unit cell:	Completed after 2 iterations at t[s]:   8450.25
	FillingsUpdate:  mu: -0.134500000  nElectrons: 532.236686  magneticMoment: [ Abs: 0.00000  Tot: +0.00000 ]
	SubspaceRotationAdjust: set factor to 0.205
ElecMinimize: Iter:  41  G: -5580.335704923810226  |grad|_K:  1.405e-07  alpha:  1.992e-01  linmin:  5.895e-06  t[s]:   8529.84
	Linear fluid (dielectric constant: 78.4, screening length: 8.12261 Bohr) occupying 0.551727 of unit cell:	Completed after 10 iterations at t[s]:   8597.70
	Linear fluid (dielectric constant: 78.4, screening length: 8.12261 Bohr) occupying 0.551711 of unit cell:	Completed after 2 iterations at t[s]:   8647.36
	FillingsUpdate:  mu: -0.134500000  nElectrons: 532.238536  magneticMoment: [ Abs: 0.00000  Tot: +0.00000 ]
	SubspaceRotationAdjust: set factor to 0.224
ElecMinimize: Iter:  42  G: -5580.335705833048451  |grad|_K:  9.901e-08  alpha:  1.456e-01  linmin:  9.787e-06  t[s]:   8724.68
	Linear fluid (dielectric constant: 78.4, screening length: 8.12261 Bohr) occupying 0.551725 of unit cell:	Completed after 2 iterations at t[s]:   8790.54
	Linear fluid (dielectric constant: 78.4, screening length: 8.12261 Bohr) occupying 0.551727 of unit cell:	Completed after 2 iterations at t[s]:   8839.55
	FillingsUpdate:  mu: -0.134500000  nElectrons: 532.239413  magneticMoment: [ Abs: 0.00000  Tot: +0.00000 ]
	SubspaceRotationAdjust: set factor to 0.243
ElecMinimize: Iter:  43  G: -5580.335706352076159  |grad|_K:  9.107e-08  alpha:  1.684e-01  linmin: -2.113e-06  t[s]:   8919.71
	Linear fluid (dielectric constant: 78.4, screening length: 8.12261 Bohr) occupying 0.551759 of unit cell:	Completed after 7 iterations at t[s]:   8985.05
	Linear fluid (dielectric constant: 78.4, screening length: 8.12261 Bohr) occupying 0.551761 of unit cell:	Completed after 0 iterations at t[s]:   9033.04
	FillingsUpdate:  mu: -0.134500000  nElectrons: 532.240663  magneticMoment: [ Abs: 0.00000  Tot: +0.00000 ]
	SubspaceRotationAdjust: set factor to 0.268
ElecMinimize: Iter:  44  G: -5580.335706823558212  |grad|_K:  7.867e-08  alpha:  1.782e-01  linmin: -7.289e-06  t[s]:   9112.81
	Linear fluid (dielectric constant: 78.4, screening length: 8.12261 Bohr) occupying 0.551781 of unit cell:	Completed after 2 iterations at t[s]:   9180.46
	Linear fluid (dielectric constant: 78.4, screening length: 8.12261 Bohr) occupying 0.551778 of unit cell:	Completed after 0 iterations at t[s]:   9227.28
	FillingsUpdate:  mu: -0.134500000  nElectrons: 532.241350  magneticMoment: [ Abs: 0.00000  Tot: +0.00000 ]
	SubspaceRotationAdjust: set factor to 0.291
ElecMinimize: Iter:  45  G: -5580.335707131821437  |grad|_K:  7.416e-08  alpha:  1.552e-01  linmin:  1.076e-05  t[s]:   9305.75
	Linear fluid (dielectric constant: 78.4, screening length: 8.12261 Bohr) occupying 0.551796 of unit cell:	Completed after 2 iterations at t[s]:   9372.21
	Linear fluid (dielectric constant: 78.4, screening length: 8.12261 Bohr) occupying 0.551800 of unit cell:	Completed after 4 iterations at t[s]:   9422.93
	FillingsUpdate:  mu: -0.134500000  nElectrons: 532.242159  magneticMoment: [ Abs: 0.00000  Tot: +0.00000 ]
	SubspaceRotationAdjust: set factor to 0.305
ElecMinimize: Iter:  46  G: -5580.335707443931824  |grad|_K:  7.095e-08  alpha:  1.855e-01  linmin:  6.677e-06  t[s]:   9500.80
	Linear fluid (dielectric constant: 78.4, screening length: 8.12261 Bohr) occupying 0.551785 of unit cell:	Completed after 10 iterations at t[s]:   9567.80
	Linear fluid (dielectric constant: 78.4, screening length: 8.12261 Bohr) occupying 0.551791 of unit cell:	Completed after 4 iterations at t[s]:   9617.56
	FillingsUpdate:  mu: -0.134500000  nElectrons: 532.242108  magneticMoment: [ Abs: 0.00000  Tot: +0.00000 ]
	SubspaceRotationAdjust: set factor to 0.245
ElecMinimize: Iter:  47  G: -5580.335707610664940  |grad|_K:  7.133e-08  alpha:  1.014e-01  linmin:  2.295e-05  t[s]:   9697.22
	Linear fluid (dielectric constant: 78.4, screening length: 8.12261 Bohr) occupying 0.551834 of unit cell:	Completed after 9 iterations at t[s]:   9763.69
	Linear fluid (dielectric constant: 78.4, screening length: 8.12261 Bohr) occupying 0.551815 of unit cell:	Completed after 7 iterations at t[s]:   9813.47
	FillingsUpdate:  mu: -0.134500000  nElectrons: 532.242735  magneticMoment: [ Abs: 0.00000  Tot: +0.00000 ]
	SubspaceRotationAdjust: set factor to 0.165
ElecMinimize: Iter:  48  G: -5580.335707686741443  |grad|_K:  5.323e-08  alpha:  5.582e-02  linmin:  3.964e-06  t[s]:   9892.90
	Linear fluid (dielectric constant: 78.4, screening length: 8.12261 Bohr) occupying 0.551817 of unit cell:	Completed after 0 iterations at t[s]:   9958.50
	Linear fluid (dielectric constant: 78.4, screening length: 8.12261 Bohr) occupying 0.551823 of unit cell:	Completed after 2 iterations at t[s]:  10008.94
	FillingsUpdate:  mu: -0.134500000  nElectrons: 532.243025  magneticMoment: [ Abs: 0.00000  Tot: +0.00000 ]
	SubspaceRotationAdjust: set factor to 0.197
ElecMinimize: Iter:  49  G: -5580.335707829977764  |grad|_K:  4.888e-08  alpha:  1.645e-01  linmin:  1.163e-05  t[s]:  10086.15
	Linear fluid (dielectric constant: 78.4, screening length: 8.12261 Bohr) occupying 0.551815 of unit cell:	Completed after 6 iterations at t[s]:  10152.89
	Linear fluid (dielectric constant: 78.4, screening length: 8.12261 Bohr) occupying 0.551817 of unit cell:	Completed after 2 iterations at t[s]:  10202.11
	FillingsUpdate:  mu: -0.134500000  nElectrons: 532.242949  magneticMoment: [ Abs: 0.00000  Tot: +0.00000 ]
	SubspaceRotationAdjust: set factor to 0.169
ElecMinimize: Iter:  50  G: -5580.335707916475258  |grad|_K:  3.881e-08  alpha:  1.186e-01  linmin:  6.864e-06  t[s]:  10282.92
	Linear fluid (dielectric constant: 78.4, screening length: 8.12261 Bohr) occupying 0.551832 of unit cell:	Completed after 5 iterations at t[s]:  10347.83
	Linear fluid (dielectric constant: 78.4, screening length: 8.12261 Bohr) occupying 0.551830 of unit cell:	Completed after 0 iterations at t[s]:  10395.95
	FillingsUpdate:  mu: -0.134500000  nElectrons: 532.243295  magneticMoment: [ Abs: 0.00000  Tot: +0.00000 ]
	SubspaceRotationAdjust: set factor to 0.136
ElecMinimize: Iter:  51  G: -5580.335707967816234  |grad|_K:  3.453e-08  alpha:  1.076e-01  linmin:  4.526e-06  t[s]:  10475.12
ElecMinimize: Converged (|Delta G|<1.000000e-07 for 2 iters).
Setting wave functions to eigenvectors of Hamiltonian
Converging empty states (this may take a while): |deigs|: 3.919e-03

Computing DFT-D3 correction:
# coordination-number Cu 4.905 6.247 7.612 9.094 9.050 9.108 9.173 9.160 9.160 9.162 9.107 9.040 8.340 6.875 6.871 8.339 9.037 9.104 9.161 9.159 9.162 9.108 9.174 9.053 9.096 7.616 6.249 4.905
# diagonal-C6 Cu 175.00 175.00 175.00 175.00 175.00 175.00 175.00 175.00 175.00 175.00 175.00 175.00 175.00 175.00 175.00 175.00 175.00 175.00 175.00 175.00 175.00 175.00 175.00 175.00 175.00 175.00 175.00 175.00
EvdW_6 =   -0.175888
EvdW_8 =   -0.258693

# Ionic positions in cartesian coordinates:
ion Cu  -0.000724000000000   0.022324000000000  24.623589000000003 1
ion Cu   5.510154000000000   5.877606000000000   1.399779000000000 1
ion Cu   5.509031000000000   1.496393000000000   3.072794000000000 1
ion Cu   2.760669000000000   7.379919999999999   4.947464000000000 1
ion Cu   2.752545000000000   2.925123000000000   6.774992000000001 1
ion Cu  -0.004456000000000   8.815333000000001   8.547813000000000 1
ion Cu  -0.001500000000000   4.404401999999999  10.363840000000000 1
ion Cu   5.501438000000000   5.893999000000000  13.948601999999999 1
ion Cu   0.002298000000000  -0.002142000000000  12.164809999999999 1
ion Cu   5.510509000000000   1.477858000000000  15.781050000000000 1
ion Cu   2.748860000000000   7.369581999999999  17.558411000000000 1
ion Cu   2.744096000000000   2.952287000000000  19.351434999999999 1
ion Cu   0.029248000000000   8.764660999999998  21.252361000000001 1
ion Cu  -0.010529000000000   4.430649999999999  23.024273999999998 1
ion Cu   1.386892000000000   3.659460000000000   2.197317000000000 1
ion Cu  -1.404790000000000   9.622347000000000   3.970441000000000 1
ion Cu  -1.368058000000000   5.137616999999999   5.872124000000001 1
ion Cu   6.882882000000000   0.721712000000000   7.663105000000001 1
ion Cu   4.121369999999999   6.612148999999999   9.442434000000000 1
ion Cu   4.130527000000001   2.197140000000000  11.276243000000001 1
ion Cu   1.373784000000000   8.092653000000000  13.056328000000002 1
ion Cu  -1.371102000000000   9.572631999999999  16.673929999999999 1
ion Cu   1.377511000000000   3.686593000000000  14.861156000000001 1
ion Cu  -1.376724000000000   5.165685999999999  18.448718000000000 1
ion Cu   6.871398000000000   0.710684000000000  20.275490000000001 1
ion Cu   4.122639000000000   6.593933000000000  22.148041000000003 1
ion Cu   4.121725999999999   2.213604999999999  23.821662000000000 1
ion Cu   1.376536000000000   8.067868000000001   0.598154000000000 1

# Forces in Cartesian coordinates:
force Cu  -0.000041301531180   0.001135396534712  -0.001856329400409 1
force Cu  -0.000126700847287   0.000383152924393  -0.000937964012682 1
force Cu  -0.000057402937490   0.000190369969912  -0.001385934749123 1
force Cu   0.000282750884926  -0.000090664299989   0.001474337846997 1
force Cu   0.000013226183675   0.000201911711328  -0.000155360615032 1
force Cu  -0.000058055957269   0.000103149524683  -0.000009556990927 1
force Cu   0.000074610494781  -0.000107740982227   0.000149902166033 1
force Cu   0.000026493474033  -0.000139584607282   0.000355220873734 1
force Cu  -0.000046026933184   0.000116415813431  -0.000212658333562 1
force Cu  -0.000081458476053   0.000174848368543  -0.000452332883110 1
force Cu   0.000173400509695  -0.000290198790432   0.000373346098128 1
force Cu  -0.000064386913085   0.000119663610739  -0.000645387196285 1
force Cu   0.000082001419652  -0.000331442651544  -0.000103301730490 1
force Cu  -0.000030039714938  -0.000147665516015   0.001125347436389 1
force Cu   0.000034393381664   0.000153776908988  -0.001118739903909 1
force Cu  -0.000068842701111   0.000311975065497   0.000141785321366 1
force Cu   0.000068214506472  -0.000123312781555   0.000657432499228 1
force Cu  -0.000178127645143   0.000290938734143  -0.000340966561695 1
force Cu   0.000081148768967  -0.000178846454604   0.000480983984668 1
force Cu  -0.000031525413356   0.000134601142733  -0.000328524066565 1
force Cu   0.000047567622503  -0.000123282121496   0.000236049598222 1
force Cu   0.000059899395951  -0.000109307388339   0.000035143346099 1
force Cu  -0.000073296223473   0.000108215568232  -0.000115992214611 1
force Cu  -0.000012816968355  -0.000206752406219   0.000176596597696 1
force Cu  -0.000287211945505   0.000082048160810  -0.001485059843520 1
force Cu   0.000047320288260  -0.000195548839843   0.001466547618610 1
force Cu   0.000130206416940  -0.000379383897372   0.000983893571859 1
force Cu   0.000039383817234  -0.001124000066155   0.001869347518972 1

# Energy components:
   A_diel =       -0.0485049946993463
   Eewald =    55314.2104323687162832
       EH =    60506.1098967103098403
     Eloc =  -122532.9691606224369025
      Enl =     1025.4123979878304453
     EvdW =       -0.4345813401276145
      Exc =     -543.4632060995816119
 Exc_core =        1.3151739134996270
       KE =      577.9659533826867346
  MuShift =       -0.0199640200268674
-------------------------------------
     Etot =    -5651.9215627138319178
       TS =        0.0008684635671568
-------------------------------------
        F =    -5651.9224311773987210
      muN =      -71.5867232095826722
-------------------------------------
        G =    -5580.3357079678162336


Dumping 'jdft.fillings' ... done
Dumping 'jdft.wfns' ... done
Dumping 'jdft.fluidState' ... done
Dumping 'jdft.ionpos' ... done
Dumping 'jdft.lattice' ... done
Dumping 'jdft.eigenvals' ... done
Dumping 'jdft.eigStats' ... 
	eMin: -4.276251 at state 18 ( [ +0.000000 +0.000000 +0.000000 ] spin -1 )
	HOMO: -0.134769 at state 9 ( [ +0.285714 +0.200000 +0.000000 ] spin 1 )
	mu  : -0.134500
	LUMO: -0.134449 at state 23 ( [ +0.142857 +0.400000 +0.000000 ] spin -1 )
	eMax: +0.214606 at state 25 ( [ +0.142857 -0.200000 +0.000000 ] spin -1 )
	HOMO-LUMO gap: +0.000320
	Optical gap  : +0.001635 at state 0 ( [ +0.000000 +0.000000 +0.000000 ] spin 1 )
Dumping 'jdft.Ecomponents' ... done
IonicMinimize: Iter:   0  G: -5580.335707967816234  |grad|_K:  5.533e-04  t[s]:  11072.80

#--- Lowdin population analysis ---
# oxidation-state Cu +0.201 +0.073 +0.036 +0.040 +0.072 +0.075 +0.076 +0.076 +0.075 +0.076 +0.075 +0.069 +0.037 +0.067 +0.067 +0.037 +0.069 +0.075 +0.076 +0.076 +0.075 +0.075 +0.076 +0.072 +0.040 +0.036 +0.073 +0.201
# magnetic-moments Cu +0.000 +0.000 +0.000 +0.000 +0.000 -0.000 -0.000 -0.000 -0.000 -0.000 +0.000 +0.000 +0.000 +0.000 +0.000 +0.000 +0.000 +0.000 -0.000 -0.000 -0.000 -0.000 -0.000 +0.000 +0.000 +0.000 +0.000 +0.000


Computing DFT-D3 correction:
# coordination-number Cu 4.909 6.246 7.609 9.093 9.050 9.108 9.174 9.160 9.160 9.162 9.106 9.039 8.339 6.874 6.870 8.338 9.035 9.104 9.162 9.159 9.161 9.108 9.175 9.053 9.095 7.613 6.248 4.909
# diagonal-C6 Cu 175.00 175.00 175.00 175.00 175.00 175.00 175.00 175.00 175.00 175.00 175.00 175.00 175.00 175.00 175.00 175.00 175.00 175.00 175.00 175.00 175.00 175.00 175.00 175.00 175.00 175.00 175.00 175.00
EvdW_6 =   -0.175889
EvdW_8 =   -0.258695
Shifting auxilliary hamiltonian by -0.000040 to set nElectrons=532.243295

-------- Electronic minimization -----------
	Linear fluid (dielectric constant: 78.4, screening length: 8.12261 Bohr) occupying 0.551832 of unit cell:	Completed after 11 iterations at t[s]:  11147.42
	FillingsUpdate:  mu: -0.134500000  nElectrons: 532.243295  magneticMoment: [ Abs: 0.00000  Tot: -0.00000 ]
ElecMinimize: Iter:   0  G: -5580.335725224996168  |grad|_K:  3.338e-07  alpha:  1.000e+00
	Linear fluid (dielectric constant: 78.4, screening length: 8.12261 Bohr) occupying 0.553263 of unit cell:	Completed after 15 iterations at t[s]:  11303.91
	Linear fluid (dielectric constant: 78.4, screening length: 8.12261 Bohr) occupying 0.551939 of unit cell:	Completed after 15 iterations at t[s]:  11357.47
	FillingsUpdate:  mu: -0.134500000  nElectrons: 532.245762  magneticMoment: [ Abs: 0.00000  Tot: -0.00000 ]
	SubspaceRotationAdjust: set factor to 0.0826
ElecMinimize: Iter:   1  G: -5580.335728050155012  |grad|_K:  1.421e-07  alpha:  7.929e-02  linmin: -3.812e-05  t[s]:  11434.78
	Linear fluid (dielectric constant: 78.4, screening length: 8.12261 Bohr) occupying 0.551922 of unit cell:	Completed after 7 iterations at t[s]:  11500.98
ElecMinimize: 	Predicted alpha/alphaT>3.000000, increasing alphaT to 2.378582e-01.
	Linear fluid (dielectric constant: 78.4, screening length: 8.12261 Bohr) occupying 0.551890 of unit cell:	Completed after 8 iterations at t[s]:  11552.60
	Linear fluid (dielectric constant: 78.4, screening length: 8.12261 Bohr) occupying 0.551882 of unit cell:	Completed after 2 iterations at t[s]:  11601.82
	FillingsUpdate:  mu: -0.134500000  nElectrons: 532.244424  magneticMoment: [ Abs: 0.00000  Tot: -0.00000 ]
	SubspaceRotationAdjust: set factor to 0.0828
ElecMinimize: Iter:   2  G: -5580.335729810881276  |grad|_K:  1.295e-07  alpha:  2.726e-01  linmin: -1.694e-05  t[s]:  11680.87
	Linear fluid (dielectric constant: 78.4, screening length: 8.12261 Bohr) occupying 0.551842 of unit cell:	Completed after 10 iterations at t[s]:  11747.72
	Linear fluid (dielectric constant: 78.4, screening length: 8.12261 Bohr) occupying 0.551862 of unit cell:	Completed after 2 iterations at t[s]:  11796.85
	FillingsUpdate:  mu: -0.134500000  nElectrons: 532.243931  magneticMoment: [ Abs: 0.00000  Tot: -0.00000 ]
	SubspaceRotationAdjust: set factor to 0.0888
ElecMinimize: Iter:   3  G: -5580.335730553970279  |grad|_K:  8.004e-08  alpha:  1.374e-01  linmin:  1.779e-05  t[s]:  11876.39
	Linear fluid (dielectric constant: 78.4, screening length: 8.12261 Bohr) occupying 0.551872 of unit cell:	Completed after 7 iterations at t[s]:  11943.89
	Linear fluid (dielectric constant: 78.4, screening length: 8.12261 Bohr) occupying 0.551875 of unit cell:	Completed after 2 iterations at t[s]:  11992.33
	FillingsUpdate:  mu: -0.134500000  nElectrons: 532.244234  magneticMoment: [ Abs: 0.00000  Tot: -0.00000 ]
	SubspaceRotationAdjust: set factor to 0.0839
ElecMinimize: Iter:   4  G: -5580.335730917700857  |grad|_K:  4.842e-08  alpha:  1.755e-01  linmin: -1.380e-04  t[s]:  12070.77
	Linear fluid (dielectric constant: 78.4, screening length: 8.12261 Bohr) occupying 0.551869 of unit cell:	Completed after 2 iterations at t[s]:  12136.67
	Linear fluid (dielectric constant: 78.4, screening length: 8.12261 Bohr) occupying 0.551869 of unit cell:	Completed after 0 iterations at t[s]:  12186.54
	FillingsUpdate:  mu: -0.134500000  nElectrons: 532.244076  magneticMoment: [ Abs: 0.00000  Tot: -0.00000 ]
	SubspaceRotationAdjust: set factor to 0.0936
ElecMinimize: Iter:   5  G: -5580.335731075985677  |grad|_K:  5.242e-08  alpha:  1.951e-01  linmin: -1.217e-05  t[s]:  12263.90
	Linear fluid (dielectric constant: 78.4, screening length: 8.12261 Bohr) occupying 0.551854 of unit cell:	Completed after 6 iterations at t[s]:  12329.66
	Linear fluid (dielectric constant: 78.4, screening length: 8.12261 Bohr) occupying 0.551855 of unit cell:	Completed after 0 iterations at t[s]:  12379.43
	FillingsUpdate:  mu: -0.134500000  nElectrons: 532.243748  magneticMoment: [ Abs: 0.00000  Tot: -0.00000 ]
	SubspaceRotationAdjust: set factor to 0.0907
ElecMinimize: Iter:   6  G: -5580.335731244990711  |grad|_K:  4.376e-08  alpha:  1.897e-01  linmin: -2.147e-05  t[s]:  12458.98
	Linear fluid (dielectric constant: 78.4, screening length: 8.12261 Bohr) occupying 0.551868 of unit cell:	Completed after 5 iterations at t[s]:  12523.74
	Linear fluid (dielectric constant: 78.4, screening length: 8.12261 Bohr) occupying 0.551863 of unit cell:	Completed after 2 iterations at t[s]:  12572.56
	FillingsUpdate:  mu: -0.134500000  nElectrons: 532.243932  magneticMoment: [ Abs: 0.00000  Tot: -0.00000 ]
	SubspaceRotationAdjust: set factor to 0.118
ElecMinimize: Iter:   7  G: -5580.335731316574311  |grad|_K:  3.104e-08  alpha:  1.146e-01  linmin:  1.340e-05  t[s]:  12652.22
	Linear fluid (dielectric constant: 78.4, screening length: 8.12261 Bohr) occupying 0.551868 of unit cell:	Completed after 2 iterations at t[s]:  12718.54
	Linear fluid (dielectric constant: 78.4, screening length: 8.12261 Bohr) occupying 0.551873 of unit cell:	Completed after 2 iterations at t[s]:  12767.65
	FillingsUpdate:  mu: -0.134500000  nElectrons: 532.244159  magneticMoment: [ Abs: 0.00000  Tot: -0.00000 ]
	SubspaceRotationAdjust: set factor to 0.13
ElecMinimize: Iter:   8  G: -5580.335731375331306  |grad|_K:  3.445e-08  alpha:  2.149e-01  linmin:  2.231e-05  t[s]:  12845.20
ElecMinimize: Converged (|Delta G|<1.000000e-07 for 2 iters).
Setting wave functions to eigenvectors of Hamiltonian
Converging empty states (this may take a while): |deigs|: 1.804e-08

Computing DFT-D3 correction:
# coordination-number Cu 4.909 6.246 7.609 9.093 9.050 9.108 9.174 9.160 9.160 9.162 9.106 9.039 8.339 6.874 6.870 8.338 9.035 9.104 9.162 9.159 9.161 9.108 9.175 9.053 9.095 7.613 6.248 4.909
# diagonal-C6 Cu 175.00 175.00 175.00 175.00 175.00 175.00 175.00 175.00 175.00 175.00 175.00 175.00 175.00 175.00 175.00 175.00 175.00 175.00 175.00 175.00 175.00 175.00 175.00 175.00 175.00 175.00 175.00 175.00
EvdW_6 =   -0.175889
EvdW_8 =   -0.258695
IonicMinimize: 	Wolfe criterion not satisfied: alpha: 1  (E-E0)/|gdotd0|: -0.910147  gdotd/gdotd0: 0.985042 (taking cubic step)

Computing DFT-D3 correction:
# coordination-number Cu 4.917 6.243 7.603 9.092 9.050 9.108 9.175 9.161 9.159 9.164 9.106 9.036 8.336 6.871 6.867 8.336 9.032 9.104 9.163 9.160 9.161 9.108 9.176 9.053 9.094 7.607 6.246 4.917
# diagonal-C6 Cu 175.00 175.00 175.00 175.00 175.00 175.00 175.00 175.00 175.00 175.00 175.00 175.00 175.00 175.00 175.00 175.00 175.00 175.00 175.00 175.00 175.00 175.00 175.00 175.00 175.00 175.00 175.00 175.00
EvdW_6 =   -0.175889
EvdW_8 =   -0.258699
Shifting auxilliary hamiltonian by -0.000034 to set nElectrons=532.244159

-------- Electronic minimization -----------
	Linear fluid (dielectric constant: 78.4, screening length: 8.12261 Bohr) occupying 0.551874 of unit cell:	Completed after 11 iterations at t[s]:  13110.59
	FillingsUpdate:  mu: -0.134500000  nElectrons: 532.244159  magneticMoment: [ Abs: 0.00000  Tot: -0.00000 ]
ElecMinimize: Iter:   0  G: -5580.335755281679667  |grad|_K:  4.457e-07  alpha:  1.000e+00
	Linear fluid (dielectric constant: 78.4, screening length: 8.12261 Bohr) occupying 0.552858 of unit cell:	Completed after 19 iterations at t[s]:  13270.03
	Linear fluid (dielectric constant: 78.4, screening length: 8.12261 Bohr) occupying 0.551981 of unit cell:	Completed after 19 iterations at t[s]:  13322.45
	FillingsUpdate:  mu: -0.134500000  nElectrons: 532.246626  magneticMoment: [ Abs: 0.00000  Tot: -0.00000 ]
	SubspaceRotationAdjust: set factor to 0.112
ElecMinimize: Iter:   1  G: -5580.335762482793143  |grad|_K:  2.720e-07  alpha:  1.135e-01  linmin: -8.486e-05  t[s]:  13400.42
	Linear fluid (dielectric constant: 78.4, screening length: 8.12261 Bohr) occupying 0.551949 of unit cell:	Completed after 10 iterations at t[s]:  13468.14
	Linear fluid (dielectric constant: 78.4, screening length: 8.12261 Bohr) occupying 0.551910 of unit cell:	Completed after 10 iterations at t[s]:  13519.00
	FillingsUpdate:  mu: -0.134500000  nElectrons: 532.244957  magneticMoment: [ Abs: 0.00000  Tot: -0.00000 ]
	SubspaceRotationAdjust: set factor to 0.094
ElecMinimize: Iter:   2  G: -5580.335768486940651  |grad|_K:  2.026e-07  alpha:  2.529e-01  linmin: -3.264e-04  t[s]:  13598.04
	Linear fluid (dielectric constant: 78.4, screening length: 8.12261 Bohr) occupying 0.551956 of unit cell:	Completed after 11 iterations at t[s]:  13665.14
	Linear fluid (dielectric constant: 78.4, screening length: 8.12261 Bohr) occupying 0.551941 of unit cell:	Completed after 5 iterations at t[s]:  13715.13
	FillingsUpdate:  mu: -0.134500000  nElectrons: 532.245658  magneticMoment: [ Abs: 0.00000  Tot: -0.00000 ]
	SubspaceRotationAdjust: set factor to 0.0942
ElecMinimize: Iter:   3  G: -5580.335770737025996  |grad|_K:  1.579e-07  alpha:  1.704e-01  linmin:  1.979e-04  t[s]:  13794.74
	Linear fluid (dielectric constant: 78.4, screening length: 8.12261 Bohr) occupying 0.551935 of unit cell:	Completed after 7 iterations at t[s]:  13862.26
	Linear fluid (dielectric constant: 78.4, screening length: 8.12261 Bohr) occupying 0.551936 of unit cell:	Completed after 0 iterations at t[s]:  13910.17
	FillingsUpdate:  mu: -0.134500000  nElectrons: 532.245525  magneticMoment: [ Abs: 0.00000  Tot: -0.00000 ]
	SubspaceRotationAdjust: set factor to 0.111
ElecMinimize: Iter:   4  G: -5580.335771977372133  |grad|_K:  9.177e-08  alpha:  1.567e-01  linmin:  9.634e-04  t[s]:  13989.02
	Linear fluid (dielectric constant: 78.4, screening length: 8.12261 Bohr) occupying 0.551928 of unit cell:	Completed after 2 iterations at t[s]:  14055.05
	Linear fluid (dielectric constant: 78.4, screening length: 8.12261 Bohr) occupying 0.551922 of unit cell:	Completed after 6 iterations at t[s]:  14107.06
	FillingsUpdate:  mu: -0.134500000  nElectrons: 532.245202  magneticMoment: [ Abs: 0.00017  Tot: +0.00000 ]
	SubspaceRotationAdjust: set factor to 0.116
ElecMinimize: Iter:   5  G: -5580.335772666908269  |grad|_K:  9.710e-08  alpha:  2.626e-01  linmin: -9.193e-04  t[s]:  14184.41
	Linear fluid (dielectric constant: 78.4, screening length: 8.12261 Bohr) occupying 0.551933 of unit cell:	Completed after 6 iterations at t[s]:  14250.29
	Linear fluid (dielectric constant: 78.4, screening length: 8.12261 Bohr) occupying 0.551930 of unit cell:	Completed after 2 iterations at t[s]:  14300.37
	FillingsUpdate:  mu: -0.134500000  nElectrons: 532.245368  magneticMoment: [ Abs: 0.00076  Tot: +0.00005 ]
	SubspaceRotationAdjust: set factor to 0.141
ElecMinimize: Iter:   6  G: -5580.335773215481822  |grad|_K:  6.510e-08  alpha:  1.778e-01  linmin: -8.439e-05  t[s]:  14380.49
	Linear fluid (dielectric constant: 78.4, screening length: 8.12261 Bohr) occupying 0.551938 of unit cell:	Completed after 2 iterations at t[s]:  14444.59
	Linear fluid (dielectric constant: 78.4, screening length: 8.12261 Bohr) occupying 0.551938 of unit cell:	Completed after 0 iterations at t[s]:  14493.03
	FillingsUpdate:  mu: -0.134500000  nElectrons: 532.245579  magneticMoment: [ Abs: 0.00055  Tot: +0.00007 ]
	SubspaceRotationAdjust: set factor to 0.166
ElecMinimize: Iter:   7  G: -5580.335773463149053  |grad|_K:  7.243e-08  alpha:  1.832e-01  linmin:  1.828e-04  t[s]:  14572.74
	Linear fluid (dielectric constant: 78.4, screening length: 8.12261 Bohr) occupying 0.551953 of unit cell:	Completed after 7 iterations at t[s]:  14640.74
	Linear fluid (dielectric constant: 78.4, screening length: 8.12261 Bohr) occupying 0.551953 of unit cell:	Completed after 0 iterations at t[s]:  14688.96
	FillingsUpdate:  mu: -0.134500000  nElectrons: 532.245944  magneticMoment: [ Abs: 0.00034  Tot: +0.00011 ]
	SubspaceRotationAdjust: set factor to 0.142
ElecMinimize: Iter:   8  G: -5580.335773777866052  |grad|_K:  6.845e-08  alpha:  1.895e-01  linmin: -1.037e-03  t[s]:  14767.26
	Linear fluid (dielectric constant: 78.4, screening length: 8.12261 Bohr) occupying 0.551911 of unit cell:	Completed after 10 iterations at t[s]:  14835.34
	Linear fluid (dielectric constant: 78.4, screening length: 8.12261 Bohr) occupying 0.551928 of unit cell:	Completed after 6 iterations at t[s]:  14885.77
	FillingsUpdate:  mu: -0.134500000  nElectrons: 532.245375  magneticMoment: [ Abs: 0.00045  Tot: +0.00013 ]
	SubspaceRotationAdjust: set factor to 0.127
ElecMinimize: Iter:   9  G: -5580.335773963621250  |grad|_K:  5.940e-08  alpha:  1.146e-01  linmin:  2.954e-04  t[s]:  14965.35
	Linear fluid (dielectric constant: 78.4, screening length: 8.12261 Bohr) occupying 0.551928 of unit cell:	Completed after 2 iterations at t[s]:  15030.12
	Linear fluid (dielectric constant: 78.4, screening length: 8.12261 Bohr) occupying 0.551927 of unit cell:	Completed after 2 iterations at t[s]:  15079.31
	FillingsUpdate:  mu: -0.134500000  nElectrons: 532.245421  magneticMoment: [ Abs: 0.00026  Tot: +0.00016 ]
	SubspaceRotationAdjust: set factor to 0.166
ElecMinimize: Iter:  10  G: -5580.335774258684978  |grad|_K:  7.265e-08  alpha:  2.617e-01  linmin: -3.029e-04  t[s]:  15158.83
	Linear fluid (dielectric constant: 78.4, screening length: 8.12261 Bohr) occupying 0.551973 of unit cell:	Completed after 10 iterations at t[s]:  15227.12
	Linear fluid (dielectric constant: 78.4, screening length: 8.12261 Bohr) occupying 0.551951 of unit cell:	Completed after 7 iterations at t[s]:  15276.57
	FillingsUpdate:  mu: -0.134500000  nElectrons: 532.246025  magneticMoment: [ Abs: 0.00048  Tot: +0.00019 ]
	SubspaceRotationAdjust: set factor to 0.14
ElecMinimize: Iter:  11  G: -5580.335774495965779  |grad|_K:  5.579e-08  alpha:  1.353e-01  linmin:  1.281e-04  t[s]:  15355.14
	Linear fluid (dielectric constant: 78.4, screening length: 8.12261 Bohr) occupying 0.551938 of unit cell:	Completed after 6 iterations at t[s]:  15422.07
	Linear fluid (dielectric constant: 78.4, screening length: 8.12261 Bohr) occupying 0.551933 of unit cell:	Completed after 0 iterations at t[s]:  15471.99
	FillingsUpdate:  mu: -0.134500000  nElectrons: 532.245669  magneticMoment: [ Abs: 0.00038  Tot: +0.00020 ]
	SubspaceRotationAdjust: set factor to 0.143
ElecMinimize: Iter:  12  G: -5580.335774687764570  |grad|_K:  5.616e-08  alpha:  1.880e-01  linmin: -8.218e-04  t[s]:  15549.68
	Linear fluid (dielectric constant: 78.4, screening length: 8.12261 Bohr) occupying 0.551923 of unit cell:	Completed after 5 iterations at t[s]:  15615.31
	Linear fluid (dielectric constant: 78.4, screening length: 8.12261 Bohr) occupying 0.551925 of unit cell:	Completed after 0 iterations at t[s]:  15664.66
	FillingsUpdate:  mu: -0.134500000  nElectrons: 532.245523  magneticMoment: [ Abs: 0.00037  Tot: +0.00019 ]
	SubspaceRotationAdjust: set factor to 0.161
ElecMinimize: Iter:  13  G: -5580.335774861084246  |grad|_K:  6.051e-08  alpha:  1.568e-01  linmin: -4.039e-04  t[s]:  15745.02
	Linear fluid (dielectric constant: 78.4, screening length: 8.12261 Bohr) occupying 0.551952 of unit cell:	Completed after 9 iterations at t[s]:  15810.51
	Linear fluid (dielectric constant: 78.4, screening length: 8.12261 Bohr) occupying 0.551943 of unit cell:	Completed after 3 iterations at t[s]:  15860.01
	FillingsUpdate:  mu: -0.134500000  nElectrons: 532.245992  magneticMoment: [ Abs: 0.00057  Tot: +0.00017 ]
	SubspaceRotationAdjust: set factor to 0.126
ElecMinimize: Iter:  14  G: -5580.335774990350728  |grad|_K:  5.546e-08  alpha:  1.040e-01  linmin:  2.918e-04  t[s]:  15939.32
	Linear fluid (dielectric constant: 78.4, screening length: 8.12261 Bohr) occupying 0.551942 of unit cell:	Completed after 2 iterations at t[s]:  16006.34
	Linear fluid (dielectric constant: 78.4, screening length: 8.12261 Bohr) occupying 0.551941 of unit cell:	Completed after 0 iterations at t[s]:  16053.99
	FillingsUpdate:  mu: -0.134500000  nElectrons: 532.246013  magneticMoment: [ Abs: 0.00044  Tot: +0.00015 ]
	SubspaceRotationAdjust: set factor to 0.16
ElecMinimize: Iter:  15  G: -5580.335775121638108  |grad|_K:  4.810e-08  alpha:  1.364e-01  linmin: -3.570e-04  t[s]:  16132.65
	Linear fluid (dielectric constant: 78.4, screening length: 8.12261 Bohr) occupying 0.551925 of unit cell:	Completed after 7 iterations at t[s]:  16199.94
	Linear fluid (dielectric constant: 78.4, screening length: 8.12261 Bohr) occupying 0.551932 of unit cell:	Completed after 2 iterations at t[s]:  16249.24
	FillingsUpdate:  mu: -0.134500000  nElectrons: 532.245825  magneticMoment: [ Abs: 0.00024  Tot: +0.00014 ]
	SubspaceRotationAdjust: set factor to 0.121
ElecMinimize: Iter:  16  G: -5580.335775177417418  |grad|_K:  3.543e-08  alpha:  7.912e-02  linmin:  1.913e-04  t[s]:  16328.66
	Linear fluid (dielectric constant: 78.4, screening length: 8.12261 Bohr) occupying 0.551940 of unit cell:	Completed after 3 iterations at t[s]:  16393.84
	Linear fluid (dielectric constant: 78.4, screening length: 8.12261 Bohr) occupying 0.551940 of unit cell:	Completed after 0 iterations at t[s]:  16442.22
	FillingsUpdate:  mu: -0.134500000  nElectrons: 532.246025  magneticMoment: [ Abs: 0.00013  Tot: +0.00013 ]
	SubspaceRotationAdjust: set factor to 0.159
ElecMinimize: Iter:  17  G: -5580.335775209618077  |grad|_K:  3.085e-08  alpha:  8.257e-02  linmin: -9.804e-04  t[s]:  16521.55
ElecMinimize: Converged (|Delta G|<1.000000e-07 for 2 iters).
Setting wave functions to eigenvectors of Hamiltonian
Converging empty states (this may take a while): |deigs|: 8.949e-09

Computing DFT-D3 correction:
[...]
	Linear fluid (dielectric constant: 78.4, screening length: 8.12261 Bohr) occupying 0.552705 of unit cell:	Completed after 9 iterations at t[s]:  31455.00
	Linear fluid (dielectric constant: 78.4, screening length: 8.12261 Bohr) occupying 0.552702 of unit cell:	Completed after 10 iterations at t[s]:  31505.84
	FillingsUpdate:  mu: -0.134500000  nElectrons: 532.268505  magneticMoment: [ Abs: 0.00073  Tot: +0.00013 ]
	SubspaceRotationAdjust: set factor to 0.0985
ElecMinimize: Iter:   4  G: -5580.335961502608370  |grad|_K:  2.309e-07  alpha:  2.553e-01  linmin: -1.514e-04  t[s]:  31585.26
	Linear fluid (dielectric constant: 78.4, screening length: 8.12261 Bohr) occupying 0.552766 of unit cell:	Completed after 10 iterations at t[s]:  31653.97
	Linear fluid (dielectric constant: 78.4, screening length: 8.12261 Bohr) occupying 0.552744 of unit cell:	Completed after 8 iterations at t[s]:  31702.59
	FillingsUpdate:  mu: -0.134500000  nElectrons: 532.269411  magneticMoment: [ Abs: 0.00047  Tot: +0.00013 ]
	SubspaceRotationAdjust: set factor to 0.113
ElecMinimize: Iter:   5  G: -5580.335964379051802  |grad|_K:  1.583e-07  alpha:  1.680e-01  linmin:  4.493e-05  t[s]:  31780.63
	Linear fluid (dielectric constant: 78.4, screening length: 8.12261 Bohr) occupying 0.552764 of unit cell:	Completed after 7 iterations at t[s]:  31848.10
	Linear fluid (dielectric constant: 78.4, screening length: 8.12261 Bohr) occupying 0.552763 of unit cell:	Completed after 0 iterations at t[s]:  31898.08
	FillingsUpdate:  mu: -0.134500000  nElectrons: 532.269848  magneticMoment: [ Abs: 0.00036  Tot: +0.00013 ]
	SubspaceRotationAdjust: set factor to 0.139
ElecMinimize: Iter:   6  G: -5580.335965675660191  |grad|_K:  1.069e-07  alpha:  1.631e-01  linmin:  4.264e-05  t[s]:  31975.38
	Linear fluid (dielectric constant: 78.4, screening length: 8.12261 Bohr) occupying 0.552737 of unit cell:	Completed after 7 iterations at t[s]:  32041.46
	Linear fluid (dielectric constant: 78.4, screening length: 8.12261 Bohr) occupying 0.552727 of unit cell:	Completed after 2 iterations at t[s]:  32091.32
	FillingsUpdate:  mu: -0.134500000  nElectrons: 532.269113  magneticMoment: [ Abs: 0.00032  Tot: +0.00012 ]
	SubspaceRotationAdjust: set factor to 0.159
ElecMinimize: Iter:   7  G: -5580.335966483346056  |grad|_K:  1.267e-07  alpha:  2.234e-01  linmin: -2.547e-05  t[s]:  32170.40
	Linear fluid (dielectric constant: 78.4, screening length: 8.12261 Bohr) occupying 0.552707 of unit cell:	Completed after 8 iterations at t[s]:  32236.70
	Linear fluid (dielectric constant: 78.4, screening length: 8.12261 Bohr) occupying 0.552702 of unit cell:	Completed after 2 iterations at t[s]:  32285.47
	FillingsUpdate:  mu: -0.134500000  nElectrons: 532.268625  magneticMoment: [ Abs: 0.00023  Tot: +0.00011 ]
	SubspaceRotationAdjust: set factor to 0.193
ElecMinimize: Iter:   8  G: -5580.335967905634789  |grad|_K:  1.377e-07  alpha:  2.748e-01  linmin: -5.201e-05  t[s]:  32364.35
	Linear fluid (dielectric constant: 78.4, screening length: 8.12261 Bohr) occupying 0.552814 of unit cell:	Completed after 11 iterations at t[s]:  32432.21
	Linear fluid (dielectric constant: 78.4, screening length: 8.12261 Bohr) occupying 0.552757 of unit cell:	Completed after 11 iterations at t[s]:  32484.75
	FillingsUpdate:  mu: -0.134500000  nElectrons: 532.269838  magneticMoment: [ Abs: 0.00022  Tot: +0.00010 ]
	SubspaceRotationAdjust: set factor to 0.185
ElecMinimize: Iter:   9  G: -5580.335968755291105  |grad|_K:  1.258e-07  alpha:  1.354e-01  linmin:  3.261e-07  t[s]:  32561.44
	Linear fluid (dielectric constant: 78.4, screening length: 8.12261 Bohr) occupying 0.552746 of unit cell:	Completed after 7 iterations at t[s]:  32627.89
	Linear fluid (dielectric constant: 78.4, screening length: 8.12261 Bohr) occupying 0.552734 of unit cell:	Completed after 6 iterations at t[s]:  32678.16
	FillingsUpdate:  mu: -0.134500000  nElectrons: 532.269475  magneticMoment: [ Abs: 0.00023  Tot: +0.00008 ]
	SubspaceRotationAdjust: set factor to 0.173
ElecMinimize: Iter:  10  G: -5580.335970119127524  |grad|_K:  1.653e-07  alpha:  2.723e-01  linmin:  7.237e-06  t[s]:  32757.50
	Linear fluid (dielectric constant: 78.4, screening length: 8.12261 Bohr) occupying 0.552833 of unit cell:	Completed after 10 iterations at t[s]:  32826.72
	Linear fluid (dielectric constant: 78.4, screening length: 8.12261 Bohr) occupying 0.552783 of unit cell:	Completed after 9 iterations at t[s]:  32875.62
	FillingsUpdate:  mu: -0.134500000  nElectrons: 532.270631  magneticMoment: [ Abs: 0.00029  Tot: +0.00005 ]
	SubspaceRotationAdjust: set factor to 0.182
ElecMinimize: Iter:  11  G: -5580.335971301987229  |grad|_K:  1.086e-07  alpha:  1.360e-01  linmin:  2.196e-06  t[s]:  32953.83
	Linear fluid (dielectric constant: 78.4, screening length: 8.12261 Bohr) occupying 0.552797 of unit cell:	Completed after 2 iterations at t[s]:  33020.09
	Linear fluid (dielectric constant: 78.4, screening length: 8.12261 Bohr) occupying 0.552802 of unit cell:	Completed after 2 iterations at t[s]:  33070.03
	FillingsUpdate:  mu: -0.134500000  nElectrons: 532.271107  magneticMoment: [ Abs: 0.00021  Tot: +0.00004 ]
	SubspaceRotationAdjust: set factor to 0.196
ElecMinimize: Iter:  12  G: -5580.335971993270505  |grad|_K:  1.063e-07  alpha:  1.852e-01  linmin:  5.583e-06  t[s]:  33147.68
	Linear fluid (dielectric constant: 78.4, screening length: 8.12261 Bohr) occupying 0.552796 of unit cell:	Completed after 3 iterations at t[s]:  33212.96
	Linear fluid (dielectric constant: 78.4, screening length: 8.12261 Bohr) occupying 0.552795 of unit cell:	Completed after 0 iterations at t[s]:  33261.53
	FillingsUpdate:  mu: -0.134500000  nElectrons: 532.271074  magneticMoment: [ Abs: 0.00012  Tot: +0.00002 ]
	SubspaceRotationAdjust: set factor to 0.203
ElecMinimize: Iter:  13  G: -5580.335972752758607  |grad|_K:  9.252e-08  alpha:  2.122e-01  linmin: -2.907e-05  t[s]:  33341.19
	Linear fluid (dielectric constant: 78.4, screening length: 8.12261 Bohr) occupying 0.552801 of unit cell:	Completed after 2 iterations at t[s]:  33406.77
	Linear fluid (dielectric constant: 78.4, screening length: 8.12261 Bohr) occupying 0.552801 of unit cell:	Completed after 0 iterations at t[s]:  33454.83
	FillingsUpdate:  mu: -0.134500000  nElectrons: 532.271274  magneticMoment: [ Abs: 0.00018  Tot: +0.00000 ]
	SubspaceRotationAdjust: set factor to 0.206
ElecMinimize: Iter:  14  G: -5580.335973295192161  |grad|_K:  7.993e-08  alpha:  1.950e-01  linmin: -2.008e-05  t[s]:  33532.86
	Linear fluid (dielectric constant: 78.4, screening length: 8.12261 Bohr) occupying 0.552806 of unit cell:	Completed after 2 iterations at t[s]:  33598.77
	Linear fluid (dielectric constant: 78.4, screening length: 8.12261 Bohr) occupying 0.552805 of unit cell:	Completed after 2 iterations at t[s]:  33649.90
	FillingsUpdate:  mu: -0.134500000  nElectrons: 532.271405  magneticMoment: [ Abs: 0.00019  Tot: -0.00000 ]
	SubspaceRotationAdjust: set factor to 0.206
ElecMinimize: Iter:  15  G: -5580.335973578220546  |grad|_K:  5.805e-08  alpha:  1.395e-01  linmin: -3.981e-05  t[s]:  33726.87
	Linear fluid (dielectric constant: 78.4, screening length: 8.12261 Bohr) occupying 0.552780 of unit cell:	Completed after 5 iterations at t[s]:  33792.36
	Linear fluid (dielectric constant: 78.4, screening length: 8.12261 Bohr) occupying 0.552781 of unit cell:	Completed after 0 iterations at t[s]:  33841.97
	FillingsUpdate:  mu: -0.134500000  nElectrons: 532.270935  magneticMoment: [ Abs: 0.00051  Tot: -0.00004 ]
	SubspaceRotationAdjust: set factor to 0.172
ElecMinimize: Iter:  16  G: -5580.335973724098949  |grad|_K:  5.651e-08  alpha:  1.341e-01  linmin: -3.697e-05  t[s]:  33921.40
	Linear fluid (dielectric constant: 78.4, screening length: 8.12261 Bohr) occupying 0.552788 of unit cell:	Completed after 2 iterations at t[s]:  33985.13
	Linear fluid (dielectric constant: 78.4, screening length: 8.12261 Bohr) occupying 0.552788 of unit cell:	Completed after 0 iterations at t[s]:  34033.49
	FillingsUpdate:  mu: -0.134500000  nElectrons: 532.271121  magneticMoment: [ Abs: 0.00053  Tot: -0.00007 ]
	SubspaceRotationAdjust: set factor to 0.21
ElecMinimize: Iter:  17  G: -5580.335973875468881  |grad|_K:  4.604e-08  alpha:  1.452e-01  linmin: -1.432e-04  t[s]:  34112.64
	Linear fluid (dielectric constant: 78.4, screening length: 8.12261 Bohr) occupying 0.552809 of unit cell:	Completed after 8 iterations at t[s]:  34180.54
	Linear fluid (dielectric constant: 78.4, screening length: 8.12261 Bohr) occupying 0.552799 of unit cell:	Completed after 3 iterations at t[s]:  34229.67
	FillingsUpdate:  mu: -0.134500000  nElectrons: 532.271371  magneticMoment: [ Abs: 0.00036  Tot: -0.00007 ]
	SubspaceRotationAdjust: set factor to 0.161
ElecMinimize: Iter:  18  G: -5580.335973924703467  |grad|_K:  5.029e-08  alpha:  7.922e-02  linmin:  1.412e-04  t[s]:  34306.98
	Linear fluid (dielectric constant: 78.4, screening length: 8.12261 Bohr) occupying 0.552787 of unit cell:	Completed after 6 iterations at t[s]:  34373.89
	Linear fluid (dielectric constant: 78.4, screening length: 8.12261 Bohr) occupying 0.552791 of unit cell:	Completed after 0 iterations at t[s]:  34422.56
	FillingsUpdate:  mu: -0.134500000  nElectrons: 532.271202  magneticMoment: [ Abs: 0.00019  Tot: -0.00008 ]
	SubspaceRotationAdjust: set factor to 0.168
ElecMinimize: Iter:  19  G: -5580.335973965248741  |grad|_K:  3.210e-08  alpha:  5.375e-02  linmin:  2.607e-04  t[s]:  34502.21
ElecMinimize: Converged (|Delta G|<1.000000e-07 for 2 iters).
Setting wave functions to eigenvectors of Hamiltonian
Converging empty states (this may take a while): |deigs|: 5.127e-09

Computing DFT-D3 correction:
# coordination-number Cu 4.989 6.241 7.555 9.075 9.037 9.101 9.166 9.154 9.149 9.158 9.089 9.006 8.331 6.842 6.839 8.334 9.008 9.092 9.160 9.155 9.150 9.098 9.164 9.034 9.072 7.553 6.241 4.989
# diagonal-C6 Cu 175.00 175.00 175.00 175.00 175.00 175.00 175.00 175.00 175.00 175.00 175.00 175.00 175.00 175.00 175.00 175.00 175.00 175.00 175.00 175.00 175.00 175.00 175.00 175.00 175.00 175.00 175.00 175.00
EvdW_6 =   -0.175818
EvdW_8 =   -0.258548

# Ionic positions in cartesian coordinates:
ion Cu   0.000923067386648   0.048332223404356  24.585163731816152 1
ion Cu   5.506048965968392   5.888142681362862   1.382550283574016 1
ion Cu   5.509143537484665   1.501203036132050   3.032590005681195 1
ion Cu   2.770279583749710   7.378487535228888   4.974367841719965 1
ion Cu   2.754390040776514   2.929382283374686   6.759500211149793 1
ion Cu  -0.007774970980267   8.819113831223165   8.547490947606549 1
ion Cu   0.000192744242860   4.404717583933687  10.362331618659258 1
ion Cu   5.502775524204766   5.892321044963059  13.958137506284579 1
ion Cu   0.001721595593754   0.000172398748542  12.158412777313439 1
ion Cu   5.507723321337102   1.478813367834979  15.769016935659650 1
ion Cu   2.753007005266928   7.360513805790189  17.571136023018301 1
ion Cu   2.740243945374208   2.952437379431332  19.356337150459382 1
ion Cu   0.031823957772408   8.756671452886080  21.250141272513282 1
ion Cu  -0.009798323235086   4.438475809609882  23.055950175466059 1
ion Cu   1.386184144550602   3.651071971948399   2.166455602369122 1
ion Cu  -1.407768800053513   9.629641098031779   3.973580612702625 1
ion Cu  -1.363740885965252   5.137174241882044   5.867649345194614 1
ion Cu   6.878575321366659   0.730772361023390   7.649833220149606 1
ion Cu   4.124306455549462   6.611573189759056   9.452957655816832 1
ion Cu   4.129316354323134   2.199732880748154  11.264903397327611 1
ion Cu   1.374621034813156   8.091307432593860  13.060952176723717 1
ion Cu  -1.367766530315874   9.569251687369544  16.673280559761917 1
ion Cu   1.376181347056372   3.686924201380307  14.861477761477994 1
ion Cu  -1.378712907623409   5.161307976144674  18.463550660250657 1
ion Cu   6.861492524633568   0.711291406740426  20.248342374911690 1
ion Cu   4.122348192443502   6.588599295643087  22.191066621894013 1
ion Cu   4.125801779581423   2.202097251672463  23.841300612768283 1
ion Cu   1.374691974697568   8.042545571139055   0.637879917729700 1

# Forces in Cartesian coordinates:
force Cu   0.000077011547633   0.000059309419900  -0.000065604258992 1
force Cu  -0.000049246925025  -0.000019099425052   0.000047948574754 1
force Cu  -0.000002607378572  -0.000027739531183   0.000009831809377 1
force Cu  -0.000035428273406   0.000019316249827  -0.000120224778467 1
force Cu   0.000051259655252   0.000019012897880  -0.000049819323876 1
force Cu   0.000032207444737   0.000060191269766  -0.000019167436323 1
force Cu   0.000015446467659   0.000009154651535  -0.000008575529208 1
force Cu  -0.000010203881686  -0.000007666629214   0.000032254868216 1
force Cu  -0.000033380178086  -0.000009297930805   0.000067003081694 1
force Cu  -0.000021707130831  -0.000033559855177   0.000093271509527 1
force Cu  -0.000017850275410  -0.000052089931709   0.000038713820520 1
force Cu  -0.000057405933929   0.000025828675457   0.000046313013770 1
force Cu  -0.000028836475860   0.000003015380878   0.000037656901889 1
force Cu  -0.000005106498497  -0.000036889699943   0.000028168906367 1
force Cu   0.000003065146973   0.000042182552531  -0.000022569047748 1
force Cu   0.000049925163224  -0.000009920582977   0.000004482999334 1
force Cu   0.000040300622732  -0.000012470112735  -0.000036837734200 1
force Cu   0.000023847002324   0.000047817778687  -0.000006311272415 1
force Cu   0.000023120318694   0.000033585475682  -0.000047382651862 1
force Cu   0.000015948578075  -0.000006507336796   0.000047601893621 1
force Cu   0.000033868083342  -0.000005106013125   0.000026602201232 1
force Cu  -0.000025909001531  -0.000063135246782   0.000067406111395 1
force Cu  -0.000021765483491  -0.000011066445103   0.000085493320438 1
force Cu  -0.000048965043378  -0.000024071820459   0.000074361758148 1
force Cu   0.000036548827953  -0.000006289936631   0.000109363440448 1
force Cu  -0.000005428351189   0.000033659057850   0.000018777125818 1
force Cu   0.000052383859412   0.000023982195736  -0.000077864589812 1
force Cu  -0.000066444601268  -0.000056880179477  -0.000034269114233 1

# Energy components:
   A_diel =       -0.0547250383927646
   Eewald =    55281.3423529988140217
       EH =    60475.0628385006784811
     Eloc =  -122469.0360895716148661
      Enl =     1025.4063426278062252
     EvdW =       -0.4343653324796390
      Exc =     -543.4643595068654349
 Exc_core =        1.3151717129509994
       KE =      577.9595000896366628
  MuShift =       -0.0222539606615358
-------------------------------------
     Etot =    -5651.9255874801310711
       TS =        0.0008631575412026
-------------------------------------
        F =    -5651.9264506376721329
      muN =      -71.5904766724232786
-------------------------------------
        G =    -5580.3359739652487406


Dumping 'jdft.fillings' ... done
Dumping 'jdft.wfns' ... done
Dumping 'jdft.fluidState' ... done
Dumping 'jdft.ionpos' ... done
Dumping 'jdft.lattice' ... done
Dumping 'jdft.eigenvals' ... done
Dumping 'jdft.eigStats' ... 
	eMin: -4.276127 at state 18 ( [ +0.000000 +0.000000 +0.000000 ] spin -1 )
	HOMO: -0.134976 at state 22 ( [ +0.142857 +0.200000 +0.000000 ] spin -1 )
	mu  : -0.134500
	LUMO: -0.134462 at state 5 ( [ +0.142857 +0.400000 +0.000000 ] spin 1 )
	eMax: +0.214306 at state 25 ( [ +0.142857 -0.200000 +0.000000 ] spin -1 )
	HOMO-LUMO gap: +0.000514
	Optical gap  : +0.001470 at state 18 ( [ +0.000000 +0.000000 +0.000000 ] spin -1 )
Dumping 'jdft.Ecomponents' ... done
IonicMinimize: Iter:   4  G: -5580.335973965248741  |grad|_K:  4.262e-05  alpha:  1.000e+00  linmin: -1.561e-01  t[s]:  34692.60
IonicMinimize: Converged (|grad|_K<1.000000e-04).

#--- Lowdin population analysis ---
# oxidation-state Cu +0.187 +0.072 +0.037 +0.041 +0.072 +0.075 +0.076 +0.075 +0.075 +0.075 +0.075 +0.071 +0.037 +0.066 +0.066 +0.037 +0.070 +0.074 +0.075 +0.075 +0.075 +0.075 +0.076 +0.072 +0.042 +0.037 +0.072 +0.188
# magnetic-moments Cu -0.000 -0.000 -0.000 -0.000 -0.000 +0.000 +0.000 +0.000 +0.000 +0.000 +0.000 -0.000 -0.000 -0.000 -0.000 -0.000 -0.000 +0.000 +0.000 +0.000 +0.000 +0.000 +0.000 +0.000 -0.000 -0.000 -0.000 -0.000


Dumping 'jdft.n_up' ... done
Dumping 'jdft.n_dn' ... done
Dumping 'jdft.tau_up' ... done
Dumping 'jdft.tau_dn' ... done
Dumping 'jdft.eigenvals' ... done
Dumping 'jdft.eigStats' ... 
	eMin: -4.276127 at state 18 ( [ +0.000000 +0.000000 +0.000000 ] spin -1 )
	HOMO: -0.134976 at state 22 ( [ +0.142857 +0.200000 +0.000000 ] spin -1 )
	mu  : -0.134500
	LUMO: -0.134462 at state 5 ( [ +0.142857 +0.400000 +0.000000 ] spin 1 )
	eMax: +0.214306 at state 25 ( [ +0.142857 -0.200000 +0.000000 ] spin -1 )
	HOMO-LUMO gap: +0.000514
	Optical gap  : +0.001470 at state 18 ( [ +0.000000 +0.000000 +0.000000 ] spin -1 )
Dumping 'jdft.kPts' ... done
Dumping 'jdft.kMap' ... done
Dumping 'jdft.dosUp' ... done.
Dumping 'jdft.dosDn' ... done.
End date and time: Sat Sep 10 21:10:20 2022  (Duration: 0-9:40:11.42)
Done!

PROFILER:             augmentDensityGrid    13.036320 +/-     0.371289 s,  334 calls,   4354.131011 s total
PROFILER:         augmentDensityGridGrad     0.609956 +/-     0.160734 s,  174 calls,    106.132374 s total
PROFILER:        augmentDensitySpherical     0.004655 +/-     0.000259 s,  334 calls,      1.554890 s total
PROFILER:    augmentDensitySphericalGrad     0.004920 +/-     0.001066 s,  201 calls,      0.988911 s total
PROFILER:                 augmentOverlap     5.419114 +/-     0.650111 s,  717 calls,   3885.504651 s total
PROFILER:                     diagouterI    11.686634 +/-     0.375409 s,  337 calls,   3938.395672 s total
PROFILER:              EdensityAndVscloc     4.417211 +/-     1.626643 s,  334 calls,   1475.348520 s total
PROFILER:                     EnlAndGrad     0.028428 +/-     0.005670 s,  367 calls,     10.433148 s total
PROFILER:            ExCorrCommunication     0.046638 +/-     0.429906 s, 2072 calls,     96.632979 s total
PROFILER:               ExCorrFunctional     0.007881 +/-     0.001216 s,  353 calls,      2.781817 s total
PROFILER:                    ExCorrTotal     0.364548 +/-     1.011474 s,  353 calls,    128.685287 s total
PROFILER:                   Idag_DiagV_I    21.797961 +/-     5.425066 s,  195 calls,   4250.602428 s total
PROFILER:                    initWeights     2.009338 +/-     0.000000 s,    1 calls,      2.009338 s total
PROFILER:                    inv(matrix)     0.019378 +/-     0.002198 s,  331 calls,      6.414203 s total
PROFILER:            matrix::diagonalize     0.056753 +/-     0.029501 s,  528 calls,     29.965324 s total
PROFILER:                    matrix::set     0.000012 +/-     0.000016 s, 16096 calls,      0.190672 s total
PROFILER:            orthoMatrix(matrix)     0.009682 +/-     0.006835 s,  354 calls,      3.427511 s total
PROFILER:     RadialFunctionR::transform     0.204674 +/-     1.516514 s,   57 calls,     11.666410 s total
PROFILER:                    reduceKmesh     0.001600 +/-     0.000000 s,    1 calls,      0.001600 s total
PROFILER:   VanDerWaalsD3::energyAndGrad     0.020070 +/-     0.002244 s,   13 calls,      0.260914 s total
PROFILER:               WavefunctionDrag    33.665202 +/-     5.695032 s,    6 calls,    201.991215 s total
PROFILER:                            Y*M     1.930663 +/-     0.499982 s, 2335 calls,   4508.097530 s total
PROFILER:                          Y1^Y2     1.999218 +/-     0.618337 s, 1508 calls,   3014.820125 s total

MEMUSAGE:                   ColumnBundle     0.861648 GB
MEMUSAGE:        complexScalarFieldTilde     0.016479 GB
MEMUSAGE:                    IndexArrays     0.014742 GB
MEMUSAGE:                         matrix     0.070660 GB
MEMUSAGE:                           misc     0.016576 GB
MEMUSAGE:                    ScalarField     0.119476 GB
MEMUSAGE:               ScalarFieldTilde     0.087058 GB
MEMUSAGE:                          Total     0.986352 GB
