
*************** JDFTx 1.7.0 (git hash 5f12716a) ***************

Start date and time: Mon Sep 12 22:28:21 2022
Executable /home/nisi6161/jdftx_alpine/build/jdftx with command-line: -i in
Running on hosts (process indices):  c3cpu-a2-u15-1.rc.int.colorado.edu (0-23)
Divided in process groups (process indices):  0 (0)  1 (1)  2 (2)  3 (3)  4 (4)  5 (5)  6 (6)  7 (7)  8 (8)  9 (9)  10 (10)  11 (11)  12 (12)  13 (13)  14 (14)  15 (15)  16 (16)  17 (17)  18 (18)  19 (19)  20 (20)  21 (21)  22 (22)  23 (23)
Resource initialization completed at t[s]:      0.00
Run totals: 24 processes, 64 threads, 0 GPUs


Input parsed successfully to the following command list (including defaults):

basis kpoint-dependent
converge-empty-states yes
coords-type Cartesian
core-overlap-check none
coulomb-interaction Periodic
davidson-band-ratio 1.1
density-of-states Etol 1.000000e-06 Esigma 1.000000e-03 \
		Complete \
	Total \
	OrthoOrbital Cu 1   s \
	OrthoOrbital Cu 1   p \
	OrthoOrbital Cu 1   px \
	OrthoOrbital Cu 1   py \
	OrthoOrbital Cu 1   pz \
	OrthoOrbital Cu 1   d \
	OrthoOrbital Cu 1   dxy \
	OrthoOrbital Cu 1   dyz \
	OrthoOrbital Cu 1   dz2 \
	OrthoOrbital Cu 1   dxz \
	OrthoOrbital Cu 1   dx2-y2 \
	OrthoOrbital Cu 2   s \
	OrthoOrbital Cu 2   p \
	OrthoOrbital Cu 2   px \
	OrthoOrbital Cu 2   py \
	OrthoOrbital Cu 2   pz \
	OrthoOrbital Cu 2   d \
	OrthoOrbital Cu 2   dxy \
	OrthoOrbital Cu 2   dyz \
	OrthoOrbital Cu 2   dz2 \
	OrthoOrbital Cu 2   dxz \
	OrthoOrbital Cu 2   dx2-y2 \
	OrthoOrbital Cu 3   s \
	OrthoOrbital Cu 3   p \
	OrthoOrbital Cu 3   px \
	OrthoOrbital Cu 3   py \
	OrthoOrbital Cu 3   pz \
	OrthoOrbital Cu 3   d \
	OrthoOrbital Cu 3   dxy \
	OrthoOrbital Cu 3   dyz \
	OrthoOrbital Cu 3   dz2 \
	OrthoOrbital Cu 3   dxz \
	OrthoOrbital Cu 3   dx2-y2 \
	OrthoOrbital Cu 4   s \
	OrthoOrbital Cu 4   p \
	OrthoOrbital Cu 4   px \
	OrthoOrbital Cu 4   py \
	OrthoOrbital Cu 4   pz \
	OrthoOrbital Cu 4   d \
	OrthoOrbital Cu 4   dxy \
	OrthoOrbital Cu 4   dyz \
	OrthoOrbital Cu 4   dz2 \
	OrthoOrbital Cu 4   dxz \
	OrthoOrbital Cu 4   dx2-y2 \
	OrthoOrbital Cu 5   s \
	OrthoOrbital Cu 5   p \
	OrthoOrbital Cu 5   px \
	OrthoOrbital Cu 5   py \
	OrthoOrbital Cu 5   pz \
	OrthoOrbital Cu 5   d \
	OrthoOrbital Cu 5   dxy \
	OrthoOrbital Cu 5   dyz \
	OrthoOrbital Cu 5   dz2 \
	OrthoOrbital Cu 5   dxz \
	OrthoOrbital Cu 5   dx2-y2 \
	OrthoOrbital Cu 6   s \
	OrthoOrbital Cu 6   p \
	OrthoOrbital Cu 6   px \
	OrthoOrbital Cu 6   py \
	OrthoOrbital Cu 6   pz \
	OrthoOrbital Cu 6   d \
	OrthoOrbital Cu 6   dxy \
	OrthoOrbital Cu 6   dyz \
	OrthoOrbital Cu 6   dz2 \
	OrthoOrbital Cu 6   dxz \
	OrthoOrbital Cu 6   dx2-y2 \
	OrthoOrbital Cu 7   s \
	OrthoOrbital Cu 7   p \
	OrthoOrbital Cu 7   px \
	OrthoOrbital Cu 7   py \
	OrthoOrbital Cu 7   pz \
	OrthoOrbital Cu 7   d \
	OrthoOrbital Cu 7   dxy \
	OrthoOrbital Cu 7   dyz \
	OrthoOrbital Cu 7   dz2 \
	OrthoOrbital Cu 7   dxz \
	OrthoOrbital Cu 7   dx2-y2 \
	OrthoOrbital Cu 8   s \
	OrthoOrbital Cu 8   p \
	OrthoOrbital Cu 8   px \
	OrthoOrbital Cu 8   py \
	OrthoOrbital Cu 8   pz \
	OrthoOrbital Cu 8   d \
	OrthoOrbital Cu 8   dxy \
	OrthoOrbital Cu 8   dyz \
	OrthoOrbital Cu 8   dz2 \
	OrthoOrbital Cu 8   dxz \
	OrthoOrbital Cu 8   dx2-y2 \
	OrthoOrbital Cu 9   s \
	OrthoOrbital Cu 9   p \
	OrthoOrbital Cu 9   px \
	OrthoOrbital Cu 9   py \
	OrthoOrbital Cu 9   pz \
	OrthoOrbital Cu 9   d \
	OrthoOrbital Cu 9   dxy \
	OrthoOrbital Cu 9   dyz \
	OrthoOrbital Cu 9   dz2 \
	OrthoOrbital Cu 9   dxz \
	OrthoOrbital Cu 9   dx2-y2 \
	OrthoOrbital Cu 10   s \
	OrthoOrbital Cu 10   p \
	OrthoOrbital Cu 10   px \
	OrthoOrbital Cu 10   py \
	OrthoOrbital Cu 10   pz \
	OrthoOrbital Cu 10   d \
	OrthoOrbital Cu 10   dxy \
	OrthoOrbital Cu 10   dyz \
	OrthoOrbital Cu 10   dz2 \
	OrthoOrbital Cu 10   dxz \
	OrthoOrbital Cu 10   dx2-y2 \
	OrthoOrbital Cu 11   s \
	OrthoOrbital Cu 11   p \
	OrthoOrbital Cu 11   px \
	OrthoOrbital Cu 11   py \
	OrthoOrbital Cu 11   pz \
	OrthoOrbital Cu 11   d \
	OrthoOrbital Cu 11   dxy \
	OrthoOrbital Cu 11   dyz \
	OrthoOrbital Cu 11   dz2 \
	OrthoOrbital Cu 11   dxz \
	OrthoOrbital Cu 11   dx2-y2 \
	OrthoOrbital Cu 12   s \
	OrthoOrbital Cu 12   p \
	OrthoOrbital Cu 12   px \
	OrthoOrbital Cu 12   py \
	OrthoOrbital Cu 12   pz \
	OrthoOrbital Cu 12   d \
	OrthoOrbital Cu 12   dxy \
	OrthoOrbital Cu 12   dyz \
	OrthoOrbital Cu 12   dz2 \
	OrthoOrbital Cu 12   dxz \
	OrthoOrbital Cu 12   dx2-y2 \
	OrthoOrbital Cu 13   s \
	OrthoOrbital Cu 13   p \
	OrthoOrbital Cu 13   px \
	OrthoOrbital Cu 13   py \
	OrthoOrbital Cu 13   pz \
	OrthoOrbital Cu 13   d \
	OrthoOrbital Cu 13   dxy \
	OrthoOrbital Cu 13   dyz \
	OrthoOrbital Cu 13   dz2 \
	OrthoOrbital Cu 13   dxz \
	OrthoOrbital Cu 13   dx2-y2 \
	OrthoOrbital Cu 14   s \
	OrthoOrbital Cu 14   p \
	OrthoOrbital Cu 14   px \
	OrthoOrbital Cu 14   py \
	OrthoOrbital Cu 14   pz \
	OrthoOrbital Cu 14   d \
	OrthoOrbital Cu 14   dxy \
	OrthoOrbital Cu 14   dyz \
	OrthoOrbital Cu 14   dz2 \
	OrthoOrbital Cu 14   dxz \
	OrthoOrbital Cu 14   dx2-y2 \
	OrthoOrbital Cu 15   s \
	OrthoOrbital Cu 15   p \
	OrthoOrbital Cu 15   px \
	OrthoOrbital Cu 15   py \
	OrthoOrbital Cu 15   pz \
	OrthoOrbital Cu 15   d \
	OrthoOrbital Cu 15   dxy \
	OrthoOrbital Cu 15   dyz \
	OrthoOrbital Cu 15   dz2 \
	OrthoOrbital Cu 15   dxz \
	OrthoOrbital Cu 15   dx2-y2 \
	OrthoOrbital Cu 16   s \
	OrthoOrbital Cu 16   p \
	OrthoOrbital Cu 16   px \
	OrthoOrbital Cu 16   py \
	OrthoOrbital Cu 16   pz \
	OrthoOrbital Cu 16   d \
	OrthoOrbital Cu 16   dxy \
	OrthoOrbital Cu 16   dyz \
	OrthoOrbital Cu 16   dz2 \
	OrthoOrbital Cu 16   dxz \
	OrthoOrbital Cu 16   dx2-y2 \
	OrthoOrbital Cu 17   s \
	OrthoOrbital Cu 17   p \
	OrthoOrbital Cu 17   px \
	OrthoOrbital Cu 17   py \
	OrthoOrbital Cu 17   pz \
	OrthoOrbital Cu 17   d \
	OrthoOrbital Cu 17   dxy \
	OrthoOrbital Cu 17   dyz \
	OrthoOrbital Cu 17   dz2 \
	OrthoOrbital Cu 17   dxz \
	OrthoOrbital Cu 17   dx2-y2 \
	OrthoOrbital Cu 18   s \
	OrthoOrbital Cu 18   p \
	OrthoOrbital Cu 18   px \
	OrthoOrbital Cu 18   py \
	OrthoOrbital Cu 18   pz \
	OrthoOrbital Cu 18   d \
	OrthoOrbital Cu 18   dxy \
	OrthoOrbital Cu 18   dyz \
	OrthoOrbital Cu 18   dz2 \
	OrthoOrbital Cu 18   dxz \
	OrthoOrbital Cu 18   dx2-y2 \
	OrthoOrbital Cu 19   s \
	OrthoOrbital Cu 19   p \
	OrthoOrbital Cu 19   px \
	OrthoOrbital Cu 19   py \
	OrthoOrbital Cu 19   pz \
	OrthoOrbital Cu 19   d \
	OrthoOrbital Cu 19   dxy \
	OrthoOrbital Cu 19   dyz \
	OrthoOrbital Cu 19   dz2 \
	OrthoOrbital Cu 19   dxz \
	OrthoOrbital Cu 19   dx2-y2 \
	OrthoOrbital Cu 20   s \
	OrthoOrbital Cu 20   p \
	OrthoOrbital Cu 20   px \
	OrthoOrbital Cu 20   py \
	OrthoOrbital Cu 20   pz \
	OrthoOrbital Cu 20   d \
	OrthoOrbital Cu 20   dxy \
	OrthoOrbital Cu 20   dyz \
	OrthoOrbital Cu 20   dz2 \
	OrthoOrbital Cu 20   dxz \
	OrthoOrbital Cu 20   dx2-y2 \
	OrthoOrbital Cu 21   s \
	OrthoOrbital Cu 21   p \
	OrthoOrbital Cu 21   px \
	OrthoOrbital Cu 21   py \
	OrthoOrbital Cu 21   pz \
	OrthoOrbital Cu 21   d \
	OrthoOrbital Cu 21   dxy \
	OrthoOrbital Cu 21   dyz \
	OrthoOrbital Cu 21   dz2 \
	OrthoOrbital Cu 21   dxz \
	OrthoOrbital Cu 21   dx2-y2 \
	OrthoOrbital Cu 22   s \
	OrthoOrbital Cu 22   p \
	OrthoOrbital Cu 22   px \
	OrthoOrbital Cu 22   py \
	OrthoOrbital Cu 22   pz \
	OrthoOrbital Cu 22   d \
	OrthoOrbital Cu 22   dxy \
	OrthoOrbital Cu 22   dyz \
	OrthoOrbital Cu 22   dz2 \
	OrthoOrbital Cu 22   dxz \
	OrthoOrbital Cu 22   dx2-y2 \
	OrthoOrbital Cu 23   s \
	OrthoOrbital Cu 23   p \
	OrthoOrbital Cu 23   px \
	OrthoOrbital Cu 23   py \
	OrthoOrbital Cu 23   pz \
	OrthoOrbital Cu 23   d \
	OrthoOrbital Cu 23   dxy \
	OrthoOrbital Cu 23   dyz \
	OrthoOrbital Cu 23   dz2 \
	OrthoOrbital Cu 23   dxz \
	OrthoOrbital Cu 23   dx2-y2 \
	OrthoOrbital Cu 24   s \
	OrthoOrbital Cu 24   p \
	OrthoOrbital Cu 24   px \
	OrthoOrbital Cu 24   py \
	OrthoOrbital Cu 24   pz \
	OrthoOrbital Cu 24   d \
	OrthoOrbital Cu 24   dxy \
	OrthoOrbital Cu 24   dyz \
	OrthoOrbital Cu 24   dz2 \
	OrthoOrbital Cu 24   dxz \
	OrthoOrbital Cu 24   dx2-y2 \
	OrthoOrbital Cu 25   s \
	OrthoOrbital Cu 25   p \
	OrthoOrbital Cu 25   px \
	OrthoOrbital Cu 25   py \
	OrthoOrbital Cu 25   pz \
	OrthoOrbital Cu 25   d \
	OrthoOrbital Cu 25   dxy \
	OrthoOrbital Cu 25   dyz \
	OrthoOrbital Cu 25   dz2 \
	OrthoOrbital Cu 25   dxz \
	OrthoOrbital Cu 25   dx2-y2 \
	OrthoOrbital Cu 26   s \
	OrthoOrbital Cu 26   p \
	OrthoOrbital Cu 26   px \
	OrthoOrbital Cu 26   py \
	OrthoOrbital Cu 26   pz \
	OrthoOrbital Cu 26   d \
	OrthoOrbital Cu 26   dxy \
	OrthoOrbital Cu 26   dyz \
	OrthoOrbital Cu 26   dz2 \
	OrthoOrbital Cu 26   dxz \
	OrthoOrbital Cu 26   dx2-y2 \
	OrthoOrbital Cu 27   s \
	OrthoOrbital Cu 27   p \
	OrthoOrbital Cu 27   px \
	OrthoOrbital Cu 27   py \
	OrthoOrbital Cu 27   pz \
	OrthoOrbital Cu 27   d \
	OrthoOrbital Cu 27   dxy \
	OrthoOrbital Cu 27   dyz \
	OrthoOrbital Cu 27   dz2 \
	OrthoOrbital Cu 27   dxz \
	OrthoOrbital Cu 27   dx2-y2 \
	OrthoOrbital Cu 28   s \
	OrthoOrbital Cu 28   p \
	OrthoOrbital Cu 28   px \
	OrthoOrbital Cu 28   py \
	OrthoOrbital Cu 28   pz \
	OrthoOrbital Cu 28   d \
	OrthoOrbital Cu 28   dxy \
	OrthoOrbital Cu 28   dyz \
	OrthoOrbital Cu 28   dz2 \
	OrthoOrbital Cu 28   dxz \
	OrthoOrbital Cu 28   dx2-y2 \
	OrthoOrbital Cu 29   s \
	OrthoOrbital Cu 29   p \
	OrthoOrbital Cu 29   px \
	OrthoOrbital Cu 29   py \
	OrthoOrbital Cu 29   pz \
	OrthoOrbital Cu 29   d \
	OrthoOrbital Cu 29   dxy \
	OrthoOrbital Cu 29   dyz \
	OrthoOrbital Cu 29   dz2 \
	OrthoOrbital Cu 29   dxz \
	OrthoOrbital Cu 29   dx2-y2 \
	OrthoOrbital Cu 30   s \
	OrthoOrbital Cu 30   p \
	OrthoOrbital Cu 30   px \
	OrthoOrbital Cu 30   py \
	OrthoOrbital Cu 30   pz \
	OrthoOrbital Cu 30   d \
	OrthoOrbital Cu 30   dxy \
	OrthoOrbital Cu 30   dyz \
	OrthoOrbital Cu 30   dz2 \
	OrthoOrbital Cu 30   dxz \
	OrthoOrbital Cu 30   dx2-y2 \
	OrthoOrbital Cu 31   s \
	OrthoOrbital Cu 31   p \
	OrthoOrbital Cu 31   px \
	OrthoOrbital Cu 31   py \
	OrthoOrbital Cu 31   pz \
	OrthoOrbital Cu 31   d \
	OrthoOrbital Cu 31   dxy \
	OrthoOrbital Cu 31   dyz \
	OrthoOrbital Cu 31   dz2 \
	OrthoOrbital Cu 31   dxz \
	OrthoOrbital Cu 31   dx2-y2 \
	OrthoOrbital Cu 32   s \
	OrthoOrbital Cu 32   p \
	OrthoOrbital Cu 32   px \
	OrthoOrbital Cu 32   py \
	OrthoOrbital Cu 32   pz \
	OrthoOrbital Cu 32   d \
	OrthoOrbital Cu 32   dxy \
	OrthoOrbital Cu 32   dyz \
	OrthoOrbital Cu 32   dz2 \
	OrthoOrbital Cu 32   dxz \
	OrthoOrbital Cu 32   dx2-y2 \
	OrthoOrbital Cu 33   s \
	OrthoOrbital Cu 33   p \
	OrthoOrbital Cu 33   px \
	OrthoOrbital Cu 33   py \
	OrthoOrbital Cu 33   pz \
	OrthoOrbital Cu 33   d \
	OrthoOrbital Cu 33   dxy \
	OrthoOrbital Cu 33   dyz \
	OrthoOrbital Cu 33   dz2 \
	OrthoOrbital Cu 33   dxz \
	OrthoOrbital Cu 33   dx2-y2 \
	OrthoOrbital Cu 34   s \
	OrthoOrbital Cu 34   p \
	OrthoOrbital Cu 34   px \
	OrthoOrbital Cu 34   py \
	OrthoOrbital Cu 34   pz \
	OrthoOrbital Cu 34   d \
	OrthoOrbital Cu 34   dxy \
	OrthoOrbital Cu 34   dyz \
	OrthoOrbital Cu 34   dz2 \
	OrthoOrbital Cu 34   dxz \
	OrthoOrbital Cu 34   dx2-y2
dump End ElecDensity KEdensity BandEigs EigStats RhoAtom DOS Kpoints
dump Ionic State IonicPositions Lattice EigStats Ecomponents
dump 
dump 
dump 
dump 
dump 
dump 
dump 
dump 
dump-name jdft.$VAR
elec-cutoff 20
elec-eigen-algo Davidson
elec-ex-corr gga-PBE
elec-initial-magnetization 0.000000 no
elec-n-bands 388
elec-smearing Fermi 0.001
electronic-minimize  \
	dirUpdateScheme      FletcherReeves \
	linminMethod         DirUpdateRecommended \
	nIterations          100 \
	history              15 \
	knormThreshold       0 \
	energyDiffThreshold  1e-07 \
	nEnergyDiff          2 \
	alphaTstart          1 \
	alphaTmin            1e-10 \
	updateTestStepSize   yes \
	alphaTreduceFactor   0.1 \
	alphaTincreaseFactor 3 \
	nAlphaAdjustMax      3 \
	wolfeEnergy          0.0001 \
	wolfeGradient        0.9 \
	fdTest               no
exchange-regularization WignerSeitzTruncated
fluid LinearPCM 298.000000 1.013250
fluid-anion F- 0.5 MeanFieldLJ \
	epsBulk 1 \
	pMol 0 \
	epsInf 1 \
	Pvap 0 \
	sigmaBulk 0 \
	Rvdw 2.24877 \
	Res 0 \
	tauNuc 343133
fluid-cation Na+ 0.5 MeanFieldLJ \
	epsBulk 1 \
	pMol 0 \
	epsInf 1 \
	Pvap 0 \
	sigmaBulk 0 \
	Rvdw 2.19208 \
	Res 0 \
	tauNuc 343133
fluid-ex-corr lda-TF lda-PZ
fluid-gummel-loop 10 1.000000e-05
fluid-minimize  \
	dirUpdateScheme      PolakRibiere \
	linminMethod         DirUpdateRecommended \
	nIterations          400 \
	history              15 \
	knormThreshold       1e-11 \
	energyDiffThreshold  0 \
	nEnergyDiff          2 \
	alphaTstart          1 \
	alphaTmin            1e-10 \
	updateTestStepSize   yes \
	alphaTreduceFactor   0.1 \
	alphaTincreaseFactor 3 \
	nAlphaAdjustMax      6 \
	wolfeEnergy          0.0001 \
	wolfeGradient        0.9 \
	fdTest               no
fluid-solvent H2O 55.338 ScalarEOS \
	epsBulk 78.4 \
	pMol 0.92466 \
	epsInf 1.77 \
	Pvap 1.06736e-10 \
	sigmaBulk 4.62e-05 \
	Rvdw 2.61727 \
	Res 1.42 \
	tauNuc 343133 \
	poleEl 15 7 1
forces-output-coords Positions
initial-state jdft.$VAR
ion Cu   0.000010000000000  11.524257999999996   1.212956000000000 1
ion Cu  -0.000057000000000  15.098188999999998   4.513042999999999 1
ion Cu   0.000057000000000   0.059392000000000  27.269868999999996 1
ion Cu  -0.000067000000000   3.503985000000000   2.818057000000000 1
ion Cu  -0.000043000000000   6.930634999999999   6.150411999999999 1
ion Cu  -0.000029000000000  10.386627000000001   9.415312000000000 1
ion Cu  -0.000024000000000  17.348667999999996  15.944027999999998 1
ion Cu  -0.000043000000000  18.499819999999996   7.756346999999999 1
ion Cu   0.000005000000000   2.296330000000000  11.037506000000000 1
ion Cu   0.000005000000000   5.783334999999999  14.302822999999998 1
ion Cu  -0.000024000000000   9.269140999999998  17.571224999999998 1
ion Cu   0.000062000000000  12.734251999999998  20.850383999999995 1
ion Cu  -0.000010000000000  13.869130999999998  12.666036999999998 1
ion Cu  -0.000038000000000   1.164851000000000  19.210095999999997 1
ion Cu   0.000014000000000   4.614926999999999  22.456067999999998 1
ion Cu   0.000195000000000   8.089313999999998  25.760990999999997 1
ion Cu   0.000081000000000  16.104830999999997  24.243107999999999 1
ion Cu   2.383268000000000  10.994483999999996   5.338522999999999 1
ion Cu   2.383302000000000  14.444186999999996   8.584329000000000 1
ion Cu   2.383249000000000  19.154863999999996   3.551566999999999 1
ion Cu   2.383235000000000   2.874037999999999   6.944208000000000 1
ion Cu   2.383287000000000   6.339207999999999  10.222781999999999 1
ion Cu   2.383283000000000   9.824070999999998  13.491018000000000 1
ion Cu   2.383345000000000  16.759304999999998  20.036909999999995 1
ion Cu   2.383354000000000  17.912500999999995  11.849395999999999 1
ion Cu   2.383302000000000   1.737705000000000  15.127469999999999 1
ion Cu   2.383302000000000   5.219325000000000  18.377694999999999 1
ion Cu   2.383345000000000   8.675316999999998  21.642844999999998 1
ion Cu   2.383392000000000  12.100904999999997  24.975700999999997 1
ion Cu   2.383283000000000  13.309522999999997  16.755834000000000 1
ion Cu   2.383364000000000   0.508883000000000  23.281214999999996 1
ion Cu   2.383401999999999   4.083285999999999  26.581301999999997 1
ion Cu   2.383239999999999   7.518562999999999   2.033599999999999 1
ion Cu   2.383254000000000  15.545458999999997   0.524722000000000 1
ion-species /projects/musgravc/apps/jdftx-1.6.0/build/pseudopotentials/GBRV_v1.5/$ID_pbe_v1.uspp
ion-species /projects/musgravc/apps/jdftx-1.6.0/build/pseudopotentials/GBRV_v1.5/$ID_pbe_v1.2.uspp
ion-species /projects/musgravc/apps/jdftx-1.6.0/build/pseudopotentials/GBRV_v1.5/$ID_pbe_v1.4.uspp
ion-species /projects/musgravc/apps/jdftx-1.6.0/build/pseudopotentials/GBRV_v1.5/$ID_pbe_v1.5.uspp
ion-width Ecut
ionic-minimize  \
	dirUpdateScheme      L-BFGS \
	linminMethod         DirUpdateRecommended \
	nIterations          100 \
	history              15 \
	knormThreshold       0.0001 \
	energyDiffThreshold  0.0001 \
	nEnergyDiff          2 \
	alphaTstart          1 \
	alphaTmin            1e-10 \
	updateTestStepSize   yes \
	alphaTreduceFactor   0.1 \
	alphaTincreaseFactor 3 \
	nAlphaAdjustMax      3 \
	wolfeEnergy          0.0001 \
	wolfeGradient        0.9 \
	fdTest               no
kpoint   0.000000000000   0.000000000000   0.000000000000  1.00000000000000
kpoint-folding 12 3 1 
latt-move-scale 0 0 0
latt-scale 1 1 1 
lattice  \
	   4.766623000000000   -0.000000000000000    0.000000000000000  \
	   0.000000000000000   19.653292000000000    0.000000000000000  \
	   0.000000000000000    0.000000000000000   83.381855999999999 
lattice-minimize  \
	dirUpdateScheme      L-BFGS \
	linminMethod         DirUpdateRecommended \
	nIterations          0 \
	history              15 \
	knormThreshold       0 \
	energyDiffThreshold  1e-06 \
	nEnergyDiff          2 \
	alphaTstart          1 \
	alphaTmin            1e-10 \
	updateTestStepSize   yes \
	alphaTreduceFactor   0.1 \
	alphaTincreaseFactor 3 \
	nAlphaAdjustMax      3 \
	wolfeEnergy          0.0001 \
	wolfeGradient        0.9 \
	fdTest               no
lcao-params 30 1e-06 0.001
pcm-variant CANDLE
spintype z-spin
subspace-rotation-factor 1 yes
symmetries automatic
symmetry-threshold 0.0001
target-mu -0.208 no

van-der-waals D3



---------- Setting up symmetries ----------

Found 8 point-group symmetries of the bravais lattice
Found 1 space-group symmetries with basis
Applied RMS atom displacement 0 bohrs to make symmetries exact.

---------- Initializing the Grid ----------
R = 
[      4.76662            0            0  ]
[            0      19.6533            0  ]
[            0            0      83.3819  ]
unit cell volume = 7811.2
G =
[    1.31816          0         -0  ]
[          0   0.319701          0  ]
[          0         -0  0.0753543  ]
Minimum fftbox size, Smin = [  20  80  336  ]
Chosen fftbox size, S = [  20  80  336  ]

---------- Exchange Correlation functional ----------
Initalized PBE GGA exchange.
Initalized PBE GGA correlation.

---------- Setting up pseudopotentials ----------
Width of ionic core gaussian charges (only for fluid interactions / plotting) set to 0.397384

Reading pseudopotential file '/projects/musgravc/apps/jdftx-1.6.0/build/pseudopotentials/GBRV_v1.5/cu_pbe_v1.2.uspp':
  Title: Cu.  Created by USPP 7.3.6 on 3-2-2014
  Reference state energy: -201.059491.  19 valence electrons in orbitals:
    |300>  occupation: 2  eigenvalue: -5.020764
    |310>  occupation: 6  eigenvalue: -3.445588
    |320>  occupation: 8  eigenvalue: -0.925168
    |400>  occupation: 2  eigenvalue: -0.567638
    |410>  occupation: 0  eigenvalue: -0.326154
  lMax: 2  lLocal: 3  QijEcut: 6
  6 projectors sampled on a log grid with 613 points:
    l: 0  eig: -5.020767  rCut: 1.4
    l: 0  eig: -0.567640  rCut: 1.4
    l: 1  eig: -3.445589  rCut: 1.55
    l: 1  eig: -0.326157  rCut: 1.55
    l: 2  eig: -0.925170  rCut: 1.5
    l: 2  eig: 1.500000  rCut: 1.5
  Partial core density with radius 0.8
  Transforming core density to a uniform radial grid of dG=0.02 with 1121 points.
  Transforming local potential to a uniform radial grid of dG=0.02 with 1121 points.
  Transforming nonlocal projectors to a uniform radial grid of dG=0.02 with 432 points.
  Transforming density augmentations to a uniform radial grid of dG=0.02 with 1121 points.
  Transforming atomic orbitals to a uniform radial grid of dG=0.02 with 432 points.
  Core radius for overlap checks: 1.55 bohrs.

Initialized 1 species with 34 total atoms.

Folded 1 k-points by 12x3x1 to 36 k-points.

---------- Setting up k-points, bands, fillings ----------
Adding inversion symmetry to k-mesh for non-inversion-symmetric unit cell.
Reduced to 19 k-points under symmetry. 
Computing the number of bands and number of electrons
Reading initial fillings from file jdft.fillings.
nElectrons: 644.806868   nBands: 388   nStates: 38

----- Setting up reduced wavefunction bases (one per k-point) -----
average nbasis = 33374.861 , ideal nbasis = 33370.035

----- Initializing Supercell corresponding to k-point mesh -----
Lattice vector linear combinations in supercell:
[  12   0   0  ]
[   0   3   0  ]
[   0   0   1  ]
Supercell lattice vectors:
[  57.1995  0  0  ]
[  0  58.9599  0  ]
[  0  0  83.3819  ]

Initializing DFT-D3 calculator:
	Parameters set for gga-PBE functional
	s6:  1.000  s_r6:  1.217
	s8:  0.722  s_r8:  1.000
	Per-atom parameters loaded for:
	Cu:  sqrtQ[a0]:  5.226  Rcov[a0]:  1.909  CN: [ 0.00 0.96 ]

Initializing DFT-D2 calculator for fluid / solvation:
	Cu:  C6:  187.33 Eh-a0^6  R0: 2.952 a0

---------- Setting up ewald sum ----------
Optimum gaussian width for ewald sums = 4.397807 bohr.
Real space sum over 945 unit cells with max indices [  10  4  2  ]
Reciprocal space sum over 7259 terms with max indices [  3  8  30  ]

Computing DFT-D3 correction:
# coordination-number Cu 6.817 9.105 5.553 6.881 9.102 9.177 9.152 9.045 9.167 9.181 9.182 9.089 9.163 9.158 9.033 6.865 7.500 9.033 9.161 7.503 9.089 9.182 9.183 9.041 9.155 9.164 9.178 9.103 6.883 9.167 9.099 6.813 6.862 5.555
# diagonal-C6 Cu 175.00 175.00 175.00 175.00 175.00 175.00 175.00 175.00 175.00 175.00 175.00 175.00 175.00 175.00 175.00 175.00 175.00 175.00 175.00 175.00 175.00 175.00 175.00 175.00 175.00 175.00 175.00 175.00 175.00 175.00 175.00 175.00 175.00 175.00
EvdW_6 =   -0.219449
EvdW_8 =   -0.319212

---------- Allocating electronic variables ----------
Initializing wave functions:  reading from 'jdft.wfns'
----- createFluidSolver() ----- (Fluid-side solver setup)
   Initializing fluid molecule 'H2O'
     Initializing site 'O'
       Electron density: proportional to exp(-r/0.36935)*erfc((r-0.51523)/0.36823) with norm 6.826
       Charge density: gaussian nuclear width 0.478731 with net site charge 0.826
       Polarizability: cuspless exponential with width 0.32 and norm 3.73
       Hard sphere radius: 2.57003 bohrs
       Positions in reference frame:
         [ +0.000000 +0.000000 +0.000000 ]
     Initializing site 'H'
       Electron density: proportional to exp(-r/0.34641)*erfc((r-0)/0.390882) with norm 0.587
       Charge density: gaussian nuclear width 0.377945 with net site charge -0.413
       Polarizability: cuspless exponential with width 0.39 and norm 3.3
       Positions in reference frame:
         [ +0.000000 -1.441945 +1.122523 ]
         [ +0.000000 +1.441945 +1.122523 ]
     Net charge: 0   dipole magnitude: 0.927204
     Initializing spherical shell mfKernel with radius 2.61727 Bohr
     deltaS corrections:
       site 'O': -7.54299
       site 'H': -6.83917
   Initializing fluid molecule 'Na+'
     Initializing site 'Na'
       Electron density: proportional to exp(-r/0.19682)*erfc((r-0.71491)/0.41314) with norm 8.1383
       Charge density: gaussian nuclear width 0.365347 with net site charge -1
       Hard sphere radius: 1.86327 bohrs
       Positions in reference frame:
         [ +0.000000 +0.000000 +0.000000 ]
     Net charge: -1   dipole magnitude: 0
     Initializing gaussian mfKernel with width: 1.55004 Bohr
     deltaS corrections:
       site 'Na': -22.3555
   Initializing fluid molecule 'F-'
     Initializing site 'F'
       Electron density: proportional to exp(-r/0.38886)*erfc((r-0)/0.438782) with norm 8
       Charge density: gaussian nuclear width 0.374796 with net site charge 1
       Hard sphere radius: 2.39995 bohrs
       Positions in reference frame:
         [ +0.000000 +0.000000 +0.000000 ]
     Net charge: 1   dipole magnitude: 0
     Initializing gaussian mfKernel with width: 1.59012 Bohr
     deltaS corrections:
       site 'F': -9.04335

Correction to mu due to finite nuclear width = -0.0820568
   Cavity determined by nc: 0.00142 and sigma: 0.707107
   Nonlocal vdW cavity from gaussian model electron density with norm = 8 and sigma = 0.993594 bohr
   Charge asymmetry in cavity with sensitivity pCavity = 36.5 e-bohr/Eh
   Electrostatic cavity expanded by eta = 1.46 bohrs
   Weighted density cavitation model constrained by Nbulk: 0.0049383 bohr^-3, Pvap: 3.14029 kPa, Rvdw: 2.61727 bohr and sigmaBulk: 4.62e-05 Eh/bohr^2 at T: 298 K.
   Weighted density dispersion model using vdW pair potentials with single solvent site with sqrtC6eff: 0.77 SI.
Reading fluid state from 'jdft.fluidState'


---- Citations for features of the code used in this run ----

   Software package:
      R. Sundararaman, K. Letchworth-Weaver, K.A. Schwarz, D. Gunceler, Y. Ozhabes and T.A. Arias, 'JDFTx: software for joint density-functional theory', SoftwareX 6, 278 (2017)

   gga-PBE exchange-correlation functional:
      J.P. Perdew, K. Burke and M. Ernzerhof, Phys. Rev. Lett. 77, 3865 (1996)

   Pseudopotentials:
      KF Garrity, JW Bennett, KM Rabe and D Vanderbilt, Comput. Mater. Sci. 81, 446 (2014)

   DFT-D3 dispersion correction:
      S. Grimme, J. Antony, S. Ehrlich and H. Krieg, J. Chem. Phys. 132, 154104 (2010)

   DFT-D2 dispersion correction:
      S. Grimme, J. Comput. Chem. 27, 1787 (2006)

   Charge-asymmetric nonlocally-determined local-electric (CANDLE) solvation model:
      R. Sundararaman and W.A. Goddard III, J. Chem. Phys. 142, 064107 (2015)

   Total energy minimization with Auxiliary Hamiltonian:
      C. Freysoldt, S. Boeck, and J. Neugebauer, Phys. Rev. B 79, 241103(R) (2009)

   Grand-canonical (fixed-potential) DFT:
      R. Sundararaman, W. A. Goddard III and T. A. Arias, J. Chem. Phys. 146, 114104 (2017)

   Linear-tetrahedron sampling for density of states:
      G. Lehmann and M. Taut, Phys. status solidi (b) 54, 469 (1972)

This list may not be complete. Please suggest additional citations or
report any other bugs at https://github.com/shankar1729/jdftx/issues

Initialization completed successfully at t[s]:     50.59


Computing DFT-D3 correction:
# coordination-number Cu 6.817 9.105 5.553 6.881 9.102 9.177 9.152 9.045 9.167 9.181 9.182 9.089 9.163 9.158 9.033 6.865 7.500 9.033 9.161 7.503 9.089 9.182 9.183 9.041 9.155 9.164 9.178 9.103 6.883 9.167 9.099 6.813 6.862 5.555
# diagonal-C6 Cu 175.00 175.00 175.00 175.00 175.00 175.00 175.00 175.00 175.00 175.00 175.00 175.00 175.00 175.00 175.00 175.00 175.00 175.00 175.00 175.00 175.00 175.00 175.00 175.00 175.00 175.00 175.00 175.00 175.00 175.00 175.00 175.00 175.00 175.00
EvdW_6 =   -0.219449
EvdW_8 =   -0.319212
Shifting auxilliary hamiltonian by 0.036796 to set nElectrons=644.806868

-------- Electronic minimization -----------
	Linear fluid (dielectric constant: 78.4, screening length: 8.12261 Bohr) occupying 0.582105 of unit cell:	Completed after 28 iterations at t[s]:     86.36
	FillingsUpdate:  mu: -0.208000000  nElectrons: 644.806868  magneticMoment: [ Abs: 0.00018  Tot: -0.00007 ]
ElecMinimize: Iter:   0  G: -6727.456826474060108  |grad|_K:  9.379e-05  alpha:  1.000e+00
	Linear fluid (dielectric constant: 78.4, screening length: 8.12261 Bohr) occupying 0.577508 of unit cell:	Completed after 37 iterations at t[s]:    307.50
	Linear fluid (dielectric constant: 78.4, screening length: 8.12261 Bohr) occupying 0.582092 of unit cell:	Completed after 38 iterations at t[s]:    380.49
	FillingsUpdate:  mu: -0.208000000  nElectrons: 644.641399  magneticMoment: [ Abs: 0.00019  Tot: +0.00003 ]
	SubspaceRotationAdjust: set factor to 0.961
ElecMinimize: Iter:   1  G: -6727.565320778254318  |grad|_K:  8.928e-05  alpha:  1.370e-02  linmin: -4.282e-03  t[s]:    485.01
	Linear fluid (dielectric constant: 78.4, screening length: 8.12261 Bohr) occupying 0.581932 of unit cell:	Completed after 25 iterations at t[s]:    588.40
ElecMinimize: 	Predicted alpha/alphaT>3.000000, increasing alphaT to 4.110143e-02.
	Linear fluid (dielectric constant: 78.4, screening length: 8.12261 Bohr) occupying 0.581644 of unit cell:	Completed after 26 iterations at t[s]:    656.38
	Linear fluid (dielectric constant: 78.4, screening length: 8.12261 Bohr) occupying 0.581450 of unit cell:	Completed after 26 iterations at t[s]:    728.57
	FillingsUpdate:  mu: -0.208000000  nElectrons: 645.537573  magneticMoment: [ Abs: 0.00020  Tot: -0.00017 ]
	SubspaceRotationAdjust: set factor to 0.568
ElecMinimize: Iter:   2  G: -6727.985008095442026  |grad|_K:  1.578e-04  alpha:  6.181e-02  linmin: -4.039e-05  t[s]:    833.98
	Linear fluid (dielectric constant: 78.4, screening length: 8.12261 Bohr) occupying 0.579840 of unit cell:	Completed after 31 iterations at t[s]:    928.08
	Linear fluid (dielectric constant: 78.4, screening length: 8.12261 Bohr) occupying 0.581254 of unit cell:	Completed after 31 iterations at t[s]:    994.48
	FillingsUpdate:  mu: -0.208000000  nElectrons: 645.175522  magneticMoment: [ Abs: 0.00016  Tot: -0.00001 ]
	SubspaceRotationAdjust: set factor to 0.65
ElecMinimize: Iter:   3  G: -6728.084968827390185  |grad|_K:  7.902e-05  alpha:  7.851e-03  linmin: -4.790e-05  t[s]:   1091.31
	Linear fluid (dielectric constant: 78.4, screening length: 8.12261 Bohr) occupying 0.581188 of unit cell:	Completed after 24 iterations at t[s]:   1184.28
ElecMinimize: 	Predicted alpha/alphaT>3.000000, increasing alphaT to 2.355335e-02.
	Linear fluid (dielectric constant: 78.4, screening length: 8.12261 Bohr) occupying 0.581055 of unit cell:	Completed after 25 iterations at t[s]:   1249.76
	Linear fluid (dielectric constant: 78.4, screening length: 8.12261 Bohr) occupying 0.580941 of unit cell:	Completed after 25 iterations at t[s]:   1315.29
	FillingsUpdate:  mu: -0.208000000  nElectrons: 644.692870  magneticMoment: [ Abs: 0.00028  Tot: +0.00025 ]
	SubspaceRotationAdjust: set factor to 0.411
ElecMinimize: Iter:   4  G: -6728.201993403588858  |grad|_K:  1.501e-04  alpha:  3.682e-02  linmin: -4.175e-05  t[s]:   1411.93
	Linear fluid (dielectric constant: 78.4, screening length: 8.12261 Bohr) occupying 0.579584 of unit cell:	Completed after 29 iterations at t[s]:   1505.86
	Linear fluid (dielectric constant: 78.4, screening length: 8.12261 Bohr) occupying 0.580106 of unit cell:	Completed after 26 iterations at t[s]:   1571.64
	FillingsUpdate:  mu: -0.208000000  nElectrons: 645.040880  magneticMoment: [ Abs: 0.00019  Tot: +0.00010 ]
	SubspaceRotationAdjust: set factor to 0.327
ElecMinimize: Iter:   5  G: -6728.459103949148812  |grad|_K:  8.499e-05  alpha:  2.252e-02  linmin: -1.242e-05  t[s]:   1668.42
	Linear fluid (dielectric constant: 78.4, screening length: 8.12261 Bohr) occupying 0.579818 of unit cell:	Completed after 23 iterations at t[s]:   1761.66
	Linear fluid (dielectric constant: 78.4, screening length: 8.12261 Bohr) occupying 0.579925 of unit cell:	Completed after 21 iterations at t[s]:   1826.44
	FillingsUpdate:  mu: -0.208000000  nElectrons: 645.445622  magneticMoment: [ Abs: 0.00017  Tot: +0.00001 ]
	SubspaceRotationAdjust: set factor to 0.269
ElecMinimize: Iter:   6  G: -6728.505702496624508  |grad|_K:  4.966e-05  alpha:  1.275e-02  linmin:  2.866e-05  t[s]:   1923.18
	Linear fluid (dielectric constant: 78.4, screening length: 8.12261 Bohr) occupying 0.579856 of unit cell:	Completed after 24 iterations at t[s]:   2016.11
	Linear fluid (dielectric constant: 78.4, screening length: 8.12261 Bohr) occupying 0.579738 of unit cell:	Completed after 25 iterations at t[s]:   2081.52
	FillingsUpdate:  mu: -0.208000000  nElectrons: 645.673808  magneticMoment: [ Abs: 0.00014  Tot: -0.00004 ]
	SubspaceRotationAdjust: set factor to 0.184
ElecMinimize: Iter:   7  G: -6728.548033001005933  |grad|_K:  5.381e-05  alpha:  3.464e-02  linmin: -1.013e-04  t[s]:   2178.25
	Linear fluid (dielectric constant: 78.4, screening length: 8.12261 Bohr) occupying 0.579498 of unit cell:	Completed after 26 iterations at t[s]:   2271.74
	Linear fluid (dielectric constant: 78.4, screening length: 8.12261 Bohr) occupying 0.579582 of unit cell:	Completed after 24 iterations at t[s]:   2336.99
	FillingsUpdate:  mu: -0.208000000  nElectrons: 645.515311  magneticMoment: [ Abs: 0.00014  Tot: -0.00001 ]
	SubspaceRotationAdjust: set factor to 0.333
ElecMinimize: Iter:   8  G: -6728.581124486725457  |grad|_K:  2.916e-05  alpha:  2.257e-02  linmin:  4.009e-06  t[s]:   2433.79
	Linear fluid (dielectric constant: 78.4, screening length: 8.12261 Bohr) occupying 0.579511 of unit cell:	Completed after 24 iterations at t[s]:   2527.02
	Linear fluid (dielectric constant: 78.4, screening length: 8.12261 Bohr) occupying 0.579473 of unit cell:	Completed after 22 iterations at t[s]:   2592.00
	FillingsUpdate:  mu: -0.208000000  nElectrons: 645.319402  magneticMoment: [ Abs: 0.00014  Tot: +0.00003 ]
	SubspaceRotationAdjust: set factor to 0.297
ElecMinimize: Iter:   9  G: -6728.595916327809391  |grad|_K:  3.301e-05  alpha:  3.505e-02  linmin: -3.409e-05  t[s]:   2688.82
	Linear fluid (dielectric constant: 78.4, screening length: 8.12261 Bohr) occupying 0.579287 of unit cell:	Completed after 23 iterations at t[s]:   2781.42
	Linear fluid (dielectric constant: 78.4, screening length: 8.12261 Bohr) occupying 0.579119 of unit cell:	Completed after 23 iterations at t[s]:   2846.89
	FillingsUpdate:  mu: -0.208000000  nElectrons: 645.296935  magneticMoment: [ Abs: 0.00012  Tot: +0.00001 ]
	SubspaceRotationAdjust: set factor to 0.313
ElecMinimize: Iter:  10  G: -6728.632087727512953  |grad|_K:  3.175e-05  alpha:  6.643e-02  linmin: -7.394e-06  t[s]:   2943.57
	Linear fluid (dielectric constant: 78.4, screening length: 8.12261 Bohr) occupying 0.578711 of unit cell:	Completed after 26 iterations at t[s]:   3037.19
	Linear fluid (dielectric constant: 78.4, screening length: 8.12261 Bohr) occupying 0.578943 of unit cell:	Completed after 23 iterations at t[s]:   3102.40
	FillingsUpdate:  mu: -0.208000000  nElectrons: 645.464868  magneticMoment: [ Abs: 0.00010  Tot: -0.00004 ]
	SubspaceRotationAdjust: set factor to 0.243
ElecMinimize: Iter:  11  G: -6728.646016674168095  |grad|_K:  2.464e-05  alpha:  2.853e-02  linmin:  4.865e-05  t[s]:   3199.16
	Linear fluid (dielectric constant: 78.4, screening length: 8.12261 Bohr) occupying 0.578823 of unit cell:	Completed after 23 iterations at t[s]:   3291.99
	Linear fluid (dielectric constant: 78.4, screening length: 8.12261 Bohr) occupying 0.578715 of unit cell:	Completed after 22 iterations at t[s]:   3356.97
	FillingsUpdate:  mu: -0.208000000  nElectrons: 645.408206  magneticMoment: [ Abs: 0.00010  Tot: -0.00004 ]
	SubspaceRotationAdjust: set factor to 0.36
ElecMinimize: Iter:  12  G: -6728.662029591018836  |grad|_K:  1.658e-05  alpha:  5.407e-02  linmin:  1.131e-05  t[s]:   3453.76
	Linear fluid (dielectric constant: 78.4, screening length: 8.12261 Bohr) occupying 0.578586 of unit cell:	Completed after 24 iterations at t[s]:   3546.84
	Linear fluid (dielectric constant: 78.4, screening length: 8.12261 Bohr) occupying 0.578621 of unit cell:	Completed after 20 iterations at t[s]:   3611.56
	FillingsUpdate:  mu: -0.208000000  nElectrons: 645.278738  magneticMoment: [ Abs: 0.00009  Tot: -0.00002 ]
	SubspaceRotationAdjust: set factor to 0.298
ElecMinimize: Iter:  13  G: -6728.667333621025136  |grad|_K:  1.586e-05  alpha:  3.920e-02  linmin: -4.578e-06  t[s]:   3708.26
	Linear fluid (dielectric constant: 78.4, screening length: 8.12261 Bohr) occupying 0.578505 of unit cell:	Completed after 22 iterations at t[s]:   3801.35
	Linear fluid (dielectric constant: 78.4, screening length: 8.12261 Bohr) occupying 0.578444 of unit cell:	Completed after 19 iterations at t[s]:   3865.60
	FillingsUpdate:  mu: -0.208000000  nElectrons: 645.295348  magneticMoment: [ Abs: 0.00008  Tot: -0.00003 ]
	SubspaceRotationAdjust: set factor to 0.303
ElecMinimize: Iter:  14  G: -6728.674787568096690  |grad|_K:  1.197e-05  alpha:  5.993e-02  linmin:  1.277e-05  t[s]:   3962.52
	Linear fluid (dielectric constant: 78.4, screening length: 8.12261 Bohr) occupying 0.578307 of unit cell:	Completed after 17 iterations at t[s]:   4054.34
	Linear fluid (dielectric constant: 78.4, screening length: 8.12261 Bohr) occupying 0.578261 of unit cell:	Completed after 15 iterations at t[s]:   4117.96
	FillingsUpdate:  mu: -0.208000000  nElectrons: 645.285244  magneticMoment: [ Abs: 0.00007  Tot: -0.00002 ]
	SubspaceRotationAdjust: set factor to 0.356
ElecMinimize: Iter:  15  G: -6728.680458532355260  |grad|_K:  9.484e-06  alpha:  8.019e-02  linmin: -9.698e-07  t[s]:   4214.57
	Linear fluid (dielectric constant: 78.4, screening length: 8.12261 Bohr) occupying 0.578096 of unit cell:	Completed after 23 iterations at t[s]:   4307.73
	Linear fluid (dielectric constant: 78.4, screening length: 8.12261 Bohr) occupying 0.578147 of unit cell:	Completed after 19 iterations at t[s]:   4372.26
	FillingsUpdate:  mu: -0.208000000  nElectrons: 645.225769  magneticMoment: [ Abs: 0.00006  Tot: -0.00001 ]
	SubspaceRotationAdjust: set factor to 0.308
ElecMinimize: Iter:  16  G: -6728.682913608613489  |grad|_K:  1.056e-05  alpha:  5.522e-02  linmin: -3.964e-07  t[s]:   4468.88
	Linear fluid (dielectric constant: 78.4, screening length: 8.12261 Bohr) occupying 0.577956 of unit cell:	Completed after 22 iterations at t[s]:   4561.56
	Linear fluid (dielectric constant: 78.4, screening length: 8.12261 Bohr) occupying 0.577993 of unit cell:	Completed after 19 iterations at t[s]:   4626.00
	FillingsUpdate:  mu: -0.208000000  nElectrons: 645.290441  magneticMoment: [ Abs: 0.00006  Tot: -0.00002 ]
	SubspaceRotationAdjust: set factor to 0.245
ElecMinimize: Iter:  17  G: -6728.685372545513928  |grad|_K:  8.911e-06  alpha:  4.451e-02  linmin:  2.912e-06  t[s]:   4722.71
	Linear fluid (dielectric constant: 78.4, screening length: 8.12261 Bohr) occupying 0.577856 of unit cell:	Completed after 20 iterations at t[s]:   4815.02
	Linear fluid (dielectric constant: 78.4, screening length: 8.12261 Bohr) occupying 0.577712 of unit cell:	Completed after 19 iterations at t[s]:   4879.32
	FillingsUpdate:  mu: -0.208000000  nElectrons: 645.296544  magneticMoment: [ Abs: 0.00005  Tot: -0.00002 ]
	SubspaceRotationAdjust: set factor to 0.274
ElecMinimize: Iter:  18  G: -6728.688916175471604  |grad|_K:  7.163e-06  alpha:  9.027e-02  linmin:  1.446e-06  t[s]:   4975.98
	Linear fluid (dielectric constant: 78.4, screening length: 8.12261 Bohr) occupying 0.577487 of unit cell:	Completed after 20 iterations at t[s]:   5068.70
	Linear fluid (dielectric constant: 78.4, screening length: 8.12261 Bohr) occupying 0.577540 of unit cell:	Completed after 14 iterations at t[s]:   5132.33
	FillingsUpdate:  mu: -0.208000000  nElectrons: 645.292575  magneticMoment: [ Abs: 0.00005  Tot: -0.00002 ]
	SubspaceRotationAdjust: set factor to 0.295
ElecMinimize: Iter:  19  G: -6728.690678391126312  |grad|_K:  5.418e-06  alpha:  6.941e-02  linmin:  7.467e-07  t[s]:   5229.12
	Linear fluid (dielectric constant: 78.4, screening length: 8.12261 Bohr) occupying 0.577412 of unit cell:	Completed after 22 iterations at t[s]:   5321.87
	Linear fluid (dielectric constant: 78.4, screening length: 8.12261 Bohr) occupying 0.577446 of unit cell:	Completed after 17 iterations at t[s]:   5386.02
	FillingsUpdate:  mu: -0.208000000  nElectrons: 645.332068  magneticMoment: [ Abs: 0.00004  Tot: -0.00002 ]
	SubspaceRotationAdjust: set factor to 0.246
ElecMinimize: Iter:  20  G: -6728.691422361845980  |grad|_K:  5.156e-06  alpha:  5.122e-02  linmin: -7.995e-08  t[s]:   5482.67
	Linear fluid (dielectric constant: 78.4, screening length: 8.12261 Bohr) occupying 0.577345 of unit cell:	Completed after 20 iterations at t[s]:   5574.96
	Linear fluid (dielectric constant: 78.4, screening length: 8.12261 Bohr) occupying 0.577328 of unit cell:	Completed after 14 iterations at t[s]:   5638.39
	FillingsUpdate:  mu: -0.208000000  nElectrons: 645.314356  magneticMoment: [ Abs: 0.00004  Tot: -0.00002 ]
	SubspaceRotationAdjust: set factor to 0.217
ElecMinimize: Iter:  21  G: -6728.692205629401542  |grad|_K:  4.385e-06  alpha:  5.952e-02  linmin: -2.369e-06  t[s]:   5735.05
	Linear fluid (dielectric constant: 78.4, screening length: 8.12261 Bohr) occupying 0.577225 of unit cell:	Completed after 15 iterations at t[s]:   5826.30
	Linear fluid (dielectric constant: 78.4, screening length: 8.12261 Bohr) occupying 0.577161 of unit cell:	Completed after 14 iterations at t[s]:   5889.87
	FillingsUpdate:  mu: -0.208000000  nElectrons: 645.324440  magneticMoment: [ Abs: 0.00004  Tot: -0.00002 ]
	SubspaceRotationAdjust: set factor to 0.245
ElecMinimize: Iter:  22  G: -6728.693119054943963  |grad|_K:  3.930e-06  alpha:  9.589e-02  linmin: -2.494e-06  t[s]:   5986.49
	Linear fluid (dielectric constant: 78.4, screening length: 8.12261 Bohr) occupying 0.577000 of unit cell:	Completed after 19 iterations at t[s]:   6078.44
	Linear fluid (dielectric constant: 78.4, screening length: 8.12261 Bohr) occupying 0.577028 of unit cell:	Completed after 14 iterations at t[s]:   6141.86
	FillingsUpdate:  mu: -0.208000000  nElectrons: 645.340327  magneticMoment: [ Abs: 0.00003  Tot: -0.00002 ]
	SubspaceRotationAdjust: set factor to 0.268
ElecMinimize: Iter:  23  G: -6728.693727601747923  |grad|_K:  3.457e-06  alpha:  7.955e-02  linmin: -1.630e-06  t[s]:   6238.60
	Linear fluid (dielectric constant: 78.4, screening length: 8.12261 Bohr) occupying 0.576905 of unit cell:	Completed after 22 iterations at t[s]:   6331.16
	Linear fluid (dielectric constant: 78.4, screening length: 8.12261 Bohr) occupying 0.576943 of unit cell:	Completed after 19 iterations at t[s]:   6395.40
	FillingsUpdate:  mu: -0.208000000  nElectrons: 645.321322  magneticMoment: [ Abs: 0.00003  Tot: -0.00001 ]
	SubspaceRotationAdjust: set factor to 0.24
ElecMinimize: Iter:  24  G: -6728.694055477311849  |grad|_K:  3.084e-06  alpha:  5.545e-02  linmin: -7.016e-07  t[s]:   6492.14
	Linear fluid (dielectric constant: 78.4, screening length: 8.12261 Bohr) occupying 0.576860 of unit cell:	Completed after 20 iterations at t[s]:   6584.71
	Linear fluid (dielectric constant: 78.4, screening length: 8.12261 Bohr) occupying 0.576832 of unit cell:	Completed after 14 iterations at t[s]:   6648.16
	FillingsUpdate:  mu: -0.208000000  nElectrons: 645.335697  magneticMoment: [ Abs: 0.00003  Tot: -0.00001 ]
	SubspaceRotationAdjust: set factor to 0.225
ElecMinimize: Iter:  25  G: -6728.694403794917889  |grad|_K:  2.920e-06  alpha:  7.393e-02  linmin: -3.068e-06  t[s]:   6744.78
	Linear fluid (dielectric constant: 78.4, screening length: 8.12261 Bohr) occupying 0.576716 of unit cell:	Completed after 15 iterations at t[s]:   6836.23
	Linear fluid (dielectric constant: 78.4, screening length: 8.12261 Bohr) occupying 0.576675 of unit cell:	Completed after 12 iterations at t[s]:   6899.34
	FillingsUpdate:  mu: -0.208000000  nElectrons: 645.335115  magneticMoment: [ Abs: 0.00002  Tot: -0.00001 ]
	SubspaceRotationAdjust: set factor to 0.277
ElecMinimize: Iter:  26  G: -6728.694824634450015  |grad|_K:  2.559e-06  alpha:  9.960e-02  linmin:  3.242e-06  t[s]:   6995.88
	Linear fluid (dielectric constant: 78.4, screening length: 8.12261 Bohr) occupying 0.576534 of unit cell:	Completed after 19 iterations at t[s]:   7088.22
	Linear fluid (dielectric constant: 78.4, screening length: 8.12261 Bohr) occupying 0.576570 of unit cell:	Completed after 15 iterations at t[s]:   7152.03
	FillingsUpdate:  mu: -0.208000000  nElectrons: 645.332106  magneticMoment: [ Abs: 0.00002  Tot: -0.00001 ]
	SubspaceRotationAdjust: set factor to 0.333
ElecMinimize: Iter:  27  G: -6728.695065827042527  |grad|_K:  2.017e-06  alpha:  7.456e-02  linmin: -8.279e-07  t[s]:   7248.66
	Linear fluid (dielectric constant: 78.4, screening length: 8.12261 Bohr) occupying 0.576490 of unit cell:	Completed after 19 iterations at t[s]:   7340.73
	Linear fluid (dielectric constant: 78.4, screening length: 8.12261 Bohr) occupying 0.576505 of unit cell:	Completed after 15 iterations at t[s]:   7404.47
	FillingsUpdate:  mu: -0.208000000  nElectrons: 645.345172  magneticMoment: [ Abs: 0.00002  Tot: -0.00001 ]
	SubspaceRotationAdjust: set factor to 0.289
ElecMinimize: Iter:  28  G: -6728.695187555551456  |grad|_K:  2.082e-06  alpha:  6.052e-02  linmin: -3.921e-06  t[s]:   7501.00
	Linear fluid (dielectric constant: 78.4, screening length: 8.12261 Bohr) occupying 0.576425 of unit cell:	Completed after 19 iterations at t[s]:   7593.47
	Linear fluid (dielectric constant: 78.4, screening length: 8.12261 Bohr) occupying 0.576437 of unit cell:	Completed after 12 iterations at t[s]:   7656.78
	FillingsUpdate:  mu: -0.208000000  nElectrons: 645.336136  magneticMoment: [ Abs: 0.00002  Tot: -0.00001 ]
	SubspaceRotationAdjust: set factor to 0.239
ElecMinimize: Iter:  29  G: -6728.695297542310982  |grad|_K:  1.901e-06  alpha:  5.121e-02  linmin: -2.834e-06  t[s]:   7753.28
	Linear fluid (dielectric constant: 78.4, screening length: 8.12261 Bohr) occupying 0.576371 of unit cell:	Completed after 14 iterations at t[s]:   7844.53
	Linear fluid (dielectric constant: 78.4, screening length: 8.12261 Bohr) occupying 0.576342 of unit cell:	Completed after 12 iterations at t[s]:   7907.57
	FillingsUpdate:  mu: -0.208000000  nElectrons: 645.346283  magneticMoment: [ Abs: 0.00002  Tot: -0.00001 ]
	SubspaceRotationAdjust: set factor to 0.312
ElecMinimize: Iter:  30  G: -6728.695429630645776  |grad|_K:  1.491e-06  alpha:  7.372e-02  linmin: -2.900e-06  t[s]:   8003.91
	Linear fluid (dielectric constant: 78.4, screening length: 8.12261 Bohr) occupying 0.576275 of unit cell:	Completed after 14 iterations at t[s]:   8095.18
	Linear fluid (dielectric constant: 78.4, screening length: 8.12261 Bohr) occupying 0.576264 of unit cell:	Completed after 9 iterations at t[s]:   8158.11
	FillingsUpdate:  mu: -0.208000000  nElectrons: 645.351283  magneticMoment: [ Abs: 0.00001  Tot: -0.00001 ]
	SubspaceRotationAdjust: set factor to 0.355
ElecMinimize: Iter:  31  G: -6728.695523753995985  |grad|_K:  1.245e-06  alpha:  8.550e-02  linmin: -1.805e-06  t[s]:   8254.64
	Linear fluid (dielectric constant: 78.4, screening length: 8.12261 Bohr) occupying 0.576197 of unit cell:	Completed after 19 iterations at t[s]:   8346.75
	Linear fluid (dielectric constant: 78.4, screening length: 8.12261 Bohr) occupying 0.576207 of unit cell:	Completed after 10 iterations at t[s]:   8409.95
	FillingsUpdate:  mu: -0.208000000  nElectrons: 645.348877  magneticMoment: [ Abs: 0.00001  Tot: -0.00001 ]
	SubspaceRotationAdjust: set factor to 0.322
ElecMinimize: Iter:  32  G: -6728.695579887490567  |grad|_K:  1.326e-06  alpha:  7.311e-02  linmin:  4.549e-06  t[s]:   8506.40
	Linear fluid (dielectric constant: 78.4, screening length: 8.12261 Bohr) occupying 0.576129 of unit cell:	Completed after 16 iterations at t[s]:   8597.94
	Linear fluid (dielectric constant: 78.4, screening length: 8.12261 Bohr) occupying 0.576165 of unit cell:	Completed after 15 iterations at t[s]:   8661.53
	FillingsUpdate:  mu: -0.208000000  nElectrons: 645.358801  magneticMoment: [ Abs: 0.00001  Tot: -0.00001 ]
	SubspaceRotationAdjust: set factor to 0.263
ElecMinimize: Iter:  33  G: -6728.695614407092762  |grad|_K:  1.190e-06  alpha:  3.979e-02  linmin:  7.489e-07  t[s]:   8758.07
	Linear fluid (dielectric constant: 78.4, screening length: 8.12261 Bohr) occupying 0.576126 of unit cell:	Completed after 12 iterations at t[s]:   8849.11
	Linear fluid (dielectric constant: 78.4, screening length: 8.12261 Bohr) occupying 0.576096 of unit cell:	Completed after 12 iterations at t[s]:   8912.25
	FillingsUpdate:  mu: -0.208000000  nElectrons: 645.357583  magneticMoment: [ Abs: 0.00001  Tot: -0.00001 ]
	SubspaceRotationAdjust: set factor to 0.304
ElecMinimize: Iter:  34  G: -6728.695663178566065  |grad|_K:  9.608e-07  alpha:  6.961e-02  linmin:  2.509e-06  t[s]:   9008.70
	Linear fluid (dielectric constant: 78.4, screening length: 8.12261 Bohr) occupying 0.576043 of unit cell:	Completed after 15 iterations at t[s]:   9100.02
	Linear fluid (dielectric constant: 78.4, screening length: 8.12261 Bohr) occupying 0.576032 of unit cell:	Completed after 9 iterations at t[s]:   9162.84
	FillingsUpdate:  mu: -0.208000000  nElectrons: 645.357074  magneticMoment: [ Abs: 0.00001  Tot: -0.00001 ]
	SubspaceRotationAdjust: set factor to 0.331
ElecMinimize: Iter:  35  G: -6728.695701778794501  |grad|_K:  8.429e-07  alpha:  8.460e-02  linmin:  2.909e-06  t[s]:   9259.34
	Linear fluid (dielectric constant: 78.4, screening length: 8.12261 Bohr) occupying 0.575972 of unit cell:	Completed after 14 iterations at t[s]:   9350.53
	Linear fluid (dielectric constant: 78.4, screening length: 8.12261 Bohr) occupying 0.575999 of unit cell:	Completed after 13 iterations at t[s]:   9413.66
	FillingsUpdate:  mu: -0.208000000  nElectrons: 645.363004  magneticMoment: [ Abs: 0.00001  Tot: -0.00000 ]
	SubspaceRotationAdjust: set factor to 0.274
ElecMinimize: Iter:  36  G: -6728.695718366698202  |grad|_K:  8.219e-07  alpha:  4.712e-02  linmin:  2.044e-06  t[s]:   9510.25
	Linear fluid (dielectric constant: 78.4, screening length: 8.12261 Bohr) occupying 0.575962 of unit cell:	Completed after 13 iterations at t[s]:   9601.20
	Linear fluid (dielectric constant: 78.4, screening length: 8.12261 Bohr) occupying 0.575958 of unit cell:	Completed after 7 iterations at t[s]:   9663.36
	FillingsUpdate:  mu: -0.208000000  nElectrons: 645.360330  magneticMoment: [ Abs: 0.00001  Tot: -0.00000 ]
	SubspaceRotationAdjust: set factor to 0.25
ElecMinimize: Iter:  37  G: -6728.695735895440521  |grad|_K:  6.428e-07  alpha:  5.248e-02  linmin:  1.127e-06  t[s]:   9759.79
	Linear fluid (dielectric constant: 78.4, screening length: 8.12261 Bohr) occupying 0.575928 of unit cell:	Completed after 9 iterations at t[s]:   9850.30
	Linear fluid (dielectric constant: 78.4, screening length: 8.12261 Bohr) occupying 0.575905 of unit cell:	Completed after 9 iterations at t[s]:   9912.81
	FillingsUpdate:  mu: -0.208000000  nElectrons: 645.362466  magneticMoment: [ Abs: 0.00001  Tot: -0.00000 ]
	SubspaceRotationAdjust: set factor to 0.279
ElecMinimize: Iter:  38  G: -6728.695754439051598  |grad|_K:  5.260e-07  alpha:  9.081e-02  linmin:  6.498e-06  t[s]:  10009.10
	Linear fluid (dielectric constant: 78.4, screening length: 8.12261 Bohr) occupying 0.575864 of unit cell:	Completed after 13 iterations at t[s]:  10100.54
	Linear fluid (dielectric constant: 78.4, screening length: 8.12261 Bohr) occupying 0.575874 of unit cell:	Completed after 10 iterations at t[s]:  10163.43
	FillingsUpdate:  mu: -0.208000000  nElectrons: 645.366232  magneticMoment: [ Abs: 0.00001  Tot: -0.00000 ]
	SubspaceRotationAdjust: set factor to 0.27
ElecMinimize: Iter:  39  G: -6728.695763821738183  |grad|_K:  4.827e-07  alpha:  6.865e-02  linmin:  1.592e-06  t[s]:  10260.01
	Linear fluid (dielectric constant: 78.4, screening length: 8.12261 Bohr) occupying 0.575842 of unit cell:	Completed after 12 iterations at t[s]:  10351.03
	Linear fluid (dielectric constant: 78.4, screening length: 8.12261 Bohr) occupying 0.575850 of unit cell:	Completed after 10 iterations at t[s]:  10413.98
	FillingsUpdate:  mu: -0.208000000  nElectrons: 645.364686  magneticMoment: [ Abs: 0.00001  Tot: -0.00000 ]
	SubspaceRotationAdjust: set factor to 0.224
ElecMinimize: Iter:  40  G: -6728.695769873167592  |grad|_K:  4.518e-07  alpha:  5.247e-02  linmin:  5.939e-06  t[s]:  10510.63
	Linear fluid (dielectric constant: 78.4, screening length: 8.12261 Bohr) occupying 0.575825 of unit cell:	Completed after 10 iterations at t[s]:  10601.53
	Linear fluid (dielectric constant: 78.4, screening length: 8.12261 Bohr) occupying 0.575809 of unit cell:	Completed after 9 iterations at t[s]:  10664.20
	FillingsUpdate:  mu: -0.208000000  nElectrons: 645.368681  magneticMoment: [ Abs: 0.00000  Tot: -0.00000 ]
	SubspaceRotationAdjust: set factor to 0.237
ElecMinimize: Iter:  41  G: -6728.695778497166430  |grad|_K:  4.004e-07  alpha:  8.553e-02  linmin:  1.158e-06  t[s]:  10760.62
	Linear fluid (dielectric constant: 78.4, screening length: 8.12261 Bohr) occupying 0.575773 of unit cell:	Completed after 10 iterations at t[s]:  10851.27
	Linear fluid (dielectric constant: 78.4, screening length: 8.12261 Bohr) occupying 0.575775 of unit cell:	Completed after 2 iterations at t[s]:  10912.69
	FillingsUpdate:  mu: -0.208000000  nElectrons: 645.371649  magneticMoment: [ Abs: 0.00000  Tot: -0.00000 ]
	SubspaceRotationAdjust: set factor to 0.253
ElecMinimize: Iter:  42  G: -6728.695784948502478  |grad|_K:  3.158e-07  alpha:  8.136e-02  linmin:  1.368e-05  t[s]:  11009.16
	Linear fluid (dielectric constant: 78.4, screening length: 8.12261 Bohr) occupying 0.575749 of unit cell:	Completed after 11 iterations at t[s]:  11100.37
	Linear fluid (dielectric constant: 78.4, screening length: 8.12261 Bohr) occupying 0.575756 of unit cell:	Completed after 9 iterations at t[s]:  11163.17
	FillingsUpdate:  mu: -0.208000000  nElectrons: 645.370916  magneticMoment: [ Abs: 0.00000  Tot: -0.00000 ]
	SubspaceRotationAdjust: set factor to 0.219
ElecMinimize: Iter:  43  G: -6728.695787802090308  |grad|_K:  2.835e-07  alpha:  5.796e-02  linmin:  1.177e-05  t[s]:  11259.54
	Linear fluid (dielectric constant: 78.4, screening length: 8.12261 Bohr) occupying 0.575738 of unit cell:	Completed after 11 iterations at t[s]:  11350.38
	Linear fluid (dielectric constant: 78.4, screening length: 8.12261 Bohr) occupying 0.575737 of unit cell:	Completed after 2 iterations at t[s]:  11411.86
	FillingsUpdate:  mu: -0.208000000  nElectrons: 645.373092  magneticMoment: [ Abs: 0.00000  Tot: -0.00000 ]
	SubspaceRotationAdjust: set factor to 0.208
ElecMinimize: Iter:  44  G: -6728.695790331495118  |grad|_K:  2.418e-07  alpha:  6.372e-02  linmin: -4.777e-05  t[s]:  11508.35
	Linear fluid (dielectric constant: 78.4, screening length: 8.12261 Bohr) occupying 0.575720 of unit cell:	Completed after 3 iterations at t[s]:  11597.91
	Linear fluid (dielectric constant: 78.4, screening length: 8.12261 Bohr) occupying 0.575708 of unit cell:	Completed after 2 iterations at t[s]:  11659.50
	FillingsUpdate:  mu: -0.208000000  nElectrons: 645.374173  magneticMoment: [ Abs: 0.00000  Tot: -0.00000 ]
	SubspaceRotationAdjust: set factor to 0.235
ElecMinimize: Iter:  45  G: -6728.695793461846733  |grad|_K:  2.479e-07  alpha:  1.068e-01  linmin: -8.934e-06  t[s]:  11756.03
	Linear fluid (dielectric constant: 78.4, screening length: 8.12261 Bohr) occupying 0.575674 of unit cell:	Completed after 11 iterations at t[s]:  11846.78
	Linear fluid (dielectric constant: 78.4, screening length: 8.12261 Bohr) occupying 0.575686 of unit cell:	Completed after 8 iterations at t[s]:  11909.39
	FillingsUpdate:  mu: -0.208000000  nElectrons: 645.373378  magneticMoment: [ Abs: 0.00000  Tot: -0.00000 ]
	SubspaceRotationAdjust: set factor to 0.208
ElecMinimize: Iter:  46  G: -6728.695795608146909  |grad|_K:  2.192e-07  alpha:  6.971e-02  linmin:  3.315e-05  t[s]:  12005.87
	Linear fluid (dielectric constant: 78.4, screening length: 8.12261 Bohr) occupying 0.575666 of unit cell:	Completed after 11 iterations at t[s]:  12096.79
	Linear fluid (dielectric constant: 78.4, screening length: 8.12261 Bohr) occupying 0.575669 of unit cell:	Completed after 2 iterations at t[s]:  12158.12
	FillingsUpdate:  mu: -0.208000000  nElectrons: 645.374971  magneticMoment: [ Abs: 0.00000  Tot: -0.00000 ]
	SubspaceRotationAdjust: set factor to 0.193
ElecMinimize: Iter:  47  G: -6728.695797021099679  |grad|_K:  1.626e-07  alpha:  5.981e-02  linmin:  7.840e-05  t[s]:  12254.66
	Linear fluid (dielectric constant: 78.4, screening length: 8.12261 Bohr) occupying 0.575658 of unit cell:	Completed after 3 iterations at t[s]:  12344.07
	Linear fluid (dielectric constant: 78.4, screening length: 8.12261 Bohr) occupying 0.575651 of unit cell:	Completed after 2 iterations at t[s]:  12405.71
	FillingsUpdate:  mu: -0.208000000  nElectrons: 645.375596  magneticMoment: [ Abs: 0.00000  Tot: -0.00000 ]
	SubspaceRotationAdjust: set factor to 0.216
ElecMinimize: Iter:  48  G: -6728.695798275930429  |grad|_K:  1.597e-07  alpha:  9.664e-02  linmin: -4.225e-05  t[s]:  12502.17
	Linear fluid (dielectric constant: 78.4, screening length: 8.12261 Bohr) occupying 0.575632 of unit cell:	Completed after 9 iterations at t[s]:  12592.77
	Linear fluid (dielectric constant: 78.4, screening length: 8.12261 Bohr) occupying 0.575631 of unit cell:	Completed after 0 iterations at t[s]:  12653.79
	FillingsUpdate:  mu: -0.208000000  nElectrons: 645.376207  magneticMoment: [ Abs: 0.00000  Tot: -0.00000 ]
	SubspaceRotationAdjust: set factor to 0.222
ElecMinimize: Iter:  49  G: -6728.695799566049573  |grad|_K:  1.585e-07  alpha:  1.007e-01  linmin: -1.019e-04  t[s]:  12750.26
	Linear fluid (dielectric constant: 78.4, screening length: 8.12261 Bohr) occupying 0.575609 of unit cell:	Completed after 12 iterations at t[s]:  12841.40
	Linear fluid (dielectric constant: 78.4, screening length: 8.12261 Bohr) occupying 0.575619 of unit cell:	Completed after 9 iterations at t[s]:  12904.51
	FillingsUpdate:  mu: -0.208000000  nElectrons: 645.377758  magneticMoment: [ Abs: 0.00000  Tot: -0.00000 ]
	SubspaceRotationAdjust: set factor to 0.181
ElecMinimize: Iter:  50  G: -6728.695800282272103  |grad|_K:  1.234e-07  alpha:  5.563e-02  linmin:  2.187e-05  t[s]:  13000.99
	Linear fluid (dielectric constant: 78.4, screening length: 8.12261 Bohr) occupying 0.575610 of unit cell:	Completed after 6 iterations at t[s]:  13091.03
	Linear fluid (dielectric constant: 78.4, screening length: 8.12261 Bohr) occupying 0.575607 of unit cell:	Completed after 3 iterations at t[s]:  13152.64
	FillingsUpdate:  mu: -0.208000000  nElectrons: 645.377848  magneticMoment: [ Abs: 0.00000  Tot: -0.00000 ]
	SubspaceRotationAdjust: set factor to 0.214
ElecMinimize: Iter:  51  G: -6728.695800870334097  |grad|_K:  1.056e-07  alpha:  7.909e-02  linmin:  1.299e-05  t[s]:  13249.22
	Linear fluid (dielectric constant: 78.4, screening length: 8.12261 Bohr) occupying 0.575597 of unit cell:	Completed after 7 iterations at t[s]:  13339.14
	Linear fluid (dielectric constant: 78.4, screening length: 8.12261 Bohr) occupying 0.575596 of unit cell:	Completed after 0 iterations at t[s]:  13400.43
	FillingsUpdate:  mu: -0.208000000  nElectrons: 645.377590  magneticMoment: [ Abs: 0.00000  Tot: -0.00000 ]
	SubspaceRotationAdjust: set factor to 0.214
ElecMinimize: Iter:  52  G: -6728.695801362930979  |grad|_K:  1.243e-07  alpha:  8.890e-02  linmin: -1.996e-04  t[s]:  13496.94
	Linear fluid (dielectric constant: 78.4, screening length: 8.12261 Bohr) occupying 0.575579 of unit cell:	Completed after 10 iterations at t[s]:  13587.67
	Linear fluid (dielectric constant: 78.4, screening length: 8.12261 Bohr) occupying 0.575585 of unit cell:	Completed after 6 iterations at t[s]:  13649.69
	FillingsUpdate:  mu: -0.208000000  nElectrons: 645.378596  magneticMoment: [ Abs: 0.00000  Tot: -0.00000 ]
	SubspaceRotationAdjust: set factor to 0.186
ElecMinimize: Iter:  53  G: -6728.695801836051942  |grad|_K:  9.185e-08  alpha:  5.758e-02  linmin:  4.035e-05  t[s]:  13746.15
	Linear fluid (dielectric constant: 78.4, screening length: 8.12261 Bohr) occupying 0.575578 of unit cell:	Completed after 2 iterations at t[s]:  13835.68
	Linear fluid (dielectric constant: 78.4, screening length: 8.12261 Bohr) occupying 0.575574 of unit cell:	Completed after 2 iterations at t[s]:  13897.26
	FillingsUpdate:  mu: -0.208000000  nElectrons: 645.378897  magneticMoment: [ Abs: 0.00000  Tot: -0.00000 ]
	SubspaceRotationAdjust: set factor to 0.214
ElecMinimize: Iter:  54  G: -6728.695802193319651  |grad|_K:  7.973e-08  alpha:  8.778e-02  linmin: -1.289e-05  t[s]:  13993.75
	Linear fluid (dielectric constant: 78.4, screening length: 8.12261 Bohr) occupying 0.575566 of unit cell:	Completed after 7 iterations at t[s]:  14083.91
	Linear fluid (dielectric constant: 78.4, screening length: 8.12261 Bohr) occupying 0.575566 of unit cell:	Completed after 0 iterations at t[s]:  14144.97
	FillingsUpdate:  mu: -0.208000000  nElectrons: 645.378667  magneticMoment: [ Abs: 0.00000  Tot: -0.00000 ]
	SubspaceRotationAdjust: set factor to 0.193
ElecMinimize: Iter:  55  G: -6728.695802459505103  |grad|_K:  8.879e-08  alpha:  8.395e-02  linmin: -9.637e-06  t[s]:  14241.47
	Linear fluid (dielectric constant: 78.4, screening length: 8.12261 Bohr) occupying 0.575556 of unit cell:	Completed after 8 iterations at t[s]:  14332.16
	Linear fluid (dielectric constant: 78.4, screening length: 8.12261 Bohr) occupying 0.575558 of unit cell:	Completed after 2 iterations at t[s]:  14393.56
	FillingsUpdate:  mu: -0.208000000  nElectrons: 645.379401  magneticMoment: [ Abs: 0.00000  Tot: -0.00000 ]
	SubspaceRotationAdjust: set factor to 0.159
ElecMinimize: Iter:  56  G: -6728.695802701055982  |grad|_K:  7.217e-08  alpha:  6.266e-02  linmin:  4.610e-05  t[s]:  14490.21
	Linear fluid (dielectric constant: 78.4, screening length: 8.12261 Bohr) occupying 0.575553 of unit cell:	Completed after 3 iterations at t[s]:  14579.76
	Linear fluid (dielectric constant: 78.4, screening length: 8.12261 Bohr) occupying 0.575551 of unit cell:	Completed after 0 iterations at t[s]:  14640.73
	FillingsUpdate:  mu: -0.208000000  nElectrons: 645.379571  magneticMoment: [ Abs: 0.00000  Tot: -0.00000 ]
	SubspaceRotationAdjust: set factor to 0.202
ElecMinimize: Iter:  57  G: -6728.695802895271299  |grad|_K:  5.310e-08  alpha:  7.670e-02  linmin: -8.056e-05  t[s]:  14737.22
	Linear fluid (dielectric constant: 78.4, screening length: 8.12261 Bohr) occupying 0.575547 of unit cell:	Completed after 6 iterations at t[s]:  14827.59
	Linear fluid (dielectric constant: 78.4, screening length: 8.12261 Bohr) occupying 0.575548 of unit cell:	Completed after 0 iterations at t[s]:  14888.69
	FillingsUpdate:  mu: -0.208000000  nElectrons: 645.379525  magneticMoment: [ Abs: 0.00000  Tot: -0.00000 ]
	SubspaceRotationAdjust: set factor to 0.181
ElecMinimize: Iter:  58  G: -6728.695802981041197  |grad|_K:  6.235e-08  alpha:  6.313e-02  linmin: -3.400e-05  t[s]:  14985.19
	Linear fluid (dielectric constant: 78.4, screening length: 8.12261 Bohr) occupying 0.575543 of unit cell:	Completed after 7 iterations at t[s]:  15075.57
	Linear fluid (dielectric constant: 78.4, screening length: 8.12261 Bohr) occupying 0.575544 of unit cell:	Completed after 0 iterations at t[s]:  15136.38
	FillingsUpdate:  mu: -0.208000000  nElectrons: 645.380121  magneticMoment: [ Abs: 0.00000  Tot: -0.00000 ]
	SubspaceRotationAdjust: set factor to 0.161
ElecMinimize: Iter:  59  G: -6728.695803080999212  |grad|_K:  5.124e-08  alpha:  5.086e-02  linmin:  1.037e-04  t[s]:  15232.80
ElecMinimize: Converged (|Delta G|<1.000000e-07 for 2 iters).
Setting wave functions to eigenvectors of Hamiltonian
Converging empty states (this may take a while): |deigs|: 8.472e-04

Computing DFT-D3 correction:
# coordination-number Cu 6.817 9.105 5.553 6.881 9.102 9.177 9.152 9.045 9.167 9.181 9.182 9.089 9.163 9.158 9.033 6.865 7.500 9.033 9.161 7.503 9.089 9.182 9.183 9.041 9.155 9.164 9.178 9.103 6.883 9.167 9.099 6.813 6.862 5.555
# diagonal-C6 Cu 175.00 175.00 175.00 175.00 175.00 175.00 175.00 175.00 175.00 175.00 175.00 175.00 175.00 175.00 175.00 175.00 175.00 175.00 175.00 175.00 175.00 175.00 175.00 175.00 175.00 175.00 175.00 175.00 175.00 175.00 175.00 175.00 175.00 175.00
EvdW_6 =   -0.219449
EvdW_8 =   -0.319212

# Ionic positions in cartesian coordinates:
ion Cu   0.000010000000000  11.524257999999996   1.212956000000000 1
ion Cu  -0.000057000000000  15.098188999999998   4.513042999999999 1
ion Cu   0.000057000000000   0.059392000000000  27.269868999999996 1
ion Cu  -0.000067000000000   3.503985000000000   2.818057000000000 1
ion Cu  -0.000043000000000   6.930634999999999   6.150411999999999 1
ion Cu  -0.000029000000000  10.386627000000001   9.415312000000000 1
ion Cu  -0.000024000000000  17.348667999999996  15.944027999999998 1
ion Cu  -0.000043000000000  18.499819999999996   7.756346999999999 1
ion Cu   0.000005000000000   2.296330000000000  11.037506000000000 1
ion Cu   0.000005000000000   5.783334999999999  14.302822999999998 1
ion Cu  -0.000024000000000   9.269140999999998  17.571224999999998 1
ion Cu   0.000062000000000  12.734251999999998  20.850383999999995 1
ion Cu  -0.000010000000000  13.869130999999998  12.666036999999998 1
ion Cu  -0.000038000000000   1.164851000000000  19.210095999999997 1
ion Cu   0.000014000000000   4.614926999999999  22.456067999999998 1
ion Cu   0.000195000000000   8.089313999999998  25.760990999999997 1
ion Cu   0.000081000000000  16.104830999999997  24.243107999999999 1
ion Cu   2.383268000000000  10.994483999999996   5.338522999999999 1
ion Cu   2.383302000000000  14.444186999999996   8.584329000000000 1
ion Cu   2.383249000000000  19.154863999999996   3.551566999999999 1
ion Cu   2.383235000000000   2.874037999999999   6.944208000000000 1
ion Cu   2.383287000000000   6.339207999999999  10.222781999999999 1
ion Cu   2.383283000000000   9.824070999999998  13.491018000000000 1
ion Cu   2.383345000000000  16.759304999999998  20.036909999999995 1
ion Cu   2.383354000000000  17.912500999999995  11.849395999999999 1
ion Cu   2.383302000000000   1.737705000000000  15.127469999999999 1
ion Cu   2.383302000000000   5.219325000000000  18.377694999999999 1
ion Cu   2.383345000000000   8.675316999999998  21.642844999999998 1
ion Cu   2.383392000000000  12.100904999999997  24.975700999999997 1
ion Cu   2.383283000000000  13.309522999999997  16.755834000000000 1
ion Cu   2.383364000000000   0.508883000000000  23.281214999999996 1
ion Cu   2.383401999999999   4.083285999999999  26.581301999999997 1
ion Cu   2.383239999999999   7.518562999999999   2.033599999999999 1
ion Cu   2.383254000000000  15.545458999999997   0.524722000000000 1

# Forces in Cartesian coordinates:
force Cu  -0.000002718188605  -0.000002575534917   0.001536502416094 1
force Cu   0.000000923945581  -0.000051748355258  -0.001308927286657 1
force Cu   0.000000655110511  -0.000918766628398   0.000448165353741 1
force Cu  -0.000000392779565  -0.000419626466751   0.000405718068360 1
force Cu  -0.000000161633318   0.000113123222344  -0.000439259009182 1
force Cu  -0.000000607705773   0.000275116917795   0.000095353556466 1
force Cu   0.000000541544501   0.000070405302697  -0.000322564416546 1
force Cu  -0.000000751604125  -0.000219378075706   0.000350594225491 1
force Cu  -0.000000295915168  -0.000018164558266  -0.000148742718246 1
force Cu   0.000000065494725  -0.000232297961650   0.000060862508176 1
force Cu   0.000000306474879   0.000164815861425   0.000086191297455 1
force Cu  -0.000000798710302   0.000048179800940   0.000540441421746 1
force Cu   0.000000097004183   0.000051556878030   0.000605982138904 1
force Cu   0.000001340963597  -0.000203445942202  -0.000047665480429 1
force Cu   0.000000947028297   0.000050172857351   0.000066994889985 1
force Cu  -0.000000738182228  -0.000075946117526  -0.000592705486155 1
force Cu   0.000001267561704   0.000256397176609  -0.001567352993901 1
force Cu   0.000000387750789  -0.000032332517471  -0.000087914213446 1
force Cu  -0.000000910024501   0.000191866983687   0.000115319040561 1
force Cu   0.000000356647202  -0.000223308863315   0.001516533582269 1
force Cu   0.000001292924128  -0.000043631599011  -0.000539458208592 1
force Cu   0.000000151698920  -0.000152373516571   0.000014780585121 1
force Cu   0.000000070293428   0.000238702897838   0.000023386235435 1
force Cu   0.000000982376003   0.000235888113869  -0.000287199670695 1
force Cu  -0.000000756922229  -0.000042971382115   0.000438956777919 1
force Cu   0.000000096505994  -0.000062580173534  -0.000517107940881 1
force Cu  -0.000000593791296  -0.000272482705020   0.000010318526963 1
force Cu   0.000000594495981  -0.000130500318522   0.000428684126147 1
force Cu   0.000001981272948   0.000382391000864  -0.000463536935489 1
force Cu   0.000000908292693   0.000005022491307   0.000255855709708 1
force Cu   0.000002301314547  -0.000002488652503   0.001239839535848 1
force Cu   0.000001128582180   0.000005641684743  -0.001607300120225 1
force Cu   0.000000669391206   0.000092601094286   0.000522030990490 1
force Cu  -0.000000079914102   0.000847656222604  -0.000565261803527 1

# Energy components:
   A_diel =        0.0648943154437955
   Eewald =    82410.8376639783527935
       EH =    88623.2851346043753438
     Eloc =  -179185.3779965940921102
      Enl =     1245.2000356951339199
     EvdW =       -0.5386610677878225
      Exc =     -659.7875898960792256
 Exc_core =        1.5969501133910011
       KE =      701.7351179467241309
  MuShift =        0.0508652433376946
-------------------------------------
     Etot =    -6862.9335856612215139
       TS =        0.0012826598620726
-------------------------------------
        F =    -6862.9348683210837407
      muN =     -134.2390652400847841
-------------------------------------
        G =    -6728.6958030809992124


Dumping 'jdft.fillings' ... done
Dumping 'jdft.wfns' ... done
Dumping 'jdft.fluidState' ... done
Dumping 'jdft.ionpos' ... done
Dumping 'jdft.lattice' ... done
Dumping 'jdft.eigenvals' ... done
Dumping 'jdft.eigStats' ... 
	eMin: -4.347670 at state 19 ( [ +0.000000 +0.000000 +0.000000 ] spin -1 )
	HOMO: -0.208069 at state 7 ( [ +0.166667 -0.333333 +0.000000 ] spin 1 )
	mu  : -0.208000
	LUMO: -0.207728 at state 28 ( [ +0.250000 +0.333333 +0.000000 ] spin -1 )
	eMax: +0.194649 at state 17 ( [ +0.500000 +0.000000 +0.000000 ] spin 1 )
	HOMO-LUMO gap: +0.000341
	Optical gap  : +0.003421 at state 21 ( [ +0.083333 +0.000000 +0.000000 ] spin -1 )
Dumping 'jdft.Ecomponents' ... done
IonicMinimize: Iter:   0  G: -6728.695803080999212  |grad|_K:  4.346e-04  t[s]:  16250.39

#--- Lowdin population analysis ---
# oxidation-state Cu +0.154 +0.040 +0.300 +0.157 +0.065 +0.075 +0.077 +0.074 +0.075 +0.078 +0.075 +0.068 +0.077 +0.074 +0.067 +0.157 +0.084 +0.067 +0.074 +0.084 +0.068 +0.075 +0.078 +0.074 +0.077 +0.077 +0.075 +0.065 +0.157 +0.075 +0.040 +0.155 +0.157 +0.300
# magnetic-moments Cu -0.000 -0.000 -0.000 -0.000 -0.000 -0.000 -0.000 -0.000 -0.000 -0.000 -0.000 -0.000 -0.000 -0.000 -0.000 -0.000 -0.000 -0.000 -0.000 -0.000 -0.000 -0.000 -0.000 -0.000 -0.000 -0.000 -0.000 -0.000 -0.000 -0.000 -0.000 -0.000 -0.000 -0.000


Computing DFT-D3 correction:
# coordination-number Cu 6.819 9.105 5.552 6.882 9.103 9.176 9.153 9.046 9.167 9.181 9.181 9.090 9.164 9.157 9.035 6.866 7.504 9.035 9.159 7.506 9.090 9.181 9.182 9.043 9.156 9.165 9.177 9.104 6.884 9.167 9.100 6.816 6.864 5.554
# diagonal-C6 Cu 175.00 175.00 175.00 175.00 175.00 175.00 175.00 175.00 175.00 175.00 175.00 175.00 175.00 175.00 175.00 175.00 175.00 175.00 175.00 175.00 175.00 175.00 175.00 175.00 175.00 175.00 175.00 175.00 175.00 175.00 175.00 175.00 175.00 175.00
EvdW_6 =   -0.219451
EvdW_8 =   -0.319219
Shifting auxilliary hamiltonian by -0.000025 to set nElectrons=645.380121

-------- Electronic minimization -----------
	Linear fluid (dielectric constant: 78.4, screening length: 8.12261 Bohr) occupying 0.575529 of unit cell:	Completed after 14 iterations at t[s]:  16354.12
	FillingsUpdate:  mu: -0.208000000  nElectrons: 645.380121  magneticMoment: [ Abs: 0.00000  Tot: -0.00000 ]
ElecMinimize: Iter:   0  G: -6728.695804084174597  |grad|_K:  6.852e-07  alpha:  1.000e+00
	Linear fluid (dielectric constant: 78.4, screening length: 8.12261 Bohr) occupying 0.575530 of unit cell:	Completed after 19 iterations at t[s]:  16557.48
	Linear fluid (dielectric constant: 78.4, screening length: 8.12261 Bohr) occupying 0.575529 of unit cell:	Completed after 19 iterations at t[s]:  16621.60
	FillingsUpdate:  mu: -0.208000000  nElectrons: 645.385108  magneticMoment: [ Abs: 0.00000  Tot: -0.00000 ]
	SubspaceRotationAdjust: set factor to 0.12
ElecMinimize: Iter:   1  G: -6728.695812715436659  |grad|_K:  2.004e-07  alpha:  3.609e-02  linmin: -1.477e-03  t[s]:  16718.09
	Linear fluid (dielectric constant: 78.4, screening length: 8.12261 Bohr) occupying 0.575529 of unit cell:	Completed after 6 iterations at t[s]:  16807.78
ElecMinimize: 	Predicted alpha/alphaT>3.000000, increasing alphaT to 1.082634e-01.
	Linear fluid (dielectric constant: 78.4, screening length: 8.12261 Bohr) occupying 0.575529 of unit cell:	Completed after 9 iterations at t[s]:  16870.21
	Linear fluid (dielectric constant: 78.4, screening length: 8.12261 Bohr) occupying 0.575529 of unit cell:	Completed after 6 iterations at t[s]:  16932.10
	FillingsUpdate:  mu: -0.208000000  nElectrons: 645.383443  magneticMoment: [ Abs: 0.00000  Tot: -0.00000 ]
	SubspaceRotationAdjust: set factor to 0.17
ElecMinimize: Iter:   2  G: -6728.695815708590999  |grad|_K:  1.615e-07  alpha:  1.462e-01  linmin: -6.974e-05  t[s]:  17028.45
	Linear fluid (dielectric constant: 78.4, screening length: 8.12261 Bohr) occupying 0.575528 of unit cell:	Completed after 10 iterations at t[s]:  17118.71
	Linear fluid (dielectric constant: 78.4, screening length: 8.12261 Bohr) occupying 0.575528 of unit cell:	Completed after 7 iterations at t[s]:  17180.77
	FillingsUpdate:  mu: -0.208000000  nElectrons: 645.381050  magneticMoment: [ Abs: 0.00000  Tot: -0.00000 ]
	SubspaceRotationAdjust: set factor to 0.11
ElecMinimize: Iter:   3  G: -6728.695817260862896  |grad|_K:  1.346e-07  alpha:  1.204e-01  linmin: -7.120e-05  t[s]:  17277.22
	Linear fluid (dielectric constant: 78.4, screening length: 8.12261 Bohr) occupying 0.575528 of unit cell:	Completed after 11 iterations at t[s]:  17367.75
	Linear fluid (dielectric constant: 78.4, screening length: 8.12261 Bohr) occupying 0.575528 of unit cell:	Completed after 10 iterations at t[s]:  17430.30
	FillingsUpdate:  mu: -0.208000000  nElectrons: 645.381717  magneticMoment: [ Abs: 0.00000  Tot: -0.00000 ]
	SubspaceRotationAdjust: set factor to 0.071
ElecMinimize: Iter:   4  G: -6728.695817678918502  |grad|_K:  6.554e-08  alpha:  4.827e-02  linmin:  6.928e-05  t[s]:  17526.69
	Linear fluid (dielectric constant: 78.4, screening length: 8.12261 Bohr) occupying 0.575528 of unit cell:	Completed after 2 iterations at t[s]:  17615.82
ElecMinimize: 	Predicted alpha/alphaT>3.000000, increasing alphaT to 1.448092e-01.
	Linear fluid (dielectric constant: 78.4, screening length: 8.12261 Bohr) occupying 0.575528 of unit cell:	Completed after 2 iterations at t[s]:  17677.15
	Linear fluid (dielectric constant: 78.4, screening length: 8.12261 Bohr) occupying 0.575527 of unit cell:	Completed after 3 iterations at t[s]:  17738.63
	FillingsUpdate:  mu: -0.208000000  nElectrons: 645.381553  magneticMoment: [ Abs: 0.00000  Tot: -0.00000 ]
	SubspaceRotationAdjust: set factor to 0.0926
ElecMinimize: Iter:   5  G: -6728.695818124120706  |grad|_K:  5.774e-08  alpha:  2.121e-01  linmin:  8.439e-06  t[s]:  17835.03
	Linear fluid (dielectric constant: 78.4, screening length: 8.12261 Bohr) occupying 0.575527 of unit cell:	Completed after 10 iterations at t[s]:  17925.32
	Linear fluid (dielectric constant: 78.4, screening length: 8.12261 Bohr) occupying 0.575527 of unit cell:	Completed after 5 iterations at t[s]:  17987.16
	FillingsUpdate:  mu: -0.208000000  nElectrons: 645.380905  magneticMoment: [ Abs: 0.00000  Tot: -0.00000 ]
	SubspaceRotationAdjust: set factor to 0.0746
ElecMinimize: Iter:   6  G: -6728.695818352088281  |grad|_K:  4.238e-08  alpha:  1.375e-01  linmin:  1.019e-04  t[s]:  18083.54
	Linear fluid (dielectric constant: 78.4, screening length: 8.12261 Bohr) occupying 0.575527 of unit cell:	Completed after 7 iterations at t[s]:  18173.32
	Linear fluid (dielectric constant: 78.4, screening length: 8.12261 Bohr) occupying 0.575527 of unit cell:	Completed after 0 iterations at t[s]:  18233.98
	FillingsUpdate:  mu: -0.208000000  nElectrons: 645.381194  magneticMoment: [ Abs: 0.00000  Tot: -0.00000 ]
	SubspaceRotationAdjust: set factor to 0.075
ElecMinimize: Iter:   7  G: -6728.695818499686538  |grad|_K:  3.023e-08  alpha:  1.640e-01  linmin: -3.349e-04  t[s]:  18330.28
	Linear fluid (dielectric constant: 78.4, screening length: 8.12261 Bohr) occupying 0.575527 of unit cell:	Completed after 2 iterations at t[s]:  18419.18
	Linear fluid (dielectric constant: 78.4, screening length: 8.12261 Bohr) occupying 0.575527 of unit cell:	Completed after 0 iterations at t[s]:  18479.85
	FillingsUpdate:  mu: -0.208000000  nElectrons: 645.381169  magneticMoment: [ Abs: 0.00000  Tot: -0.00000 ]
	SubspaceRotationAdjust: set factor to 0.0942
ElecMinimize: Iter:   8  G: -6728.695818573726683  |grad|_K:  2.333e-08  alpha:  1.476e-01  linmin:  2.338e-05  t[s]:  18576.27
	Linear fluid (dielectric constant: 78.4, screening length: 8.12261 Bohr) occupying 0.575527 of unit cell:	Completed after 3 iterations at t[s]:  18665.49
	Linear fluid (dielectric constant: 78.4, screening length: 8.12261 Bohr) occupying 0.575527 of unit cell:	Completed after 3 iterations at t[s]:  18726.91
	FillingsUpdate:  mu: -0.208000000  nElectrons: 645.380911  magneticMoment: [ Abs: 0.00000  Tot: +0.00000 ]
	SubspaceRotationAdjust: set factor to 0.0887
ElecMinimize: Iter:   9  G: -6728.695818626832079  |grad|_K:  2.570e-08  alpha:  2.224e-01  linmin:  8.302e-05  t[s]:  18823.25
ElecMinimize: Converged (|Delta G|<1.000000e-07 for 2 iters).
Setting wave functions to eigenvectors of Hamiltonian
Converging empty states (this may take a while): |deigs|: 3.511e-08

Computing DFT-D3 correction:
# coordination-number Cu 6.819 9.105 5.552 6.882 9.103 9.176 9.153 9.046 9.167 9.181 9.181 9.090 9.164 9.157 9.035 6.866 7.504 9.035 9.159 7.506 9.090 9.181 9.182 9.043 9.156 9.165 9.177 9.104 6.884 9.167 9.100 6.816 6.864 5.554
# diagonal-C6 Cu 175.00 175.00 175.00 175.00 175.00 175.00 175.00 175.00 175.00 175.00 175.00 175.00 175.00 175.00 175.00 175.00 175.00 175.00 175.00 175.00 175.00 175.00 175.00 175.00 175.00 175.00 175.00 175.00 175.00 175.00 175.00 175.00 175.00 175.00
EvdW_6 =   -0.219451
EvdW_8 =   -0.319219

# Ionic positions in cartesian coordinates:
ion Cu   0.000007038831901  11.524257632725735   1.214484634336596 1
ion Cu  -0.000056319033913  15.098139459905397   4.511726204633844 1
ion Cu   0.000057412131018   0.058475441632260  27.270309297274242 1
ion Cu  -0.000067635759058   3.503567581793906   2.818454849988862 1
ion Cu  -0.000043404612812   6.930750331483000   6.149964872911320 1
ion Cu  -0.000029850685267  10.386904325178453   9.415399485476968 1
ion Cu  -0.000023701434993  17.348740613563351  15.943697567503955 1
ion Cu  -0.000043994583618  18.499602830184948   7.756689726145993 1
ion Cu   0.000004461105338   2.296314043702391  11.037349389202257 1
ion Cu   0.000004822515231   5.783104910299006  14.302875994428677 1
ion Cu  -0.000023936504615   9.269308024122079  17.571303323217954 1
ion Cu   0.000060958310205  12.734302388061595  20.850916573342243 1
ion Cu  -0.000010145975311  13.869184765138685  12.666635114059405 1
ion Cu  -0.000036902015896   1.164649762318455  19.210040466440070 1
ion Cu   0.000014704048803   4.614979381118007  22.456127126810486 1
ion Cu   0.000194018838278   8.089240262143131  25.760390426434341 1
ion Cu   0.000082024582211  16.105089605437264  24.241532778926601 1
ion Cu   2.383268144771295  10.994453875743185   5.338427217707056 1
ion Cu   2.383300846996006  14.444381075244340   8.584436450961064 1
ion Cu   2.383249113667708  19.154642899397338   3.553075665502772 1
ion Cu   2.383236049944634   2.873996576661646   6.943660673711910 1
ion Cu   2.383286908719426   6.339057834744086  10.222788912505623 1
ion Cu   2.383282827313934   9.824311911158492  13.491033518155939 1
ion Cu   2.383345739396509  16.759543096374525  20.036614932249805 1
ion Cu   2.383353000098277  17.912460236878538  11.849827088698422 1
ion Cu   2.383301853526500   1.737644628087123  15.126945023979621 1
ion Cu   2.383301163229210   5.219054725555638  18.377697450447464 1
ion Cu   2.383345351516487   8.675188707942134  21.643265816046647 1
ion Cu   2.383393738293454  12.101289599261518  24.975229594985013 1
ion Cu   2.383283665313199  13.309530230751960  16.756081987630211 1
ion Cu   2.383366058335052   0.508882719608155  23.282446971456345 1
ion Cu   2.383402885602686   4.083293849945400  26.579686831800274 1
ion Cu   2.383240426411712   7.518657809354942   2.034114162910992 1
ion Cu   2.383253677106404  15.546308864483258   0.524148870116976 1

# Forces in Cartesian coordinates:
force Cu  -0.000002435790905  -0.000052371295693   0.001142723641008 1
force Cu   0.000000871104237  -0.000063176182424  -0.001235964299199 1
[...]
	SubspaceRotationAdjust: set factor to 0.0837
ElecMinimize: Iter:   8  G: -6728.695875275153412  |grad|_K:  1.368e-07  alpha:  3.704e-01  linmin:  1.510e-04  t[s]:  21288.16
	Linear fluid (dielectric constant: 78.4, screening length: 8.12261 Bohr) occupying 0.575582 of unit cell:	Completed after 11 iterations at t[s]:  21378.64
	Linear fluid (dielectric constant: 78.4, screening length: 8.12261 Bohr) occupying 0.575580 of unit cell:	Completed after 11 iterations at t[s]:  21441.34
	FillingsUpdate:  mu: -0.208000000  nElectrons: 645.379452  magneticMoment: [ Abs: 0.00008  Tot: -0.00001 ]
	SubspaceRotationAdjust: set factor to 0.0953
ElecMinimize: Iter:   9  G: -6728.695876700032386  |grad|_K:  1.073e-07  alpha:  1.556e-01  linmin:  3.717e-05  t[s]:  21537.88
	Linear fluid (dielectric constant: 78.4, screening length: 8.12261 Bohr) occupying 0.575581 of unit cell:	Completed after 6 iterations at t[s]:  21627.57
	Linear fluid (dielectric constant: 78.4, screening length: 8.12261 Bohr) occupying 0.575581 of unit cell:	Completed after 7 iterations at t[s]:  21689.84
	FillingsUpdate:  mu: -0.208000000  nElectrons: 645.378667  magneticMoment: [ Abs: 0.00002  Tot: -0.00001 ]
	SubspaceRotationAdjust: set factor to 0.103
ElecMinimize: Iter:  10  G: -6728.695878252305192  |grad|_K:  1.435e-07  alpha:  2.739e-01  linmin:  4.480e-05  t[s]:  21786.26
	Linear fluid (dielectric constant: 78.4, screening length: 8.12261 Bohr) occupying 0.575584 of unit cell:	Completed after 10 iterations at t[s]:  21876.45
	Linear fluid (dielectric constant: 78.4, screening length: 8.12261 Bohr) occupying 0.575584 of unit cell:	Completed after 0 iterations at t[s]:  21937.14
	FillingsUpdate:  mu: -0.208000000  nElectrons: 645.379039  magneticMoment: [ Abs: 0.00017  Tot: -0.00001 ]
	SubspaceRotationAdjust: set factor to 0.109
ElecMinimize: Iter:  11  G: -6728.695880883333302  |grad|_K:  1.429e-07  alpha:  2.595e-01  linmin:  4.152e-05  t[s]:  22033.73
	Linear fluid (dielectric constant: 78.4, screening length: 8.12261 Bohr) occupying 0.575586 of unit cell:	Completed after 6 iterations at t[s]:  22123.48
	Linear fluid (dielectric constant: 78.4, screening length: 8.12261 Bohr) occupying 0.575586 of unit cell:	Completed after 2 iterations at t[s]:  22184.73
	FillingsUpdate:  mu: -0.208000000  nElectrons: 645.378810  magneticMoment: [ Abs: 0.00007  Tot: -0.00001 ]
	SubspaceRotationAdjust: set factor to 0.116
ElecMinimize: Iter:  12  G: -6728.695883184913328  |grad|_K:  1.656e-07  alpha:  2.291e-01  linmin:  8.014e-06  t[s]:  22281.18
	Linear fluid (dielectric constant: 78.4, screening length: 8.12261 Bohr) occupying 0.575588 of unit cell:	Completed after 7 iterations at t[s]:  22370.95
	Linear fluid (dielectric constant: 78.4, screening length: 8.12261 Bohr) occupying 0.575588 of unit cell:	Completed after 2 iterations at t[s]:  22432.37
	FillingsUpdate:  mu: -0.208000000  nElectrons: 645.379224  magneticMoment: [ Abs: 0.00007  Tot: -0.00001 ]
	SubspaceRotationAdjust: set factor to 0.119
ElecMinimize: Iter:  13  G: -6728.695886051302296  |grad|_K:  1.466e-07  alpha:  2.116e-01  linmin: -4.395e-05  t[s]:  22528.63
	Linear fluid (dielectric constant: 78.4, screening length: 8.12261 Bohr) occupying 0.575589 of unit cell:	Completed after 10 iterations at t[s]:  22618.84
	Linear fluid (dielectric constant: 78.4, screening length: 8.12261 Bohr) occupying 0.575589 of unit cell:	Completed after 3 iterations at t[s]:  22680.32
	FillingsUpdate:  mu: -0.208000000  nElectrons: 645.377952  magneticMoment: [ Abs: 0.00010  Tot: -0.00002 ]
	SubspaceRotationAdjust: set factor to 0.105
ElecMinimize: Iter:  14  G: -6728.695887969070100  |grad|_K:  1.576e-07  alpha:  1.792e-01  linmin:  5.135e-05  t[s]:  22776.88
	Linear fluid (dielectric constant: 78.4, screening length: 8.12261 Bohr) occupying 0.575590 of unit cell:	Completed after 11 iterations at t[s]:  22867.77
	Linear fluid (dielectric constant: 78.4, screening length: 8.12261 Bohr) occupying 0.575590 of unit cell:	Completed after 8 iterations at t[s]:  22929.92
	FillingsUpdate:  mu: -0.208000000  nElectrons: 645.379217  magneticMoment: [ Abs: 0.00009  Tot: -0.00002 ]
	SubspaceRotationAdjust: set factor to 0.0735
ElecMinimize: Iter:  15  G: -6728.695889473927309  |grad|_K:  1.233e-07  alpha:  1.249e-01  linmin:  5.340e-05  t[s]:  23026.55
	Linear fluid (dielectric constant: 78.4, screening length: 8.12261 Bohr) occupying 0.575590 of unit cell:	Completed after 10 iterations at t[s]:  23116.87
	Linear fluid (dielectric constant: 78.4, screening length: 8.12261 Bohr) occupying 0.575590 of unit cell:	Completed after 0 iterations at t[s]:  23177.47
	FillingsUpdate:  mu: -0.208000000  nElectrons: 645.378495  magneticMoment: [ Abs: 0.00013  Tot: -0.00003 ]
	SubspaceRotationAdjust: set factor to 0.0688
ElecMinimize: Iter:  16  G: -6728.695890342397433  |grad|_K:  8.800e-08  alpha:  1.164e-01  linmin:  1.919e-05  t[s]:  23274.32
	Linear fluid (dielectric constant: 78.4, screening length: 8.12261 Bohr) occupying 0.575590 of unit cell:	Completed after 2 iterations at t[s]:  23363.71
	Linear fluid (dielectric constant: 78.4, screening length: 8.12261 Bohr) occupying 0.575590 of unit cell:	Completed after 6 iterations at t[s]:  23425.66
	FillingsUpdate:  mu: -0.208000000  nElectrons: 645.378211  magneticMoment: [ Abs: 0.00006  Tot: -0.00003 ]
	SubspaceRotationAdjust: set factor to 0.0716
ElecMinimize: Iter:  17  G: -6728.695891237206524  |grad|_K:  9.140e-08  alpha:  2.413e-01  linmin:  1.518e-04  t[s]:  23522.11
	Linear fluid (dielectric constant: 78.4, screening length: 8.12261 Bohr) occupying 0.575589 of unit cell:	Completed after 8 iterations at t[s]:  23612.05
	Linear fluid (dielectric constant: 78.4, screening length: 8.12261 Bohr) occupying 0.575590 of unit cell:	Completed after 3 iterations at t[s]:  23673.45
	FillingsUpdate:  mu: -0.208000000  nElectrons: 645.378480  magneticMoment: [ Abs: 0.00026  Tot: -0.00004 ]
	SubspaceRotationAdjust: set factor to 0.069
ElecMinimize: Iter:  18  G: -6728.695891756726269  |grad|_K:  5.402e-08  alpha:  1.295e-01  linmin:  2.390e-04  t[s]:  23770.00
	Linear fluid (dielectric constant: 78.4, screening length: 8.12261 Bohr) occupying 0.575589 of unit cell:	Completed after 2 iterations at t[s]:  23859.10
	Linear fluid (dielectric constant: 78.4, screening length: 8.12261 Bohr) occupying 0.575589 of unit cell:	Completed after 0 iterations at t[s]:  23919.91
	FillingsUpdate:  mu: -0.208000000  nElectrons: 645.378434  magneticMoment: [ Abs: 0.00013  Tot: -0.00004 ]
	SubspaceRotationAdjust: set factor to 0.0728
ElecMinimize: Iter:  19  G: -6728.695891975484301  |grad|_K:  4.616e-08  alpha:  1.540e-01  linmin: -4.210e-04  t[s]:  24016.63
	Linear fluid (dielectric constant: 78.4, screening length: 8.12261 Bohr) occupying 0.575589 of unit cell:	Completed after 2 iterations at t[s]:  24105.50
	Linear fluid (dielectric constant: 78.4, screening length: 8.12261 Bohr) occupying 0.575589 of unit cell:	Completed after 0 iterations at t[s]:  24166.37
	FillingsUpdate:  mu: -0.208000000  nElectrons: 645.378383  magneticMoment: [ Abs: 0.00012  Tot: -0.00004 ]
	SubspaceRotationAdjust: set factor to 0.0769
ElecMinimize: Iter:  20  G: -6728.695892163542339  |grad|_K:  3.519e-08  alpha:  1.722e-01  linmin: -1.934e-04  t[s]:  24262.79
	Linear fluid (dielectric constant: 78.4, screening length: 8.12261 Bohr) occupying 0.575589 of unit cell:	Completed after 2 iterations at t[s]:  24351.84
	Linear fluid (dielectric constant: 78.4, screening length: 8.12261 Bohr) occupying 0.575589 of unit cell:	Completed after 2 iterations at t[s]:  24413.28
	FillingsUpdate:  mu: -0.208000000  nElectrons: 645.378443  magneticMoment: [ Abs: 0.00012  Tot: -0.00004 ]
	SubspaceRotationAdjust: set factor to 0.0822
ElecMinimize: Iter:  21  G: -6728.695892235394240  |grad|_K:  2.728e-08  alpha:  1.236e-01  linmin: -6.248e-04  t[s]:  24509.83
	Linear fluid (dielectric constant: 78.4, screening length: 8.12261 Bohr) occupying 0.575589 of unit cell:	Completed after 2 iterations at t[s]:  24598.91
	Linear fluid (dielectric constant: 78.4, screening length: 8.12261 Bohr) occupying 0.575589 of unit cell:	Completed after 0 iterations at t[s]:  24659.63
	FillingsUpdate:  mu: -0.208000000  nElectrons: 645.378555  magneticMoment: [ Abs: 0.00005  Tot: -0.00004 ]
	SubspaceRotationAdjust: set factor to 0.091
ElecMinimize: Iter:  22  G: -6728.695892301562708  |grad|_K:  2.135e-08  alpha:  1.671e-01  linmin: -1.523e-03  t[s]:  24756.09
ElecMinimize: Converged (|Delta G|<1.000000e-07 for 2 iters).
Setting wave functions to eigenvectors of Hamiltonian
Converging empty states (this may take a while): |deigs|: 4.275e-08

Computing DFT-D3 correction:
# coordination-number Cu 6.838 9.110 5.545 6.888 9.107 9.169 9.153 9.052 9.160 9.174 9.171 9.098 9.161 9.147 9.054 6.879 7.529 9.050 9.146 7.528 9.095 9.168 9.176 9.052 9.155 9.163 9.173 9.112 6.892 9.163 9.108 6.835 6.875 5.547
# diagonal-C6 Cu 175.00 175.00 175.00 175.00 175.00 175.00 175.00 175.00 175.00 175.00 175.00 175.00 175.00 175.00 175.00 175.00 175.00 175.00 175.00 175.00 175.00 175.00 175.00 175.00 175.00 175.00 175.00 175.00 175.00 175.00 175.00 175.00 175.00 175.00
EvdW_6 =   -0.219442
EvdW_8 =   -0.319213

# Ionic positions in cartesian coordinates:
ion Cu  -0.000014452036777  11.523900728054928   1.223869005094157 1
ion Cu  -0.000051251783574  15.097664055293533   4.501814993937079 1
ion Cu   0.000057508732725   0.053009584930006  27.273944170449923 1
ion Cu  -0.000071704040336   3.501164112713484   2.819352705647759 1
ion Cu  -0.000046671507995   6.932119088399707   6.145198985565840 1
ion Cu  -0.000035709022055  10.388675050748644   9.414384989378286 1
ion Cu  -0.000021776630097  17.349479597389447  15.943043740001055 1
ion Cu  -0.000051025203500  18.498425041754732   7.756195700084706 1
ion Cu   0.000000701803660   2.296671638058633  11.035170676021316 1
ion Cu   0.000003640265283   5.782146073715811  14.304155034204337 1
ion Cu  -0.000024040866666   9.269754573130262  17.573259939963872 1
ion Cu   0.000053156663448  12.734439168210089  20.856913588120797 1
ion Cu  -0.000011021569381  13.868795686841711  12.669975879997583 1
ion Cu  -0.000029568933729   1.163695410182911  19.211905412003567 1
ion Cu   0.000019086418325   4.615610192305087  22.458032729726302 1
ion Cu   0.000188535036027   8.088635931668044  25.757126251770753 1
ion Cu   0.000089431618466  16.107200658004999  24.232309514451327 1
ion Cu   2.383269864905766  10.993976272957591   5.336159341366459 1
ion Cu   2.383293098615843  14.445329511532309   8.583129987340119 1
ion Cu   2.383251053430969  19.152929819257992   3.561462292083803 1
ion Cu   2.383243301493416   2.873826747403969   6.937485811638341 1
ion Cu   2.383286646489879   6.338723449389627  10.221745370519551 1
ion Cu   2.383281870612699   9.825433696532119  13.490951288517831 1
ion Cu   2.383350655151907  16.760857087322282  20.037489742899464 1
ion Cu   2.383345903825670  17.911927464873969  11.851657980375451 1
ion Cu   2.383300756864901   1.738038601853011  15.124682992223910 1
ion Cu   2.383294879109884   5.217338170290907  18.379614817016456 1
ion Cu   2.383347391646965   8.673636368537331  21.647766843021184 1
ion Cu   2.383405264006892  12.103330435521586  24.973300871496011 1
ion Cu   2.383288039597200  13.309083875739997  16.759212435615481 1
ion Cu   2.383380814107347   0.509184556573308  23.291593103667466 1
ion Cu   2.383410387673707   4.083657300394180  26.569155325611980 1
ion Cu   2.383243407061217   7.519245508463211   2.036246882351051 1
ion Cu   2.383252826461909  15.551404541954529   0.519070597836724 1

# Forces in Cartesian coordinates:
force Cu  -0.000001484740570   0.000168941758795   0.000596880024926 1
force Cu   0.000001205904422   0.000002388615960  -0.000387032305964 1
force Cu   0.000000157238217  -0.000504339248722   0.000435835012632 1
force Cu   0.000000948688487  -0.000229560438667   0.000074437839755 1
force Cu   0.000000606629420   0.000052326086800  -0.000001850847512 1
force Cu  -0.000000080638934   0.000123673941451   0.000003500557059 1
force Cu   0.000000400632879   0.000040390163025   0.000018028016420 1
force Cu   0.000000035876283  -0.000192955538133   0.000230731280546 1
force Cu   0.000000040424724  -0.000009501998729  -0.000274875388215 1
force Cu   0.000000169274367   0.000009690941401   0.000033933986769 1
force Cu   0.000000047129538  -0.000012654072550   0.000183032523635 1
force Cu  -0.000000927827250  -0.000055319175975   0.000094768247135 1
force Cu   0.000000123219910   0.000021497625119   0.000231451741742 1
force Cu   0.000000830076395  -0.000084548809358   0.000140838273083 1
force Cu   0.000000722870709  -0.000120489724722  -0.000284018785103 1
force Cu  -0.000000097744021   0.000126409256425  -0.000233055303608 1
force Cu   0.000001819170887   0.000182320338000  -0.000709861830713 1
force Cu  -0.000000040816810   0.000112752678979   0.000280274771887 1
force Cu  -0.000000452447020   0.000088940996663  -0.000099593359551 1
force Cu  -0.000001167323601  -0.000192581135030   0.000652226032158 1
force Cu   0.000000898984698   0.000058004889033  -0.000073636530057 1
force Cu   0.000000150352110   0.000010358329564  -0.000127990740679 1
force Cu   0.000000206994920  -0.000012625763639   0.000037907310730 1
force Cu   0.000000471675504   0.000183564375122  -0.000199728001631 1
force Cu  -0.000000699098701  -0.000039508123501   0.000061107725176 1
force Cu  -0.000000064208320  -0.000011078369946  -0.000161457889821 1
force Cu   0.000000351604907  -0.000125827664123   0.000051671959318 1
force Cu   0.000000066945531  -0.000060153672599   0.000001928480899 1
force Cu   0.000001009094042   0.000219461872931  -0.000138852023763 1
force Cu   0.000000568412453   0.000015363908277   0.000338280078259 1
force Cu  -0.000000567571144   0.000008227872608   0.000351802980403 1
force Cu   0.000001575265463  -0.000178205138539  -0.000683221623212 1
force Cu  -0.000000021665150  -0.000125322578143   0.000175354612914 1
force Cu  -0.000000448398761   0.000478559134908  -0.000548767633023 1

# Energy components:
   A_diel =        0.0649176272505918
   Eewald =    82412.2475903908198234
       EH =    88624.5543978027562844
     Eloc =  -179188.0590335125161801
      Enl =     1245.2020970150556423
     EvdW =       -0.5386545200511580
      Exc =     -659.7891835586074194
 Exc_core =        1.5969497828278061
       KE =      701.7365741630273988
  MuShift =        0.0509937975631102
-------------------------------------
     Etot =    -6862.9333510118531194
       TS =        0.0012806666490392
-------------------------------------
        F =    -6862.9346316785022282
      muN =     -134.2387393769392929
-------------------------------------
        G =    -6728.6958923015627079


Dumping 'jdft.fillings' ... done
Dumping 'jdft.wfns' ... done
Dumping 'jdft.fluidState' ... done
Dumping 'jdft.ionpos' ... done
Dumping 'jdft.lattice' ... done
Dumping 'jdft.eigenvals' ... done
Dumping 'jdft.eigStats' ... 
	eMin: -4.347766 at state 19 ( [ +0.000000 +0.000000 +0.000000 ] spin -1 )
	HOMO: -0.208064 at state 6 ( [ +0.166667 +0.333333 +0.000000 ] spin 1 )
	mu  : -0.208000
	LUMO: -0.207749 at state 24 ( [ +0.166667 +0.000000 +0.000000 ] spin -1 )
	eMax: +0.194700 at state 17 ( [ +0.500000 +0.000000 +0.000000 ] spin 1 )
	HOMO-LUMO gap: +0.000314
	Optical gap  : +0.003395 at state 2 ( [ +0.083333 +0.000000 +0.000000 ] spin 1 )
Dumping 'jdft.Ecomponents' ... done
IonicMinimize: Iter:   2  G: -6728.695892301562708  |grad|_K:  2.020e-04  alpha:  1.000e+00  linmin: -8.143e-01  t[s]:  25058.91
IonicMinimize: Converged (|Delta G|<1.000000e-04 for 2 iters).

#--- Lowdin population analysis ---
# oxidation-state Cu +0.154 +0.039 +0.303 +0.158 +0.064 +0.074 +0.077 +0.073 +0.075 +0.077 +0.075 +0.067 +0.076 +0.074 +0.066 +0.158 +0.084 +0.066 +0.073 +0.084 +0.067 +0.074 +0.077 +0.073 +0.076 +0.076 +0.075 +0.065 +0.159 +0.075 +0.040 +0.155 +0.158 +0.303
# magnetic-moments Cu -0.000 -0.000 -0.000 -0.000 -0.000 -0.000 -0.000 -0.000 -0.000 -0.000 -0.000 -0.000 -0.000 -0.000 -0.000 -0.000 -0.000 -0.000 -0.000 -0.000 -0.000 -0.000 -0.000 -0.000 -0.000 -0.000 -0.000 -0.000 -0.000 -0.000 -0.000 -0.000 -0.000 -0.000


Dumping 'jdft.n_up' ... done
Dumping 'jdft.n_dn' ... done
Dumping 'jdft.tau_up' ... done
Dumping 'jdft.tau_dn' ... done
Dumping 'jdft.eigenvals' ... done
Dumping 'jdft.eigStats' ... 
	eMin: -4.347766 at state 19 ( [ +0.000000 +0.000000 +0.000000 ] spin -1 )
	HOMO: -0.208064 at state 6 ( [ +0.166667 +0.333333 +0.000000 ] spin 1 )
	mu  : -0.208000
	LUMO: -0.207749 at state 24 ( [ +0.166667 +0.000000 +0.000000 ] spin -1 )
	eMax: +0.194700 at state 17 ( [ +0.500000 +0.000000 +0.000000 ] spin 1 )
	HOMO-LUMO gap: +0.000314
	Optical gap  : +0.003395 at state 2 ( [ +0.083333 +0.000000 +0.000000 ] spin 1 )
Dumping 'jdft.kPts' ... done
Dumping 'jdft.kMap' ... done
Dumping 'jdft.dosUp' ... done.
Dumping 'jdft.dosDn' ... done.
End date and time: Tue Sep 13 05:28:22 2022  (Duration: 0-7:00:01.27)
Done!

PROFILER:             augmentDensityGrid    12.465010 +/-     0.287926 s,  187 calls,   2330.956800 s total
PROFILER:         augmentDensityGridGrad     0.661848 +/-     0.165271 s,   96 calls,     63.537368 s total
PROFILER:        augmentDensitySpherical     0.005797 +/-     0.000284 s,  187 calls,      1.084047 s total
PROFILER:    augmentDensitySphericalGrad     0.006103 +/-     0.001360 s,  107 calls,      0.653050 s total
PROFILER:                 augmentOverlap     8.862069 +/-     0.805109 s,  393 calls,   3482.793153 s total
PROFILER:                     diagouterI    11.105524 +/-     0.271849 s,  190 calls,   2110.049637 s total
PROFILER:              EdensityAndVscloc     4.115684 +/-     1.535832 s,  187 calls,    769.632985 s total
PROFILER:                     EnlAndGrad     0.044907 +/-     0.006857 s,  201 calls,      9.026350 s total
PROFILER:            ExCorrCommunication     0.051679 +/-     0.611954 s, 1157 calls,     59.792197 s total
PROFILER:               ExCorrFunctional     0.005505 +/-     0.000722 s,  197 calls,      1.084514 s total
PROFILER:                    ExCorrTotal     0.377666 +/-     1.460638 s,  197 calls,     74.400251 s total
PROFILER:                   Idag_DiagV_I    21.129459 +/-     3.959198 s,  104 calls,   2197.463778 s total
PROFILER:                    initWeights     2.071390 +/-     0.000000 s,    1 calls,      2.071390 s total
PROFILER:                    inv(matrix)     0.034938 +/-     0.015576 s,  186 calls,      6.498403 s total
PROFILER:            matrix::diagonalize     0.083857 +/-     0.043490 s,  292 calls,     24.486328 s total
PROFILER:                    matrix::set     0.000015 +/-     0.000017 s, 10560 calls,      0.163257 s total
PROFILER:            orthoMatrix(matrix)     0.014169 +/-     0.011589 s,  195 calls,      2.763016 s total
PROFILER:     RadialFunctionR::transform     0.359336 +/-     2.675565 s,   57 calls,     20.482179 s total
PROFILER:                    reduceKmesh     0.000832 +/-     0.000000 s,    1 calls,      0.000832 s total
PROFILER:   VanDerWaalsD3::energyAndGrad     0.022924 +/-     0.000694 s,    7 calls,      0.160470 s total
PROFILER:               WavefunctionDrag    52.906732 +/-    12.624638 s,    3 calls,    158.720197 s total
PROFILER:                            Y*M     3.186775 +/-     0.777459 s, 1276 calls,   4066.325309 s total
PROFILER:                          Y1^Y2     3.359250 +/-     0.921827 s,  819 calls,   2751.225698 s total

MEMUSAGE:                   ColumnBundle     1.267123 GB
MEMUSAGE:        complexScalarFieldTilde     0.016022 GB
MEMUSAGE:                    IndexArrays     0.018898 GB
MEMUSAGE:                         matrix     0.103312 GB
MEMUSAGE:                           misc     0.016115 GB
MEMUSAGE:                    ScalarField     0.116158 GB
MEMUSAGE:               ScalarFieldTilde     0.084615 GB
MEMUSAGE:                          Total     1.405942 GB
