
*************** JDFTx 1.6.0  ***************

Start date and time: Thu Feb 17 04:00:59 2022
Executable /projects/musgravc/apps/jdftx-1.6.1/build/jdftx with command-line: -i in
Running on hosts (process indices):  shas0653.rc.int.colorado.edu (0-23)
Divided in process groups (process indices):  0 (0)  1 (1)  2 (2)  3 (3)  4 (4)  5 (5)  6 (6)  7 (7)  8 (8)  9 (9)  10 (10)  11 (11)  12 (12)  13 (13)  14 (14)  15 (15)  16 (16)  17 (17)  18 (18)  19 (19)  20 (20)  21 (21)  22 (22)  23 (23)
Resource initialization completed at t[s]:      0.00
Run totals: 24 processes, 24 threads, 0 GPUs


Input parsed successfully to the following command list (including defaults):

basis kpoint-dependent
converge-empty-states yes
coords-type Cartesian
core-overlap-check none
coulomb-interaction Periodic
davidson-band-ratio 1.1
density-of-states Etol 1.000000e-06 Esigma 1.000000e-03 \
		Complete \
	Total \
	OrthoOrbital Pt 1   s \
	OrthoOrbital Pt 1   p \
	OrthoOrbital Pt 1   px \
	OrthoOrbital Pt 1   py \
	OrthoOrbital Pt 1   pz \
	OrthoOrbital Pt 1   d \
	OrthoOrbital Pt 1   dxy \
	OrthoOrbital Pt 1   dyz \
	OrthoOrbital Pt 1   dz2 \
	OrthoOrbital Pt 1   dxz \
	OrthoOrbital Pt 1   dx2-y2 \
	OrthoOrbital Pt 2   s \
	OrthoOrbital Pt 2   p \
	OrthoOrbital Pt 2   px \
	OrthoOrbital Pt 2   py \
	OrthoOrbital Pt 2   pz \
	OrthoOrbital Pt 2   d \
	OrthoOrbital Pt 2   dxy \
	OrthoOrbital Pt 2   dyz \
	OrthoOrbital Pt 2   dz2 \
	OrthoOrbital Pt 2   dxz \
	OrthoOrbital Pt 2   dx2-y2 \
	OrthoOrbital Pt 3   s \
	OrthoOrbital Pt 3   p \
	OrthoOrbital Pt 3   px \
	OrthoOrbital Pt 3   py \
	OrthoOrbital Pt 3   pz \
	OrthoOrbital Pt 3   d \
	OrthoOrbital Pt 3   dxy \
	OrthoOrbital Pt 3   dyz \
	OrthoOrbital Pt 3   dz2 \
	OrthoOrbital Pt 3   dxz \
	OrthoOrbital Pt 3   dx2-y2 \
	OrthoOrbital Pt 4   s \
	OrthoOrbital Pt 4   p \
	OrthoOrbital Pt 4   px \
	OrthoOrbital Pt 4   py \
	OrthoOrbital Pt 4   pz \
	OrthoOrbital Pt 4   d \
	OrthoOrbital Pt 4   dxy \
	OrthoOrbital Pt 4   dyz \
	OrthoOrbital Pt 4   dz2 \
	OrthoOrbital Pt 4   dxz \
	OrthoOrbital Pt 4   dx2-y2 \
	OrthoOrbital Pt 5   s \
	OrthoOrbital Pt 5   p \
	OrthoOrbital Pt 5   px \
	OrthoOrbital Pt 5   py \
	OrthoOrbital Pt 5   pz \
	OrthoOrbital Pt 5   d \
	OrthoOrbital Pt 5   dxy \
	OrthoOrbital Pt 5   dyz \
	OrthoOrbital Pt 5   dz2 \
	OrthoOrbital Pt 5   dxz \
	OrthoOrbital Pt 5   dx2-y2 \
	OrthoOrbital Pt 6   s \
	OrthoOrbital Pt 6   p \
	OrthoOrbital Pt 6   px \
	OrthoOrbital Pt 6   py \
	OrthoOrbital Pt 6   pz \
	OrthoOrbital Pt 6   d \
	OrthoOrbital Pt 6   dxy \
	OrthoOrbital Pt 6   dyz \
	OrthoOrbital Pt 6   dz2 \
	OrthoOrbital Pt 6   dxz \
	OrthoOrbital Pt 6   dx2-y2 \
	OrthoOrbital Pt 7   s \
	OrthoOrbital Pt 7   p \
	OrthoOrbital Pt 7   px \
	OrthoOrbital Pt 7   py \
	OrthoOrbital Pt 7   pz \
	OrthoOrbital Pt 7   d \
	OrthoOrbital Pt 7   dxy \
	OrthoOrbital Pt 7   dyz \
	OrthoOrbital Pt 7   dz2 \
	OrthoOrbital Pt 7   dxz \
	OrthoOrbital Pt 7   dx2-y2 \
	OrthoOrbital Pt 8   s \
	OrthoOrbital Pt 8   p \
	OrthoOrbital Pt 8   px \
	OrthoOrbital Pt 8   py \
	OrthoOrbital Pt 8   pz \
	OrthoOrbital Pt 8   d \
	OrthoOrbital Pt 8   dxy \
	OrthoOrbital Pt 8   dyz \
	OrthoOrbital Pt 8   dz2 \
	OrthoOrbital Pt 8   dxz \
	OrthoOrbital Pt 8   dx2-y2 \
	OrthoOrbital Pt 9   s \
	OrthoOrbital Pt 9   p \
	OrthoOrbital Pt 9   px \
	OrthoOrbital Pt 9   py \
	OrthoOrbital Pt 9   pz \
	OrthoOrbital Pt 9   d \
	OrthoOrbital Pt 9   dxy \
	OrthoOrbital Pt 9   dyz \
	OrthoOrbital Pt 9   dz2 \
	OrthoOrbital Pt 9   dxz \
	OrthoOrbital Pt 9   dx2-y2 \
	OrthoOrbital Pt 10   s \
	OrthoOrbital Pt 10   p \
	OrthoOrbital Pt 10   px \
	OrthoOrbital Pt 10   py \
	OrthoOrbital Pt 10   pz \
	OrthoOrbital Pt 10   d \
	OrthoOrbital Pt 10   dxy \
	OrthoOrbital Pt 10   dyz \
	OrthoOrbital Pt 10   dz2 \
	OrthoOrbital Pt 10   dxz \
	OrthoOrbital Pt 10   dx2-y2 \
	OrthoOrbital Pt 11   s \
	OrthoOrbital Pt 11   p \
	OrthoOrbital Pt 11   px \
	OrthoOrbital Pt 11   py \
	OrthoOrbital Pt 11   pz \
	OrthoOrbital Pt 11   d \
	OrthoOrbital Pt 11   dxy \
	OrthoOrbital Pt 11   dyz \
	OrthoOrbital Pt 11   dz2 \
	OrthoOrbital Pt 11   dxz \
	OrthoOrbital Pt 11   dx2-y2 \
	OrthoOrbital Pt 12   s \
	OrthoOrbital Pt 12   p \
	OrthoOrbital Pt 12   px \
	OrthoOrbital Pt 12   py \
	OrthoOrbital Pt 12   pz \
	OrthoOrbital Pt 12   d \
	OrthoOrbital Pt 12   dxy \
	OrthoOrbital Pt 12   dyz \
	OrthoOrbital Pt 12   dz2 \
	OrthoOrbital Pt 12   dxz \
	OrthoOrbital Pt 12   dx2-y2 \
	OrthoOrbital Pt 13   s \
	OrthoOrbital Pt 13   p \
	OrthoOrbital Pt 13   px \
	OrthoOrbital Pt 13   py \
	OrthoOrbital Pt 13   pz \
	OrthoOrbital Pt 13   d \
	OrthoOrbital Pt 13   dxy \
	OrthoOrbital Pt 13   dyz \
	OrthoOrbital Pt 13   dz2 \
	OrthoOrbital Pt 13   dxz \
	OrthoOrbital Pt 13   dx2-y2 \
	OrthoOrbital Pt 14   s \
	OrthoOrbital Pt 14   p \
	OrthoOrbital Pt 14   px \
	OrthoOrbital Pt 14   py \
	OrthoOrbital Pt 14   pz \
	OrthoOrbital Pt 14   d \
	OrthoOrbital Pt 14   dxy \
	OrthoOrbital Pt 14   dyz \
	OrthoOrbital Pt 14   dz2 \
	OrthoOrbital Pt 14   dxz \
	OrthoOrbital Pt 14   dx2-y2 \
	OrthoOrbital Pt 15   s \
	OrthoOrbital Pt 15   p \
	OrthoOrbital Pt 15   px \
	OrthoOrbital Pt 15   py \
	OrthoOrbital Pt 15   pz \
	OrthoOrbital Pt 15   d \
	OrthoOrbital Pt 15   dxy \
	OrthoOrbital Pt 15   dyz \
	OrthoOrbital Pt 15   dz2 \
	OrthoOrbital Pt 15   dxz \
	OrthoOrbital Pt 15   dx2-y2 \
	OrthoOrbital Pt 16   s \
	OrthoOrbital Pt 16   p \
	OrthoOrbital Pt 16   px \
	OrthoOrbital Pt 16   py \
	OrthoOrbital Pt 16   pz \
	OrthoOrbital Pt 16   d \
	OrthoOrbital Pt 16   dxy \
	OrthoOrbital Pt 16   dyz \
	OrthoOrbital Pt 16   dz2 \
	OrthoOrbital Pt 16   dxz \
	OrthoOrbital Pt 16   dx2-y2 \
	OrthoOrbital Pt 17   s \
	OrthoOrbital Pt 17   p \
	OrthoOrbital Pt 17   px \
	OrthoOrbital Pt 17   py \
	OrthoOrbital Pt 17   pz \
	OrthoOrbital Pt 17   d \
	OrthoOrbital Pt 17   dxy \
	OrthoOrbital Pt 17   dyz \
	OrthoOrbital Pt 17   dz2 \
	OrthoOrbital Pt 17   dxz \
	OrthoOrbital Pt 17   dx2-y2 \
	OrthoOrbital Pt 18   s \
	OrthoOrbital Pt 18   p \
	OrthoOrbital Pt 18   px \
	OrthoOrbital Pt 18   py \
	OrthoOrbital Pt 18   pz \
	OrthoOrbital Pt 18   d \
	OrthoOrbital Pt 18   dxy \
	OrthoOrbital Pt 18   dyz \
	OrthoOrbital Pt 18   dz2 \
	OrthoOrbital Pt 18   dxz \
	OrthoOrbital Pt 18   dx2-y2 \
	OrthoOrbital Pt 19   s \
	OrthoOrbital Pt 19   p \
	OrthoOrbital Pt 19   px \
	OrthoOrbital Pt 19   py \
	OrthoOrbital Pt 19   pz \
	OrthoOrbital Pt 19   d \
	OrthoOrbital Pt 19   dxy \
	OrthoOrbital Pt 19   dyz \
	OrthoOrbital Pt 19   dz2 \
	OrthoOrbital Pt 19   dxz \
	OrthoOrbital Pt 19   dx2-y2 \
	OrthoOrbital Pt 20   s \
	OrthoOrbital Pt 20   p \
	OrthoOrbital Pt 20   px \
	OrthoOrbital Pt 20   py \
	OrthoOrbital Pt 20   pz \
	OrthoOrbital Pt 20   d \
	OrthoOrbital Pt 20   dxy \
	OrthoOrbital Pt 20   dyz \
	OrthoOrbital Pt 20   dz2 \
	OrthoOrbital Pt 20   dxz \
	OrthoOrbital Pt 20   dx2-y2 \
	OrthoOrbital Pt 21   s \
	OrthoOrbital Pt 21   p \
	OrthoOrbital Pt 21   px \
	OrthoOrbital Pt 21   py \
	OrthoOrbital Pt 21   pz \
	OrthoOrbital Pt 21   d \
	OrthoOrbital Pt 21   dxy \
	OrthoOrbital Pt 21   dyz \
	OrthoOrbital Pt 21   dz2 \
	OrthoOrbital Pt 21   dxz \
	OrthoOrbital Pt 21   dx2-y2 \
	OrthoOrbital Pt 22   s \
	OrthoOrbital Pt 22   p \
	OrthoOrbital Pt 22   px \
	OrthoOrbital Pt 22   py \
	OrthoOrbital Pt 22   pz \
	OrthoOrbital Pt 22   d \
	OrthoOrbital Pt 22   dxy \
	OrthoOrbital Pt 22   dyz \
	OrthoOrbital Pt 22   dz2 \
	OrthoOrbital Pt 22   dxz \
	OrthoOrbital Pt 22   dx2-y2 \
	OrthoOrbital Pt 23   s \
	OrthoOrbital Pt 23   p \
	OrthoOrbital Pt 23   px \
	OrthoOrbital Pt 23   py \
	OrthoOrbital Pt 23   pz \
	OrthoOrbital Pt 23   d \
	OrthoOrbital Pt 23   dxy \
	OrthoOrbital Pt 23   dyz \
	OrthoOrbital Pt 23   dz2 \
	OrthoOrbital Pt 23   dxz \
	OrthoOrbital Pt 23   dx2-y2 \
	OrthoOrbital Pt 24   s \
	OrthoOrbital Pt 24   p \
	OrthoOrbital Pt 24   px \
	OrthoOrbital Pt 24   py \
	OrthoOrbital Pt 24   pz \
	OrthoOrbital Pt 24   d \
	OrthoOrbital Pt 24   dxy \
	OrthoOrbital Pt 24   dyz \
	OrthoOrbital Pt 24   dz2 \
	OrthoOrbital Pt 24   dxz \
	OrthoOrbital Pt 24   dx2-y2 \
	OrthoOrbital Pt 25   s \
	OrthoOrbital Pt 25   p \
	OrthoOrbital Pt 25   px \
	OrthoOrbital Pt 25   py \
	OrthoOrbital Pt 25   pz \
	OrthoOrbital Pt 25   d \
	OrthoOrbital Pt 25   dxy \
	OrthoOrbital Pt 25   dyz \
	OrthoOrbital Pt 25   dz2 \
	OrthoOrbital Pt 25   dxz \
	OrthoOrbital Pt 25   dx2-y2 \
	OrthoOrbital Pt 26   s \
	OrthoOrbital Pt 26   p \
	OrthoOrbital Pt 26   px \
	OrthoOrbital Pt 26   py \
	OrthoOrbital Pt 26   pz \
	OrthoOrbital Pt 26   d \
	OrthoOrbital Pt 26   dxy \
	OrthoOrbital Pt 26   dyz \
	OrthoOrbital Pt 26   dz2 \
	OrthoOrbital Pt 26   dxz \
	OrthoOrbital Pt 26   dx2-y2 \
	OrthoOrbital Pt 27   s \
	OrthoOrbital Pt 27   p \
	OrthoOrbital Pt 27   px \
	OrthoOrbital Pt 27   py \
	OrthoOrbital Pt 27   pz \
	OrthoOrbital Pt 27   d \
	OrthoOrbital Pt 27   dxy \
	OrthoOrbital Pt 27   dyz \
	OrthoOrbital Pt 27   dz2 \
	OrthoOrbital Pt 27   dxz \
	OrthoOrbital Pt 27   dx2-y2 \
	OrthoOrbital Pt 28   s \
	OrthoOrbital Pt 28   p \
	OrthoOrbital Pt 28   px \
	OrthoOrbital Pt 28   py \
	OrthoOrbital Pt 28   pz \
	OrthoOrbital Pt 28   d \
	OrthoOrbital Pt 28   dxy \
	OrthoOrbital Pt 28   dyz \
	OrthoOrbital Pt 28   dz2 \
	OrthoOrbital Pt 28   dxz \
	OrthoOrbital Pt 28   dx2-y2 \
	OrthoOrbital Pt 29   s \
	OrthoOrbital Pt 29   p \
	OrthoOrbital Pt 29   px \
	OrthoOrbital Pt 29   py \
	OrthoOrbital Pt 29   pz \
	OrthoOrbital Pt 29   d \
	OrthoOrbital Pt 29   dxy \
	OrthoOrbital Pt 29   dyz \
	OrthoOrbital Pt 29   dz2 \
	OrthoOrbital Pt 29   dxz \
	OrthoOrbital Pt 29   dx2-y2 \
	OrthoOrbital Pt 30   s \
	OrthoOrbital Pt 30   p \
	OrthoOrbital Pt 30   px \
	OrthoOrbital Pt 30   py \
	OrthoOrbital Pt 30   pz \
	OrthoOrbital Pt 30   d \
	OrthoOrbital Pt 30   dxy \
	OrthoOrbital Pt 30   dyz \
	OrthoOrbital Pt 30   dz2 \
	OrthoOrbital Pt 30   dxz \
	OrthoOrbital Pt 30   dx2-y2 \
	OrthoOrbital Pt 31   s \
	OrthoOrbital Pt 31   p \
	OrthoOrbital Pt 31   px \
	OrthoOrbital Pt 31   py \
	OrthoOrbital Pt 31   pz \
	OrthoOrbital Pt 31   d \
	OrthoOrbital Pt 31   dxy \
	OrthoOrbital Pt 31   dyz \
	OrthoOrbital Pt 31   dz2 \
	OrthoOrbital Pt 31   dxz \
	OrthoOrbital Pt 31   dx2-y2 \
	OrthoOrbital Pt 32   s \
	OrthoOrbital Pt 32   p \
	OrthoOrbital Pt 32   px \
	OrthoOrbital Pt 32   py \
	OrthoOrbital Pt 32   pz \
	OrthoOrbital Pt 32   d \
	OrthoOrbital Pt 32   dxy \
	OrthoOrbital Pt 32   dyz \
	OrthoOrbital Pt 32   dz2 \
	OrthoOrbital Pt 32   dxz \
	OrthoOrbital Pt 32   dx2-y2 \
	OrthoOrbital C 1   s \
	OrthoOrbital C 1   p \
	OrthoOrbital C 1   px \
	OrthoOrbital C 1   py \
	OrthoOrbital C 1   pz \
	OrthoOrbital O 1   s \
	OrthoOrbital O 1   p \
	OrthoOrbital O 1   px \
	OrthoOrbital O 1   py \
	OrthoOrbital O 1   pz
dump End ElecDensity KEdensity BandEigs EigStats RhoAtom DOS Kpoints
dump Ionic State IonicPositions Lattice EigStats Ecomponents
dump 
dump 
dump 
dump 
dump 
dump 
dump 
dump 
dump-name jdft.$VAR
elec-cutoff 20
elec-eigen-algo Davidson
elec-ex-corr gga-PBE
elec-initial-magnetization 0.000000 no
elec-n-bands 314
elec-smearing Fermi 0.001
electronic-minimize  \
	dirUpdateScheme      FletcherReeves \
	linminMethod         DirUpdateRecommended \
	nIterations          100 \
	history              15 \
	knormThreshold       0 \
	energyDiffThreshold  1e-07 \
	nEnergyDiff          2 \
	alphaTstart          1 \
	alphaTmin            1e-10 \
	updateTestStepSize   yes \
	alphaTreduceFactor   0.1 \
	alphaTincreaseFactor 3 \
	nAlphaAdjustMax      3 \
	wolfeEnergy          0.0001 \
	wolfeGradient        0.9 \
	fdTest               no
exchange-regularization WignerSeitzTruncated
fluid LinearPCM 298.000000 1.013250
fluid-anion F- 0.5 MeanFieldLJ \
	epsBulk 1 \
	pMol 0 \
	epsInf 1 \
	Pvap 0 \
	sigmaBulk 0 \
	Rvdw 2.24877 \
	Res 0 \
	tauNuc 343133
fluid-cation Na+ 0.5 MeanFieldLJ \
	epsBulk 1 \
	pMol 0 \
	epsInf 1 \
	Pvap 0 \
	sigmaBulk 0 \
	Rvdw 2.19208 \
	Res 0 \
	tauNuc 343133
fluid-ex-corr lda-TF lda-PZ
fluid-gummel-loop 10 1.000000e-05
fluid-minimize  \
	dirUpdateScheme      PolakRibiere \
	linminMethod         DirUpdateRecommended \
	nIterations          400 \
	history              15 \
	knormThreshold       1e-11 \
	energyDiffThreshold  0 \
	nEnergyDiff          2 \
	alphaTstart          1 \
	alphaTmin            1e-10 \
	updateTestStepSize   yes \
	alphaTreduceFactor   0.1 \
	alphaTincreaseFactor 3 \
	nAlphaAdjustMax      6 \
	wolfeEnergy          0.0001 \
	wolfeGradient        0.9 \
	fdTest               no
fluid-solvent H2O 55.338 ScalarEOS \
	epsBulk 78.4 \
	pMol 0.92466 \
	epsInf 1.77 \
	Pvap 1.06736e-10 \
	sigmaBulk 4.62e-05 \
	Rvdw 2.61727 \
	Res 1.42 \
	tauNuc 343133 \
	poleEl 15 7 1
forces-output-coords Positions
ion Pt   0.000010000000000   7.399025000000001  48.561914000000009 0
ion Pt   0.000010000000000  14.798198000000001  48.561914000000009 0
ion Pt   5.232006000000000   7.399025000000001  48.561914000000009 0
ion Pt   5.232006000000000  14.798198000000001  48.561914000000009 0
ion Pt   0.000000000000000   0.000074000000000  43.164379000000004 0
ion Pt   0.000000000000000   7.399232000000001  43.164379000000004 0
ion Pt   5.231996000000000   0.000074000000000  43.164379000000004 0
ion Pt   5.231996000000000   7.399232000000001  43.164379000000004 0
ion Pt   2.615956000000000   3.699298000000001  50.876444000000006 0
ion Pt   2.615956000000000  11.098456000000002  50.876444000000006 0
ion Pt   7.847942000000001   3.699298000000001  50.876444000000006 0
ion Pt   7.847942000000001  11.098456000000002  50.876444000000006 0
ion Pt   2.616040000000000   3.699683000000001  45.754477999999999 0
ion Pt   2.616040000000000  11.098841000000002  45.754477999999999 0
ion Pt   7.848036000000000   3.699683000000001  45.754477999999999 0
ion Pt   7.848036000000000  11.098841000000002  45.754477999999999 0
ion Pt   5.231944000000000   0.000000000000000  37.958072999999999 0
ion Pt   5.231944000000000   7.399158000000001  37.958072999999999 0
ion Pt  10.463950000000001   0.000000000000000  37.958072999999999 0
ion Pt  10.463950000000001   7.399158000000001  37.958072999999999 0
ion Pt   0.000031000000000   0.000118000000000  32.835321000000000 0
ion Pt   0.000031000000000   7.399277000000001  32.835321000000000 0
ion Pt   5.232038000000001   0.000118000000000  32.835321000000000 0
ion Pt   5.232038000000001   7.399277000000001  32.835321000000000 0
ion Pt   2.615946000000000   3.699624000000000  40.547072999999997 0
ion Pt   2.615946000000000  11.098782000000002  40.547072999999997 0
ion Pt   7.847942000000001   3.699624000000000  40.547072999999997 0
ion Pt   7.847942000000001  11.098782000000002  40.547072999999997 0
ion Pt   2.616050000000000   3.699653000000000  35.149956000000003 0
ion Pt   2.616050000000000  11.098796999999999  35.149956000000003 0
ion Pt   7.848046000000001   3.699653000000000  35.149956000000003 0
ion Pt   7.848046000000001  11.098796999999999  35.149956000000003 0
ion C   2.615956000000000   7.398877000000001  51.516683000000008 1  Linear 0 0 1
ion O   2.676051000000001   7.398877000000001   1.352105000000000 1  Linear 0 0 1
ion-species /projects/musgravc/apps/jdftx-1.6.0/build/pseudopotentials/GBRV_v1.5/$ID_pbe_v1.uspp
ion-species /projects/musgravc/apps/jdftx-1.6.0/build/pseudopotentials/GBRV_v1.5/$ID_pbe_v1.2.uspp
ion-species /projects/musgravc/apps/jdftx-1.6.0/build/pseudopotentials/GBRV_v1.5/$ID_pbe_v1.4.uspp
ion-species /projects/musgravc/apps/jdftx-1.6.0/build/pseudopotentials/GBRV_v1.5/$ID_pbe_v1.5.uspp
ion-width Ecut
ionic-minimize  \
	dirUpdateScheme      L-BFGS \
	linminMethod         DirUpdateRecommended \
	nIterations          100 \
	history              15 \
	knormThreshold       0.0001 \
	energyDiffThreshold  1e-06 \
	nEnergyDiff          2 \
	alphaTstart          1 \
	alphaTmin            1e-10 \
	updateTestStepSize   yes \
	alphaTreduceFactor   0.1 \
	alphaTincreaseFactor 3 \
	nAlphaAdjustMax      3 \
	wolfeEnergy          0.0001 \
	wolfeGradient        0.9 \
	fdTest               no
kpoint   0.000000000000   0.000000000000   0.000000000000  1.00000000000000
kpoint-folding 5 4 1 
latt-move-scale 0 0 0
latt-scale 1 1 1 
lattice  \
	  10.463991999999999    0.000000000000000    0.000000000000000  \
	   0.000000000000000   14.798317000000001    0.000000000000000  \
	   0.000000000000000    0.000000000000000   52.319952000000001 
lattice-minimize  \
	dirUpdateScheme      L-BFGS \
	linminMethod         DirUpdateRecommended \
	nIterations          0 \
	history              15 \
	knormThreshold       0 \
	energyDiffThreshold  1e-06 \
	nEnergyDiff          2 \
	alphaTstart          1 \
	alphaTmin            1e-10 \
	updateTestStepSize   yes \
	alphaTreduceFactor   0.1 \
	alphaTincreaseFactor 3 \
	nAlphaAdjustMax      3 \
	wolfeEnergy          0.0001 \
	wolfeGradient        0.9 \
	fdTest               no
lcao-params 30 1e-06 0.001
pcm-variant CANDLE
spintype z-spin
subspace-rotation-factor 1 yes
symmetries automatic
symmetry-threshold 0.0001
van-der-waals D3



---------- Setting up symmetries ----------

Found 8 point-group symmetries of the bravais lattice
Found 1 space-group symmetries with basis
Applied RMS atom displacement 0 bohrs to make symmetries exact.

---------- Initializing the Grid ----------
R = 
[       10.464            0            0  ]
[            0      14.7983            0  ]
[            0            0        52.32  ]
unit cell volume = 8101.72
G =
[   0.600458          0          0  ]
[          0   0.424588          0  ]
[          0          0   0.120092  ]
Minimum fftbox size, Smin = [  44  60  212  ]
Chosen fftbox size, S = [  48  60  216  ]

---------- Exchange Correlation functional ----------
Initalized PBE GGA exchange.
Initalized PBE GGA correlation.

---------- Setting up pseudopotentials ----------
Width of ionic core gaussian charges (only for fluid interactions / plotting) set to 0.397384

Reading pseudopotential file '/projects/musgravc/apps/jdftx-1.6.0/build/pseudopotentials/GBRV_v1.5/pt_pbe_v1.4.uspp':
  Title: Pt.  Created by USPP 7.3.6 on 31-3-15
  Reference state energy: -105.002503.  16 valence electrons in orbitals:
    |510>  occupation: 6  eigenvalue: -2.158104
    |520>  occupation: 9.5  eigenvalue: -0.335376
    |600>  occupation: 0  eigenvalue: -0.319640
    |610>  occupation: 0  eigenvalue: -0.122947
  lMax: 2  lLocal: 3  QijEcut: 5.5
  6 projectors sampled on a log grid with 745 points:
    l: 0  eig: -0.319640  rCut: 2.45
    l: 0  eig: 1.500000  rCut: 2.45
    l: 1  eig: -2.158104  rCut: 1.6
    l: 1  eig: -0.122947  rCut: 1.6
    l: 2  eig: -0.500000  rCut: 1.6
    l: 2  eig: -0.335375  rCut: 1.6
  Partial core density with radius 1.1
  Transforming core density to a uniform radial grid of dG=0.02 with 1165 points.
  Transforming local potential to a uniform radial grid of dG=0.02 with 1165 points.
  Transforming nonlocal projectors to a uniform radial grid of dG=0.02 with 432 points.
  Transforming density augmentations to a uniform radial grid of dG=0.02 with 1165 points.
  Transforming atomic orbitals to a uniform radial grid of dG=0.02 with 432 points.
  Core radius for overlap checks: 2.45 bohrs.

Reading pseudopotential file '/projects/musgravc/apps/jdftx-1.6.0/build/pseudopotentials/GBRV_v1.5/c_pbe_v1.2.uspp':
  Title: C.  Created by USPP 7.3.6 on 3-2-2014
  Reference state energy: -5.406344.  4 valence electrons in orbitals:
    |200>  occupation: 2  eigenvalue: -0.504890
    |210>  occupation: 2  eigenvalue: -0.194356
  lMax: 1  lLocal: 2  QijEcut: 5
  4 projectors sampled on a log grid with 503 points:
    l: 0  eig: -0.504890  rCut: 1.3
    l: 0  eig: 0.000000  rCut: 1.3
    l: 1  eig: -0.194357  rCut: 1.3
    l: 1  eig: 0.000000  rCut: 1.3
  Partial core density with radius 1.1
  Transforming core density to a uniform radial grid of dG=0.02 with 1165 points.
  Transforming local potential to a uniform radial grid of dG=0.02 with 1165 points.
  Transforming nonlocal projectors to a uniform radial grid of dG=0.02 with 432 points.
  Transforming density augmentations to a uniform radial grid of dG=0.02 with 1165 points.
  Transforming atomic orbitals to a uniform radial grid of dG=0.02 with 432 points.
  Core radius for overlap checks: 1.30 bohrs.

Reading pseudopotential file '/projects/musgravc/apps/jdftx-1.6.0/build/pseudopotentials/GBRV_v1.5/o_pbe_v1.2.uspp':
  Title: O.  Created by USPP 7.3.6 on 3-2-2014
  Reference state energy: -15.894388.  6 valence electrons in orbitals:
    |200>  occupation: 2  eigenvalue: -0.878823
    |210>  occupation: 4  eigenvalue: -0.332131
  lMax: 2  lLocal: 2  QijEcut: 6
  5 projectors sampled on a log grid with 511 points:
    l: 0  eig: -0.878823  rCut: 1.25
    l: 0  eig: 0.000000  rCut: 1.25
    l: 1  eig: -0.332132  rCut: 1.25
    l: 1  eig: 0.000000  rCut: 1.25
    l: 2  eig: 1.000000  rCut: 1.25
  Partial core density with radius 0.7
  Transforming core density to a uniform radial grid of dG=0.02 with 1165 points.
  Transforming local potential to a uniform radial grid of dG=0.02 with 1165 points.
  Transforming nonlocal projectors to a uniform radial grid of dG=0.02 with 432 points.
  Transforming density augmentations to a uniform radial grid of dG=0.02 with 1165 points.
  Transforming atomic orbitals to a uniform radial grid of dG=0.02 with 432 points.
  Core radius for overlap checks: 1.25 bohrs.

Initialized 3 species with 34 total atoms.

Folded 1 k-points by 5x4x1 to 20 k-points.

---------- Setting up k-points, bands, fillings ----------
Adding inversion symmetry to k-mesh for non-inversion-symmetric unit cell.
Reduced to 11 k-points under symmetry. 
Computing the number of bands and number of electrons
Calculating initial fillings.
nElectrons: 522.000000   nBands: 314   nStates: 22

----- Setting up reduced wavefunction bases (one per k-point) -----
average nbasis = 34616.150 , ideal nbasis = 34611.152

----- Initializing Supercell corresponding to k-point mesh -----
Lattice vector linear combinations in supercell:
[   5   0   0  ]
[   0   4   0  ]
[   0   0   1  ]
Supercell lattice vectors:
[  52.32  0  0  ]
[  0  59.1933  0  ]
[  0  0  52.32  ]

Initializing DFT-D3 calculator:
	Parameters set for gga-PBE functional
	s6:  1.000  s_r6:  1.217
	s8:  0.722  s_r8:  1.000
	Per-atom parameters loaded for:
	Pt:  sqrtQ[a0]:  5.888  Rcov[a0]:  2.116  CN: [ 0.00 1.92 6.67 ]
	 C:  sqrtQ[a0]:  3.105  Rcov[a0]:  1.417  CN: [ 0.00 0.99 2.00 3.00 3.98 ]
	 O:  sqrtQ[a0]:  2.594  Rcov[a0]:  1.191  CN: [ 0.00 0.99 1.99 ]

Initializing DFT-D2 calculator for fluid / solvation:
	Pt:  C6:  815.23 Eh-a0^6  R0: 3.326 a0 (WARNING: beyond Grimme's data set)
	 C:  C6:   30.35 Eh-a0^6  R0: 2.744 a0
	 O:  C6:   12.14 Eh-a0^6  R0: 2.536 a0

---------- Setting up ewald sum ----------
Optimum gaussian width for ewald sums = 4.451666 bohr.
Real space sum over 585 unit cells with max indices [  6  4  2  ]
Reciprocal space sum over 6435 terms with max indices [  5  7  19  ]

Computing DFT-D3 correction:
# coordination-number Pt 9.637 8.659 9.640 8.659 9.490 9.491 9.490 9.491 7.244 7.244 5.980 5.980 9.425 9.425 9.419 9.419 9.418 9.418 9.418 9.418 5.947 5.947 5.947 5.947 9.491 9.491 9.491 9.491 8.656 8.656 8.656 8.656
# coordination-number C 4.963
# coordination-number O 1.690
# diagonal-C6 Pt 336.87 336.87 336.87 336.87 336.87 336.87 336.87 336.87 336.87 336.87 336.87 336.87 336.87 336.87 336.87 336.87 336.87 336.87 336.87 336.87 336.87 336.87 336.87 336.87 336.87 336.87 336.87 336.87 336.87 336.87 336.87 336.87
# diagonal-C6 C 18.21
# diagonal-C6 O 10.76
EvdW_6 =   -0.272676
EvdW_8 =   -0.447911

---------- Allocating electronic variables ----------
Initializing wave functions:  linear combination of atomic orbitals
Pt pseudo-atom occupations:   s ( 0 )  p ( 6 0 )  d ( 10 )
C pseudo-atom occupations:   s ( 2 )  p ( 2 )
O pseudo-atom occupations:   s ( 2 )  p ( 4 )
	FillingsUpdate:  mu: -0.980835510  nElectrons: 522.000000  magneticMoment: [ Abs: 0.00478  Tot: -0.00010 ]
LCAOMinimize: Iter:   0  F: -2852.0169147547021566  |grad|_K:  1.607e-02  alpha:  1.000e+00
LCAOMinimize: 	Step increased F by 2.641889e+02, reducing alpha to 2.074334e-02.
	FillingsUpdate:  mu: -0.168988658  nElectrons: 522.000000  magneticMoment: [ Abs: 0.00388  Tot: -0.00011 ]
LCAOMinimize: Iter:   1  F: -2862.8553133584700845  |grad|_K:  4.285e-03  alpha:  2.074e-02  linmin: -3.539e-02  cgtest:  7.848e-02  t[s]:    122.58
LCAOMinimize: 	Predicted alpha/alphaT>3.000000, increasing alphaT to 6.223003e-02.
	FillingsUpdate:  mu: +0.301846628  nElectrons: 522.000000  magneticMoment: [ Abs: 0.00302  Tot: -0.00006 ]
LCAOMinimize: Iter:   2  F: -2866.3839740155872278  |grad|_K:  3.841e-03  alpha:  1.185e-01  linmin:  1.205e-02  cgtest: -5.480e-02  t[s]:    169.53
LCAOMinimize: 	Step increased F by 2.337574e-01, reducing alpha to 2.498227e-03.
	FillingsUpdate:  mu: +0.273513395  nElectrons: 522.000000  magneticMoment: [ Abs: 0.00301  Tot: -0.00007 ]
LCAOMinimize: Iter:   3  F: -2866.4831896594255340  |grad|_K:  3.031e-03  alpha:  2.498e-03  linmin: -1.040e-01  cgtest:  9.829e-01  t[s]:    233.15
LCAOMinimize: Encountered beta<0, resetting CG.
LCAOMinimize: 	Predicted alpha/alphaT>3.000000, increasing alphaT to 7.494681e-03.
	FillingsUpdate:  mu: +0.252862772  nElectrons: 522.000000  magneticMoment: [ Abs: 0.00299  Tot: -0.00004 ]
LCAOMinimize: Iter:   4  F: -2866.7280178705104845  |grad|_K:  3.028e-03  alpha:  1.548e-02  linmin: -1.854e-03  cgtest: -2.123e-03  t[s]:    279.48
	FillingsUpdate:  mu: +0.125820568  nElectrons: 522.000000  magneticMoment: [ Abs: 0.00294  Tot: -0.00009 ]
LCAOMinimize: Iter:   5  F: -2867.0467913354186749  |grad|_K:  2.684e-03  alpha:  2.054e-02  linmin:  4.842e-03  cgtest: -1.450e-01  t[s]:    316.13
	FillingsUpdate:  mu: +0.132942164  nElectrons: 522.000000  magneticMoment: [ Abs: 0.00281  Tot: +0.00004 ]
LCAOMinimize: Iter:   6  F: -2867.4414248220305126  |grad|_K:  1.756e-03  alpha:  3.528e-02  linmin:  6.339e-03  cgtest:  5.453e-01  t[s]:    352.81
	FillingsUpdate:  mu: +0.151504165  nElectrons: 522.000000  magneticMoment: [ Abs: 0.00279  Tot: +0.00004 ]
LCAOMinimize: Iter:   7  F: -2867.4967109262715894  |grad|_K:  1.494e-03  alpha:  1.053e-02  linmin: -1.449e-03  cgtest:  1.934e-02  t[s]:    389.53
LCAOMinimize: 	Predicted alpha/alphaT>3.000000, increasing alphaT to 3.157818e-02.
	FillingsUpdate:  mu: +0.227893848  nElectrons: 522.000000  magneticMoment: [ Abs: 0.00265  Tot: -0.00012 ]
LCAOMinimize: Iter:   8  F: -2867.6746903725229458  |grad|_K:  1.364e-03  alpha:  4.775e-02  linmin:  7.084e-03  cgtest: -2.145e-01  t[s]:    435.99
	FillingsUpdate:  mu: +0.231890458  nElectrons: 522.000000  magneticMoment: [ Abs: 0.00259  Tot: +0.00005 ]
LCAOMinimize: Iter:   9  F: -2867.7462760752800932  |grad|_K:  1.311e-03  alpha:  2.422e-02  linmin: -4.979e-04  cgtest:  6.350e-02  t[s]:    472.88
	FillingsUpdate:  mu: +0.214846659  nElectrons: 522.000000  magneticMoment: [ Abs: 0.00258  Tot: +0.00021 ]
LCAOMinimize: Iter:  10  F: -2867.7888240160823443  |grad|_K:  1.138e-03  alpha:  1.438e-02  linmin: -1.499e-04  cgtest: -2.132e-02  t[s]:    509.53
LCAOMinimize: 	Predicted alpha/alphaT>3.000000, increasing alphaT to 4.313815e-02.
	FillingsUpdate:  mu: +0.218086585  nElectrons: 522.000000  magneticMoment: [ Abs: 0.00245  Tot: +0.00025 ]
LCAOMinimize: Iter:  11  F: -2867.8983357389192861  |grad|_K:  1.196e-03  alpha:  4.940e-02  linmin: -1.514e-03  cgtest:  1.441e-01  t[s]:    555.93
	FillingsUpdate:  mu: +0.252272413  nElectrons: 522.000000  magneticMoment: [ Abs: 0.00239  Tot: +0.00021 ]
LCAOMinimize: Iter:  12  F: -2867.9475617752200378  |grad|_K:  1.032e-03  alpha:  2.060e-02  linmin:  1.709e-03  cgtest: -7.889e-02  t[s]:    592.66
	FillingsUpdate:  mu: +0.253876464  nElectrons: 522.000000  magneticMoment: [ Abs: 0.00237  Tot: +0.00020 ]
LCAOMinimize: Iter:  13  F: -2867.9669553038870617  |grad|_K:  7.000e-04  alpha:  1.092e-02  linmin: -5.474e-04  cgtest:  6.941e-02  t[s]:    629.48
LCAOMinimize: 	Predicted alpha/alphaT>3.000000, increasing alphaT to 3.275687e-02.
	FillingsUpdate:  mu: +0.218410922  nElectrons: 522.000000  magneticMoment: [ Abs: 0.00235  Tot: +0.00023 ]
LCAOMinimize: Iter:  14  F: -2868.0170534840794971  |grad|_K:  1.978e-04  alpha:  5.904e-02  linmin: -7.294e-03  cgtest: -7.742e-02  t[s]:    675.75
	FillingsUpdate:  mu: +0.216847056  nElectrons: 522.000000  magneticMoment: [ Abs: 0.00235  Tot: +0.00025 ]
LCAOMinimize: Iter:  15  F: -2868.0199570701429366  |grad|_K:  3.713e-04  alpha:  4.211e-02  linmin:  1.641e-05  cgtest: -1.535e-02  t[s]:    712.43
	FillingsUpdate:  mu: +0.210216968  nElectrons: 522.000000  magneticMoment: [ Abs: 0.00235  Tot: +0.00028 ]
LCAOMinimize: Iter:  16  F: -2868.0231425860865784  |grad|_K:  2.096e-04  alpha:  1.344e-02  linmin: -7.364e-04  cgtest:  8.782e-02  t[s]:    749.18
LCAOMinimize: 	Predicted alpha/alphaT>3.000000, increasing alphaT to 4.032482e-02.
	FillingsUpdate:  mu: +0.220326489  nElectrons: 522.000000  magneticMoment: [ Abs: 0.00236  Tot: +0.00032 ]
LCAOMinimize: Iter:  17  F: -2868.0267486563516286  |grad|_K:  2.103e-04  alpha:  4.807e-02  linmin:  8.638e-04  cgtest:  2.723e-03  t[s]:    795.40
	FillingsUpdate:  mu: +0.215986076  nElectrons: 522.000000  magneticMoment: [ Abs: 0.00237  Tot: +0.00035 ]
LCAOMinimize: Iter:  18  F: -2868.0286237511600120  |grad|_K:  2.565e-04  alpha:  2.518e-02  linmin: -5.503e-05  cgtest:  2.201e-02  t[s]:    832.10
	FillingsUpdate:  mu: +0.209595698  nElectrons: 522.000000  magneticMoment: [ Abs: 0.00237  Tot: +0.00037 ]
LCAOMinimize: Iter:  19  F: -2868.0296767328018177  |grad|_K:  5.726e-05  alpha:  9.324e-03  linmin: -1.580e-03  cgtest:  2.154e-02  t[s]:    869.14
LCAOMinimize: 	Predicted alpha/alphaT>3.000000, increasing alphaT to 2.797177e-02.
LCAOMinimize: 	Predicted alpha/alphaT>3.000000, increasing alphaT to 8.391531e-02.
	FillingsUpdate:  mu: +0.206561902  nElectrons: 522.000000  magneticMoment: [ Abs: 0.00240  Tot: +0.00042 ]
LCAOMinimize: Iter:  20  F: -2868.0302426888029004  |grad|_K:  6.069e-05  alpha:  1.011e-01  linmin:  4.404e-04  cgtest: -6.136e-03  t[s]:    925.22
	FillingsUpdate:  mu: +0.206586233  nElectrons: 522.000000  magneticMoment: [ Abs: 0.00240  Tot: +0.00043 ]
LCAOMinimize: Iter:  21  F: -2868.0303048071832563  |grad|_K:  4.773e-05  alpha:  9.948e-03  linmin: -2.228e-04  cgtest:  9.105e-03  t[s]:    961.90
LCAOMinimize: 	Predicted alpha/alphaT>3.000000, increasing alphaT to 2.984461e-02.
	FillingsUpdate:  mu: +0.207838355  nElectrons: 522.000000  magneticMoment: [ Abs: 0.00241  Tot: +0.00045 ]
LCAOMinimize: Iter:  22  F: -2868.0304211753787058  |grad|_K:  3.363e-05  alpha:  3.000e-02  linmin:  9.413e-05  cgtest: -2.220e-02  t[s]:   1008.33
	FillingsUpdate:  mu: +0.206317208  nElectrons: 522.000000  magneticMoment: [ Abs: 0.00243  Tot: +0.00048 ]
LCAOMinimize: Iter:  23  F: -2868.0304884750089514  |grad|_K:  1.861e-05  alpha:  3.506e-02  linmin:  9.608e-05  cgtest:  9.243e-03  t[s]:   1045.45
	FillingsUpdate:  mu: +0.206441496  nElectrons: 522.000000  magneticMoment: [ Abs: 0.00244  Tot: +0.00051 ]
LCAOMinimize: Iter:  24  F: -2868.0305260879886191  |grad|_K:  3.135e-05  alpha:  6.401e-02  linmin:  3.080e-05  cgtest: -2.337e-04  t[s]:   1082.09
	FillingsUpdate:  mu: +0.206638105  nElectrons: 522.000000  magneticMoment: [ Abs: 0.00245  Tot: +0.00052 ]
LCAOMinimize: Iter:  25  F: -2868.0305394803453964  |grad|_K:  1.036e-05  alpha:  7.991e-03  linmin: -6.533e-04  cgtest:  1.308e-02  t[s]:   1118.76
LCAOMinimize: 	Predicted alpha/alphaT>3.000000, increasing alphaT to 2.397309e-02.
	FillingsUpdate:  mu: +0.207316032  nElectrons: 522.000000  magneticMoment: [ Abs: 0.00247  Tot: +0.00055 ]
LCAOMinimize: Iter:  26  F: -2868.0305510650164251  |grad|_K:  1.330e-05  alpha:  6.334e-02  linmin:  4.736e-05  cgtest: -5.335e-03  t[s]:   1165.11
	FillingsUpdate:  mu: +0.206770794  nElectrons: 522.000000  magneticMoment: [ Abs: 0.00249  Tot: +0.00060 ]
LCAOMinimize: Iter:  27  F: -2868.0305652925026152  |grad|_K:  9.752e-06  alpha:  4.736e-02  linmin: -1.454e-06  cgtest:  8.375e-03  t[s]:   1201.85
	FillingsUpdate:  mu: +0.206711582  nElectrons: 522.000000  magneticMoment: [ Abs: 0.00250  Tot: +0.00061 ]
LCAOMinimize: Iter:  28  F: -2868.0305680190608655  |grad|_K:  1.279e-05  alpha:  1.687e-02  linmin: -1.050e-05  cgtest:  3.755e-04  t[s]:   1238.52
	FillingsUpdate:  mu: +0.206569490  nElectrons: 522.000000  magneticMoment: [ Abs: 0.00254  Tot: +0.00067 ]
LCAOMinimize: Iter:  29  F: -2868.0305778463175557  |grad|_K:  6.025e-06  alpha:  3.538e-02  linmin:  5.057e-05  cgtest: -6.710e-03  t[s]:   1275.21
	FillingsUpdate:  mu: +0.206840223  nElectrons: 522.000000  magneticMoment: [ Abs: 0.00255  Tot: +0.00070 ]
LCAOMinimize: Iter:  30  F: -2868.0305805292036894  |grad|_K:  4.982e-06  alpha:  4.355e-02  linmin:  6.254e-05  cgtest:  2.747e-04  t[s]:   1311.87
LCAOMinimize: None of the convergence criteria satisfied after 30 iterations.
----- createFluidSolver() ----- (Fluid-side solver setup)
   Initializing fluid molecule 'H2O'
     Initializing site 'O'
       Electron density: proportional to exp(-r/0.36935)*erfc((r-0.51523)/0.36823) with norm 6.826
       Charge density: gaussian nuclear width 0.478731 with net site charge 0.826
       Polarizability: cuspless exponential with width 0.32 and norm 3.73
       Hard sphere radius: 2.57003 bohrs
       Positions in reference frame:
         [ +0.000000 +0.000000 +0.000000 ]
     Initializing site 'H'
       Electron density: proportional to exp(-r/0.34641)*erfc((r-0)/0.390882) with norm 0.587
       Charge density: gaussian nuclear width 0.377945 with net site charge -0.413
       Polarizability: cuspless exponential with width 0.39 and norm 3.3
       Positions in reference frame:
         [ +0.000000 -1.441945 +1.122523 ]
         [ +0.000000 +1.441945 +1.122523 ]
     Net charge: 0   dipole magnitude: 0.927204
     Initializing spherical shell mfKernel with radius 2.61727 Bohr
     deltaS corrections:
       site 'O': -7.54299
       site 'H': -6.83917
   Initializing fluid molecule 'Na+'
     Initializing site 'Na'
       Electron density: proportional to exp(-r/0.19682)*erfc((r-0.71491)/0.41314) with norm 8.1383
       Charge density: gaussian nuclear width 0.365347 with net site charge -1
       Hard sphere radius: 1.86327 bohrs
       Positions in reference frame:
         [ +0.000000 +0.000000 +0.000000 ]
     Net charge: -1   dipole magnitude: 0
     Initializing gaussian mfKernel with width: 1.55004 Bohr
     deltaS corrections:
       site 'Na': -22.3555
   Initializing fluid molecule 'F-'
     Initializing site 'F'
       Electron density: proportional to exp(-r/0.38886)*erfc((r-0)/0.438782) with norm 8
       Charge density: gaussian nuclear width 0.374796 with net site charge 1
       Hard sphere radius: 2.39995 bohrs
       Positions in reference frame:
         [ +0.000000 +0.000000 +0.000000 ]
     Net charge: 1   dipole magnitude: 0
     Initializing gaussian mfKernel with width: 1.59012 Bohr
     deltaS corrections:
       site 'F': -9.04335

Correction to mu due to finite nuclear width = -0.0639283
   Cavity determined by nc: 0.00142 and sigma: 0.707107
   Nonlocal vdW cavity from gaussian model electron density with norm = 8 and sigma = 0.993594 bohr
   Charge asymmetry in cavity with sensitivity pCavity = 36.5 e-bohr/Eh
   Electrostatic cavity expanded by eta = 1.46 bohrs
   Weighted density cavitation model constrained by Nbulk: 0.0049383 bohr^-3, Pvap: 3.14029 kPa, Rvdw: 2.61727 bohr and sigmaBulk: 4.62e-05 Eh/bohr^2 at T: 298 K.
   Weighted density dispersion model using vdW pair potentials with single solvent site with sqrtC6eff: 0.77 SI.


---- Citations for features of the code used in this run ----

   Software package:
      R. Sundararaman, K. Letchworth-Weaver, K.A. Schwarz, D. Gunceler, Y. Ozhabes and T.A. Arias, 'JDFTx: software for joint density-functional theory', SoftwareX 6, 278 (2017)

   gga-PBE exchange-correlation functional:
      J.P. Perdew, K. Burke and M. Ernzerhof, Phys. Rev. Lett. 77, 3865 (1996)

   Pseudopotentials:
      KF Garrity, JW Bennett, KM Rabe and D Vanderbilt, Comput. Mater. Sci. 81, 446 (2014)

   DFT-D3 dispersion correction:
      S. Grimme, J. Antony, S. Ehrlich and H. Krieg, J. Chem. Phys. 132, 154104 (2010)

   DFT-D2 dispersion correction:
      S. Grimme, J. Comput. Chem. 27, 1787 (2006)

   Charge-asymmetric nonlocally-determined local-electric (CANDLE) solvation model:
      R. Sundararaman and W.A. Goddard III, J. Chem. Phys. 142, 064107 (2015)

   Total energy minimization with Auxiliary Hamiltonian:
      C. Freysoldt, S. Boeck, and J. Neugebauer, Phys. Rev. B 79, 241103(R) (2009)

   Linear-tetrahedron sampling for density of states:
      G. Lehmann and M. Taut, Phys. status solidi (b) 54, 469 (1972)

This list may not be complete. Please suggest additional citations or
report any other bugs at https://github.com/shankar1729/jdftx/issues

Initialization completed successfully at t[s]:   1323.35


Computing DFT-D3 correction:
# coordination-number Pt 9.637 8.659 9.640 8.659 9.490 9.491 9.490 9.491 7.244 7.244 5.980 5.980 9.425 9.425 9.419 9.419 9.418 9.418 9.418 9.418 5.947 5.947 5.947 5.947 9.491 9.491 9.491 9.491 8.656 8.656 8.656 8.656
# coordination-number C 4.963
# coordination-number O 1.690
# diagonal-C6 Pt 336.87 336.87 336.87 336.87 336.87 336.87 336.87 336.87 336.87 336.87 336.87 336.87 336.87 336.87 336.87 336.87 336.87 336.87 336.87 336.87 336.87 336.87 336.87 336.87 336.87 336.87 336.87 336.87 336.87 336.87 336.87 336.87
# diagonal-C6 C 18.21
# diagonal-C6 O 10.76
EvdW_6 =   -0.272676
EvdW_8 =   -0.447911
Fluid solver invoked on fresh (random / LCAO) wavefunctions
Running a vacuum solve first:

-------- Initial electronic minimization -----------
	FillingsUpdate:  mu: +0.206840230  nElectrons: 522.000000  magneticMoment: [ Abs: 0.00255  Tot: +0.00070 ]
ElecMinimize: Iter:   0  F: -2868.030580529211420  |grad|_K:  6.772e-05  alpha:  1.000e+00
	FillingsUpdate:  mu: +0.235052948  nElectrons: 522.000000  magneticMoment: [ Abs: 0.00212  Tot: +0.00083 ]
	SubspaceRotationAdjust: set factor to 0.999
ElecMinimize: Iter:   1  F: -2868.509037730458203  |grad|_K:  3.436e-05  alpha:  4.379e-01  linmin:  4.243e-05  t[s]:   1414.72
	FillingsUpdate:  mu: +0.244358540  nElectrons: 522.000000  magneticMoment: [ Abs: 0.00181  Tot: +0.00080 ]
	SubspaceRotationAdjust: set factor to 0.548
ElecMinimize: Iter:   2  F: -2868.592974009985937  |grad|_K:  5.977e-05  alpha:  2.954e-01  linmin:  6.249e-06  t[s]:   1473.22
	FillingsUpdate:  mu: +0.226729327  nElectrons: 522.000000  magneticMoment: [ Abs: 0.00171  Tot: +0.00074 ]
	SubspaceRotationAdjust: set factor to 0.306
ElecMinimize: Iter:   3  F: -2868.605713707265750  |grad|_K:  5.195e-05  alpha:  1.969e-02  linmin:  9.158e-04  t[s]:   1531.59
	FillingsUpdate:  mu: +0.200332111  nElectrons: 522.000000  magneticMoment: [ Abs: 0.00164  Tot: +0.00071 ]
	SubspaceRotationAdjust: set factor to 0.279
ElecMinimize: Iter:   4  F: -2868.613985787221281  |grad|_K:  2.457e-05  alpha:  1.666e-02  linmin:  7.000e-07  t[s]:   1589.89
	FillingsUpdate:  mu: +0.212545370  nElectrons: 522.000000  magneticMoment: [ Abs: 0.00159  Tot: +0.00072 ]
	SubspaceRotationAdjust: set factor to 0.176
ElecMinimize: Iter:   5  F: -2868.620363770610766  |grad|_K:  3.252e-05  alpha:  4.402e-02  linmin:  2.943e-06  t[s]:   1648.35
	FillingsUpdate:  mu: +0.231325868  nElectrons: 522.000000  magneticMoment: [ Abs: 0.00144  Tot: +0.00074 ]
	SubspaceRotationAdjust: set factor to 0.111
	SubspaceRotationAdjust: resetting CG because factor has changed by 0.1106
ElecMinimize: 	State modified externally: resetting search direction.
ElecMinimize: Iter:   6  F: -2868.636760963870074  |grad|_K:  1.924e-05  alpha:  6.476e-02
	FillingsUpdate:  mu: +0.220695481  nElectrons: 522.000000  magneticMoment: [ Abs: 0.00142  Tot: +0.00074 ]
	SubspaceRotationAdjust: set factor to 0.0435
ElecMinimize: Iter:   7  F: -2868.642532136089812  |grad|_K:  1.049e-05  alpha:  6.490e-02  linmin: -6.835e-05  t[s]:   1793.94
ElecMinimize: 	Predicted alpha/alphaT>3.000000, increasing alphaT to 1.946878e-01.
	FillingsUpdate:  mu: +0.212687524  nElectrons: 522.000000  magneticMoment: [ Abs: 0.00131  Tot: +0.00074 ]
	SubspaceRotationAdjust: set factor to 0.0313
ElecMinimize: Iter:   8  F: -2868.648718346651549  |grad|_K:  5.941e-06  alpha:  2.335e-01  linmin: -1.550e-04  t[s]:   1867.14
	FillingsUpdate:  mu: +0.220041422  nElectrons: 522.000000  magneticMoment: [ Abs: 0.00115  Tot: +0.00074 ]
	SubspaceRotationAdjust: set factor to 0.0324
ElecMinimize: Iter:   9  F: -2868.652942270741278  |grad|_K:  4.226e-06  alpha:  4.964e-01  linmin: -8.597e-06  t[s]:   1925.65
	FillingsUpdate:  mu: +0.221079376  nElectrons: 522.000000  magneticMoment: [ Abs: 0.00106  Tot: +0.00074 ]
	SubspaceRotationAdjust: set factor to 0.0275
ElecMinimize: Iter:  10  F: -2868.654609565810915  |grad|_K:  3.259e-06  alpha:  3.884e-01  linmin: -1.368e-07  t[s]:   1984.39
	FillingsUpdate:  mu: +0.220002728  nElectrons: 522.000000  magneticMoment: [ Abs: 0.00102  Tot: +0.00074 ]
	SubspaceRotationAdjust: set factor to 0.021
ElecMinimize: Iter:  11  F: -2868.655387745407097  |grad|_K:  1.946e-06  alpha:  3.049e-01  linmin:  1.728e-07  t[s]:   2043.06
	FillingsUpdate:  mu: +0.220059600  nElectrons: 522.000000  magneticMoment: [ Abs: 0.00100  Tot: +0.00074 ]
	SubspaceRotationAdjust: set factor to 0.0244
ElecMinimize: Iter:  12  F: -2868.655723998389931  |grad|_K:  1.164e-06  alpha:  3.697e-01  linmin:  9.060e-07  t[s]:   2101.47
	FillingsUpdate:  mu: +0.220455532  nElectrons: 522.000000  magneticMoment: [ Abs: 0.00099  Tot: +0.00074 ]
	SubspaceRotationAdjust: set factor to 0.0259
ElecMinimize: Iter:  13  F: -2868.655882160649071  |grad|_K:  9.966e-07  alpha:  4.857e-01  linmin:  2.290e-06  t[s]:   2160.22
	FillingsUpdate:  mu: +0.220350546  nElectrons: 522.000000  magneticMoment: [ Abs: 0.00098  Tot: +0.00074 ]
	SubspaceRotationAdjust: set factor to 0.0256
ElecMinimize: Iter:  14  F: -2868.655992160566257  |grad|_K:  8.315e-07  alpha:  4.611e-01  linmin:  2.176e-06  t[s]:   2218.87
	FillingsUpdate:  mu: +0.220078467  nElectrons: 522.000000  magneticMoment: [ Abs: 0.00098  Tot: +0.00074 ]
	SubspaceRotationAdjust: set factor to 0.0291
ElecMinimize: Iter:  15  F: -2868.656064621893165  |grad|_K:  6.724e-07  alpha:  4.363e-01  linmin:  2.168e-06  t[s]:   2277.53
	FillingsUpdate:  mu: +0.220339389  nElectrons: 522.000000  magneticMoment: [ Abs: 0.00098  Tot: +0.00074 ]
	SubspaceRotationAdjust: set factor to 0.036
ElecMinimize: Iter:  16  F: -2868.656129791542753  |grad|_K:  6.355e-07  alpha:  6.002e-01  linmin:  2.377e-06  t[s]:   2335.93
	FillingsUpdate:  mu: +0.220731335  nElectrons: 522.000000  magneticMoment: [ Abs: 0.00097  Tot: +0.00074 ]
	SubspaceRotationAdjust: set factor to 0.0373
ElecMinimize: Iter:  17  F: -2868.656186587504180  |grad|_K:  7.993e-07  alpha:  5.857e-01  linmin:  7.036e-07  t[s]:   2394.69
	FillingsUpdate:  mu: +0.220774022  nElectrons: 522.000000  magneticMoment: [ Abs: 0.00096  Tot: +0.00075 ]
	SubspaceRotationAdjust: set factor to 0.0341
ElecMinimize: Iter:  18  F: -2868.656256997827768  |grad|_K:  8.877e-07  alpha:  4.587e-01  linmin:  7.832e-07  t[s]:   2453.48
	FillingsUpdate:  mu: +0.220525148  nElectrons: 522.000000  magneticMoment: [ Abs: 0.00094  Tot: +0.00075 ]
	SubspaceRotationAdjust: set factor to 0.0347
ElecMinimize: Iter:  19  F: -2868.656357923550786  |grad|_K:  8.389e-07  alpha:  5.334e-01  linmin:  1.679e-06  t[s]:   2512.22
	FillingsUpdate:  mu: +0.220447473  nElectrons: 522.000000  magneticMoment: [ Abs: 0.00092  Tot: +0.00075 ]
	SubspaceRotationAdjust: set factor to 0.0373
ElecMinimize: Iter:  20  F: -2868.656462648116303  |grad|_K:  8.408e-07  alpha:  6.200e-01  linmin:  6.702e-08  t[s]:   2571.16
	FillingsUpdate:  mu: +0.220507137  nElectrons: 522.000000  magneticMoment: [ Abs: 0.00090  Tot: +0.00076 ]
	SubspaceRotationAdjust: set factor to 0.0372
ElecMinimize: Iter:  21  F: -2868.656555758249397  |grad|_K:  8.358e-07  alpha:  5.483e-01  linmin: -1.470e-06  t[s]:   2629.55
	FillingsUpdate:  mu: +0.220388528  nElectrons: 522.000000  magneticMoment: [ Abs: 0.00088  Tot: +0.00077 ]
	SubspaceRotationAdjust: set factor to 0.0314
ElecMinimize: Iter:  22  F: -2868.656621230396013  |grad|_K:  8.090e-07  alpha:  3.899e-01  linmin: -1.025e-06  t[s]:   2687.98
	FillingsUpdate:  mu: +0.220117539  nElectrons: 522.000000  magneticMoment: [ Abs: 0.00087  Tot: +0.00078 ]
	SubspaceRotationAdjust: set factor to 0.0283
ElecMinimize: Iter:  23  F: -2868.656676236560543  |grad|_K:  5.684e-07  alpha:  3.497e-01  linmin: -1.536e-06  t[s]:   2746.47
	FillingsUpdate:  mu: +0.220209243  nElectrons: 522.000000  magneticMoment: [ Abs: 0.00086  Tot: +0.00078 ]
	SubspaceRotationAdjust: set factor to 0.032
ElecMinimize: Iter:  24  F: -2868.656712606850760  |grad|_K:  4.360e-07  alpha:  4.681e-01  linmin: -1.985e-06  t[s]:   2804.84
	FillingsUpdate:  mu: +0.220411315  nElectrons: 522.000000  magneticMoment: [ Abs: 0.00086  Tot: +0.00079 ]
	SubspaceRotationAdjust: set factor to 0.0334
ElecMinimize: Iter:  25  F: -2868.656733676875774  |grad|_K:  3.632e-07  alpha:  4.609e-01  linmin: -6.846e-07  t[s]:   2864.97
	FillingsUpdate:  mu: +0.220402847  nElectrons: 522.000000  magneticMoment: [ Abs: 0.00085  Tot: +0.00079 ]
	SubspaceRotationAdjust: set factor to 0.0309
ElecMinimize: Iter:  26  F: -2868.656745689728723  |grad|_K:  3.082e-07  alpha:  3.791e-01  linmin: -2.158e-07  t[s]:   2923.58
	FillingsUpdate:  mu: +0.220361078  nElectrons: 522.000000  magneticMoment: [ Abs: 0.00085  Tot: +0.00079 ]
	SubspaceRotationAdjust: set factor to 0.0327
ElecMinimize: Iter:  27  F: -2868.656754310787619  |grad|_K:  2.292e-07  alpha:  3.777e-01  linmin: -2.339e-07  t[s]:   2982.00
	FillingsUpdate:  mu: +0.220382240  nElectrons: 522.000000  magneticMoment: [ Abs: 0.00086  Tot: +0.00080 ]
	SubspaceRotationAdjust: set factor to 0.0406
ElecMinimize: Iter:  28  F: -2868.656760652585035  |grad|_K:  1.880e-07  alpha:  5.025e-01  linmin:  2.003e-08  t[s]:   3040.42
	FillingsUpdate:  mu: +0.220403982  nElectrons: 522.000000  magneticMoment: [ Abs: 0.00086  Tot: +0.00080 ]
	SubspaceRotationAdjust: set factor to 0.046
ElecMinimize: Iter:  29  F: -2868.656765333674684  |grad|_K:  1.937e-07  alpha:  5.511e-01  linmin:  3.623e-07  t[s]:   3099.11
	FillingsUpdate:  mu: +0.220402943  nElectrons: 522.000000  magneticMoment: [ Abs: 0.00086  Tot: +0.00080 ]
	SubspaceRotationAdjust: set factor to 0.0428
ElecMinimize: Iter:  30  F: -2868.656768721537446  |grad|_K:  2.031e-07  alpha:  3.758e-01  linmin:  4.535e-08  t[s]:   3157.79
	FillingsUpdate:  mu: +0.220386865  nElectrons: 522.000000  magneticMoment: [ Abs: 0.00086  Tot: +0.00080 ]
	SubspaceRotationAdjust: set factor to 0.0392
ElecMinimize: Iter:  31  F: -2868.656771916447724  |grad|_K:  1.684e-07  alpha:  3.223e-01  linmin:  1.817e-07  t[s]:   3216.21
	FillingsUpdate:  mu: +0.220455059  nElectrons: 522.000000  magneticMoment: [ Abs: 0.00087  Tot: +0.00081 ]
	SubspaceRotationAdjust: set factor to 0.0427
ElecMinimize: Iter:  32  F: -2868.656775344076323  |grad|_K:  1.488e-07  alpha:  5.035e-01  linmin:  1.323e-06  t[s]:   3274.59
	FillingsUpdate:  mu: +0.220475568  nElectrons: 522.000000  magneticMoment: [ Abs: 0.00087  Tot: +0.00081 ]
	SubspaceRotationAdjust: set factor to 0.0475
ElecMinimize: Iter:  33  F: -2868.656778284176653  |grad|_K:  1.333e-07  alpha:  5.534e-01  linmin:  1.408e-07  t[s]:   3333.09
	FillingsUpdate:  mu: +0.220464823  nElectrons: 522.000000  magneticMoment: [ Abs: 0.00087  Tot: +0.00082 ]
	SubspaceRotationAdjust: set factor to 0.053
ElecMinimize: Iter:  34  F: -2868.656780560911557  |grad|_K:  1.176e-07  alpha:  5.329e-01  linmin: -1.710e-07  t[s]:   3391.72
	FillingsUpdate:  mu: +0.220516824  nElectrons: 522.000000  magneticMoment: [ Abs: 0.00088  Tot: +0.00083 ]
	SubspaceRotationAdjust: set factor to 0.0567
ElecMinimize: Iter:  35  F: -2868.656782171017767  |grad|_K:  1.075e-07  alpha:  4.842e-01  linmin: -8.472e-07  t[s]:   3450.26
	FillingsUpdate:  mu: +0.220512590  nElectrons: 522.000000  magneticMoment: [ Abs: 0.00088  Tot: +0.00083 ]
	SubspaceRotationAdjust: set factor to 0.0497
ElecMinimize: Iter:  36  F: -2868.656783043153155  |grad|_K:  1.171e-07  alpha:  3.142e-01  linmin: -5.844e-07  t[s]:   3508.68
	FillingsUpdate:  mu: +0.220503420  nElectrons: 522.000000  magneticMoment: [ Abs: 0.00088  Tot: +0.00083 ]
	SubspaceRotationAdjust: set factor to 0.0433
ElecMinimize: Iter:  37  F: -2868.656783853171873  |grad|_K:  8.435e-08  alpha:  2.460e-01  linmin: -1.677e-07  t[s]:   3567.12
	FillingsUpdate:  mu: +0.220492489  nElectrons: 522.000000  magneticMoment: [ Abs: 0.00088  Tot: +0.00084 ]
	SubspaceRotationAdjust: set factor to 0.0507
ElecMinimize: Iter:  38  F: -2868.656784658691777  |grad|_K:  7.062e-08  alpha:  4.710e-01  linmin: -1.985e-06  t[s]:   3625.78
	FillingsUpdate:  mu: +0.220520206  nElectrons: 522.000000  magneticMoment: [ Abs: 0.00089  Tot: +0.00084 ]
	SubspaceRotationAdjust: set factor to 0.0605
ElecMinimize: Iter:  39  F: -2868.656785282048986  |grad|_K:  6.181e-08  alpha:  5.195e-01  linmin: -7.702e-07  t[s]:   3684.43
	FillingsUpdate:  mu: +0.220508399  nElectrons: 522.000000  magneticMoment: [ Abs: 0.00089  Tot: +0.00085 ]
	SubspaceRotationAdjust: set factor to 0.0664
ElecMinimize: Iter:  40  F: -2868.656785758666956  |grad|_K:  6.749e-08  alpha:  5.188e-01  linmin:  2.353e-06  t[s]:   3743.66
	FillingsUpdate:  mu: +0.220497511  nElectrons: 522.000000  magneticMoment: [ Abs: 0.00090  Tot: +0.00085 ]
	SubspaceRotationAdjust: set factor to 0.0559
ElecMinimize: Iter:  41  F: -2868.656786024342637  |grad|_K:  7.306e-08  alpha:  2.434e-01  linmin: -1.406e-07  t[s]:   3802.27
	FillingsUpdate:  mu: +0.220507672  nElectrons: 522.000000  magneticMoment: [ Abs: 0.00090  Tot: +0.00086 ]
	SubspaceRotationAdjust: set factor to 0.0521
ElecMinimize: Iter:  42  F: -2868.656786388412911  |grad|_K:  5.561e-08  alpha:  2.841e-01  linmin: -2.950e-07  t[s]:   3860.67
	FillingsUpdate:  mu: +0.220522618  nElectrons: 522.000000  magneticMoment: [ Abs: 0.00091  Tot: +0.00087 ]
	SubspaceRotationAdjust: set factor to 0.0556
ElecMinimize: Iter:  43  F: -2868.656786767571248  |grad|_K:  5.099e-08  alpha:  5.100e-01  linmin:  1.643e-06  t[s]:   3919.22
	FillingsUpdate:  mu: +0.220500276  nElectrons: 522.000000  magneticMoment: [ Abs: 0.00092  Tot: +0.00087 ]
	SubspaceRotationAdjust: set factor to 0.0554
ElecMinimize: Iter:  44  F: -2868.656787064021501  |grad|_K:  4.993e-08  alpha:  4.749e-01  linmin:  2.179e-07  t[s]:   3977.52
	FillingsUpdate:  mu: +0.220488360  nElectrons: 522.000000  magneticMoment: [ Abs: 0.00093  Tot: +0.00088 ]
	SubspaceRotationAdjust: set factor to 0.045
ElecMinimize: Iter:  45  F: -2868.656787228767826  |grad|_K:  5.095e-08  alpha:  2.758e-01  linmin: -1.118e-06  t[s]:   4036.14
	FillingsUpdate:  mu: +0.220494272  nElectrons: 522.000000  magneticMoment: [ Abs: 0.00093  Tot: +0.00089 ]
	SubspaceRotationAdjust: set factor to 0.0401
ElecMinimize: Iter:  46  F: -2868.656787406098829  |grad|_K:  3.710e-08  alpha:  2.849e-01  linmin:  1.220e-06  t[s]:   4095.13
	FillingsUpdate:  mu: +0.220496833  nElectrons: 522.000000  magneticMoment: [ Abs: 0.00094  Tot: +0.00089 ]
	SubspaceRotationAdjust: set factor to 0.0458
ElecMinimize: Iter:  47  F: -2868.656787561539204  |grad|_K:  3.004e-08  alpha:  4.709e-01  linmin:  4.017e-06  t[s]:   4153.61
	FillingsUpdate:  mu: +0.220478887  nElectrons: 522.000000  magneticMoment: [ Abs: 0.00095  Tot: +0.00090 ]
	SubspaceRotationAdjust: set factor to 0.0516
ElecMinimize: Iter:  48  F: -2868.656787669393907  |grad|_K:  2.575e-08  alpha:  4.992e-01  linmin: -2.297e-06  t[s]:   4212.12
	FillingsUpdate:  mu: +0.220478261  nElectrons: 522.000000  magneticMoment: [ Abs: 0.00095  Tot: +0.00090 ]
	SubspaceRotationAdjust: set factor to 0.05
ElecMinimize: Iter:  49  F: -2868.656787731415989  |grad|_K:  2.668e-08  alpha:  3.883e-01  linmin: -2.480e-06  t[s]:   4270.75
	FillingsUpdate:  mu: +0.220479214  nElectrons: 522.000000  magneticMoment: [ Abs: 0.00095  Tot: +0.00091 ]
	SubspaceRotationAdjust: set factor to 0.0417
ElecMinimize: Iter:  50  F: -2868.656787772642929  |grad|_K:  2.154e-08  alpha:  2.408e-01  linmin:  9.726e-07  t[s]:   4329.30
ElecMinimize: Converged (|Delta F|<1.000000e-07 for 2 iters).
Setting wave functions to eigenvectors of Hamiltonian
Converging empty states (this may take a while): |deigs|: 1.872e-03
Vacuum energy after initial minimize, F = -2868.656787772642929


-------- Electronic minimization -----------
	Linear fluid (dielectric constant: 78.4, screening length: 8.12261 Bohr) occupying 0.428908 of unit cell:	Completed after 26 iterations at t[s]:   4650.07
	FillingsUpdate:  mu: -0.191879682  nElectrons: 522.000000  magneticMoment: [ Abs: 0.00101  Tot: +0.00096 ]
ElecMinimize: Iter:   0  F: -2868.663734718993510  |grad|_K:  1.363e-06  alpha:  1.000e+00
	Linear fluid (dielectric constant: 78.4, screening length: 8.12261 Bohr) occupying 0.429628 of unit cell:	Completed after 20 iterations at t[s]:   4701.69
	Linear fluid (dielectric constant: 78.4, screening length: 8.12261 Bohr) occupying 0.429090 of unit cell:	Completed after 19 iterations at t[s]:   4721.25
	FillingsUpdate:  mu: -0.190914092  nElectrons: 522.000000  magneticMoment: [ Abs: 0.00101  Tot: +0.00097 ]
	SubspaceRotationAdjust: set factor to 0.0315
ElecMinimize: Iter:   1  F: -2868.663852317577039  |grad|_K:  8.037e-07  alpha:  2.638e-01  linmin:  9.403e-07  t[s]:   4744.44
	Linear fluid (dielectric constant: 78.4, screening length: 8.12261 Bohr) occupying 0.429292 of unit cell:	Completed after 11 iterations at t[s]:   4767.98
ElecMinimize: 	Predicted alpha/alphaT>3.000000, increasing alphaT to 7.914943e-01.
	Linear fluid (dielectric constant: 78.4, screening length: 8.12261 Bohr) occupying 0.429696 of unit cell:	Completed after 13 iterations at t[s]:   4786.45
	Linear fluid (dielectric constant: 78.4, screening length: 8.12261 Bohr) occupying 0.429748 of unit cell:	Completed after 8 iterations at t[s]:   4804.27
	FillingsUpdate:  mu: -0.190035474  nElectrons: 522.000000  magneticMoment: [ Abs: 0.00102  Tot: +0.00097 ]
	SubspaceRotationAdjust: set factor to 0.038
ElecMinimize: Iter:   2  F: -2868.663985518876871  |grad|_K:  6.557e-07  alpha:  8.589e-01  linmin: -3.105e-07  t[s]:   4827.41
	Linear fluid (dielectric constant: 78.4, screening length: 8.12261 Bohr) occupying 0.430323 of unit cell:	Completed after 13 iterations at t[s]:   4851.25
	Linear fluid (dielectric constant: 78.4, screening length: 8.12261 Bohr) occupying 0.430115 of unit cell:	Completed after 10 iterations at t[s]:   4869.34
	FillingsUpdate:  mu: -0.189658459  nElectrons: 522.000000  magneticMoment: [ Abs: 0.00102  Tot: +0.00097 ]
	SubspaceRotationAdjust: set factor to 0.045
ElecMinimize: Iter:   3  F: -2868.664042105664521  |grad|_K:  4.810e-07  alpha:  5.476e-01  linmin:  4.820e-08  t[s]:   4892.68
	Linear fluid (dielectric constant: 78.4, screening length: 8.12261 Bohr) occupying 0.430327 of unit cell:	Completed after 11 iterations at t[s]:   4916.28
	Linear fluid (dielectric constant: 78.4, screening length: 8.12261 Bohr) occupying 0.430348 of unit cell:	Completed after 7 iterations at t[s]:   4933.90
	FillingsUpdate:  mu: -0.189320624  nElectrons: 522.000000  magneticMoment: [ Abs: 0.00103  Tot: +0.00097 ]
	SubspaceRotationAdjust: set factor to 0.053
ElecMinimize: Iter:   4  F: -2868.664075499559203  |grad|_K:  4.218e-07  alpha:  6.008e-01  linmin: -2.250e-07  t[s]:   4957.56
	Linear fluid (dielectric constant: 78.4, screening length: 8.12261 Bohr) occupying 0.430523 of unit cell:	Completed after 14 iterations at t[s]:   4981.96
	Linear fluid (dielectric constant: 78.4, screening length: 8.12261 Bohr) occupying 0.430558 of unit cell:	Completed after 8 iterations at t[s]:   4999.67
	FillingsUpdate:  mu: -0.188588190  nElectrons: 522.000000  magneticMoment: [ Abs: 0.00103  Tot: +0.00098 ]
	SubspaceRotationAdjust: set factor to 0.0575
ElecMinimize: Iter:   5  F: -2868.664106342153900  |grad|_K:  4.345e-07  alpha:  7.202e-01  linmin: -3.049e-07  t[s]:   5022.88
	Linear fluid (dielectric constant: 78.4, screening length: 8.12261 Bohr) occupying 0.430750 of unit cell:	Completed after 12 iterations at t[s]:   5046.61
	Linear fluid (dielectric constant: 78.4, screening length: 8.12261 Bohr) occupying 0.430716 of unit cell:	Completed after 8 iterations at t[s]:   5064.44
	FillingsUpdate:  mu: -0.188449044  nElectrons: 522.000000  magneticMoment: [ Abs: 0.00104  Tot: +0.00098 ]
	SubspaceRotationAdjust: set factor to 0.0531
ElecMinimize: Iter:   6  F: -2868.664133068160481  |grad|_K:  4.885e-07  alpha:  5.882e-01  linmin: -9.201e-08  t[s]:   5087.72
	Linear fluid (dielectric constant: 78.4, screening length: 8.12261 Bohr) occupying 0.430909 of unit cell:	Completed after 15 iterations at t[s]:   5111.85
	Linear fluid (dielectric constant: 78.4, screening length: 8.12261 Bohr) occupying 0.430881 of unit cell:	Completed after 8 iterations at t[s]:   5129.64
	FillingsUpdate:  mu: -0.187943782  nElectrons: 522.000000  magneticMoment: [ Abs: 0.00105  Tot: +0.00099 ]
	SubspaceRotationAdjust: set factor to 0.0443
ElecMinimize: Iter:   7  F: -2868.664161849370885  |grad|_K:  4.283e-07  alpha:  5.017e-01  linmin: -6.331e-08  t[s]:   5152.87
	Linear fluid (dielectric constant: 78.4, screening length: 8.12261 Bohr) occupying 0.430981 of unit cell:	Completed after 10 iterations at t[s]:   5176.21
	Linear fluid (dielectric constant: 78.4, screening length: 8.12261 Bohr) occupying 0.431006 of unit cell:	Completed after 8 iterations at t[s]:   5194.23
	FillingsUpdate:  mu: -0.187716780  nElectrons: 522.000000  magneticMoment: [ Abs: 0.00106  Tot: +0.00100 ]
	SubspaceRotationAdjust: set factor to 0.0421
ElecMinimize: Iter:   8  F: -2868.664189780374272  |grad|_K:  3.645e-07  alpha:  6.330e-01  linmin: -2.615e-08  t[s]:   5217.61
	Linear fluid (dielectric constant: 78.4, screening length: 8.12261 Bohr) occupying 0.431080 of unit cell:	Completed after 10 iterations at t[s]:   5242.00
	Linear fluid (dielectric constant: 78.4, screening length: 8.12261 Bohr) occupying 0.431076 of unit cell:	Completed after 2 iterations at t[s]:   5259.27
	FillingsUpdate:  mu: -0.187626774  nElectrons: 522.000000  magneticMoment: [ Abs: 0.00106  Tot: +0.00101 ]
	SubspaceRotationAdjust: set factor to 0.0432
ElecMinimize: Iter:   9  F: -2868.664209019738337  |grad|_K:  2.949e-07  alpha:  6.025e-01  linmin:  5.594e-09  t[s]:   5282.64
	Linear fluid (dielectric constant: 78.4, screening length: 8.12261 Bohr) occupying 0.431106 of unit cell:	Completed after 10 iterations at t[s]:   5306.18
	Linear fluid (dielectric constant: 78.4, screening length: 8.12261 Bohr) occupying 0.431103 of unit cell:	Completed after 2 iterations at t[s]:   5322.89
	FillingsUpdate:  mu: -0.187486641  nElectrons: 522.000000  magneticMoment: [ Abs: 0.00107  Tot: +0.00102 ]
	SubspaceRotationAdjust: set factor to 0.0458
ElecMinimize: Iter:  10  F: -2868.664220250293965  |grad|_K:  2.369e-07  alpha:  5.377e-01  linmin: -2.844e-08  t[s]:   5346.29
	Linear fluid (dielectric constant: 78.4, screening length: 8.12261 Bohr) occupying 0.431118 of unit cell:	Completed after 8 iterations at t[s]:   5369.37
	Linear fluid (dielectric constant: 78.4, screening length: 8.12261 Bohr) occupying 0.431117 of unit cell:	Completed after 0 iterations at t[s]:   5385.82
	FillingsUpdate:  mu: -0.187385280  nElectrons: 522.000000  magneticMoment: [ Abs: 0.00108  Tot: +0.00102 ]
	SubspaceRotationAdjust: set factor to 0.0495
ElecMinimize: Iter:  11  F: -2868.664227213062077  |grad|_K:  1.865e-07  alpha:  5.160e-01  linmin:  6.379e-08  t[s]:   5409.17
	Linear fluid (dielectric constant: 78.4, screening length: 8.12261 Bohr) occupying 0.431124 of unit cell:	Completed after 8 iterations at t[s]:   5432.50
	Linear fluid (dielectric constant: 78.4, screening length: 8.12261 Bohr) occupying 0.431124 of unit cell:	Completed after 2 iterations at t[s]:   5449.15
	FillingsUpdate:  mu: -0.187398447  nElectrons: 522.000000  magneticMoment: [ Abs: 0.00108  Tot: +0.00103 ]
	SubspaceRotationAdjust: set factor to 0.0549
ElecMinimize: Iter:  12  F: -2868.664231894648310  |grad|_K:  1.512e-07  alpha:  5.603e-01  linmin: -4.407e-07  t[s]:   5472.32
	Linear fluid (dielectric constant: 78.4, screening length: 8.12261 Bohr) occupying 0.431134 of unit cell:	Completed after 7 iterations at t[s]:   5495.26
	Linear fluid (dielectric constant: 78.4, screening length: 8.12261 Bohr) occupying 0.431135 of unit cell:	Completed after 2 iterations at t[s]:   5511.96
	FillingsUpdate:  mu: -0.187297452  nElectrons: 522.000000  magneticMoment: [ Abs: 0.00109  Tot: +0.00104 ]
	SubspaceRotationAdjust: set factor to 0.0605
ElecMinimize: Iter:  13  F: -2868.664235271744474  |grad|_K:  1.331e-07  alpha:  6.115e-01  linmin: -1.525e-08  t[s]:   5535.20
	Linear fluid (dielectric constant: 78.4, screening length: 8.12261 Bohr) occupying 0.431147 of unit cell:	Completed after 8 iterations at t[s]:   5559.03
	Linear fluid (dielectric constant: 78.4, screening length: 8.12261 Bohr) occupying 0.431146 of unit cell:	Completed after 1 iterations at t[s]:   5575.66
	FillingsUpdate:  mu: -0.187385023  nElectrons: 522.000000  magneticMoment: [ Abs: 0.00110  Tot: +0.00104 ]
	SubspaceRotationAdjust: set factor to 0.0605
ElecMinimize: Iter:  14  F: -2868.664237763803158  |grad|_K:  1.277e-07  alpha:  5.849e-01  linmin:  5.351e-07  t[s]:   5598.87
	Linear fluid (dielectric constant: 78.4, screening length: 8.12261 Bohr) occupying 0.431166 of unit cell:	Completed after 9 iterations at t[s]:   5622.16
	Linear fluid (dielectric constant: 78.4, screening length: 8.12261 Bohr) occupying 0.431162 of unit cell:	Completed after 6 iterations at t[s]:   5639.52
	FillingsUpdate:  mu: -0.187322117  nElectrons: 522.000000  magneticMoment: [ Abs: 0.00110  Tot: +0.00105 ]
	SubspaceRotationAdjust: set factor to 0.0514
ElecMinimize: Iter:  15  F: -2868.664239544387328  |grad|_K:  1.195e-07  alpha:  4.595e-01  linmin: -1.017e-07  t[s]:   5662.91
	Linear fluid (dielectric constant: 78.4, screening length: 8.12261 Bohr) occupying 0.431176 of unit cell:	Completed after 7 iterations at t[s]:   5685.94
	Linear fluid (dielectric constant: 78.4, screening length: 8.12261 Bohr) occupying 0.431175 of unit cell:	Completed after 2 iterations at t[s]:   5702.89
	FillingsUpdate:  mu: -0.187343418  nElectrons: 522.000000  magneticMoment: [ Abs: 0.00111  Tot: +0.00106 ]
	SubspaceRotationAdjust: set factor to 0.0436
ElecMinimize: Iter:  16  F: -2868.664241021248472  |grad|_K:  9.530e-08  alpha:  4.300e-01  linmin:  1.599e-07  t[s]:   5726.17
	Linear fluid (dielectric constant: 78.4, screening length: 8.12261 Bohr) occupying 0.431189 of unit cell:	Completed after 6 iterations at t[s]:   5748.93
	Linear fluid (dielectric constant: 78.4, screening length: 8.12261 Bohr) occupying 0.431194 of unit cell:	Completed after 2 iterations at t[s]:   5765.65
	FillingsUpdate:  mu: -0.187365858  nElectrons: 522.000000  magneticMoment: [ Abs: 0.00112  Tot: +0.00106 ]
	SubspaceRotationAdjust: set factor to 0.0457
ElecMinimize: Iter:  17  F: -2868.664242293988082  |grad|_K:  7.455e-08  alpha:  5.838e-01  linmin: -5.242e-07  t[s]:   5788.92
	Linear fluid (dielectric constant: 78.4, screening length: 8.12261 Bohr) occupying 0.431208 of unit cell:	Completed after 2 iterations at t[s]:   5811.05
	Linear fluid (dielectric constant: 78.4, screening length: 8.12261 Bohr) occupying 0.431209 of unit cell:	Completed after 0 iterations at t[s]:   5827.32
	FillingsUpdate:  mu: -0.187354495  nElectrons: 522.000000  magneticMoment: [ Abs: 0.00113  Tot: +0.00107 ]
	SubspaceRotationAdjust: set factor to 0.0517
ElecMinimize: Iter:  18  F: -2868.664243146138688  |grad|_K:  6.248e-08  alpha:  6.321e-01  linmin: -2.120e-07  t[s]:   5850.81
	Linear fluid (dielectric constant: 78.4, screening length: 8.12261 Bohr) occupying 0.431222 of unit cell:	Completed after 2 iterations at t[s]:   5872.91
	Linear fluid (dielectric constant: 78.4, screening length: 8.12261 Bohr) occupying 0.431221 of unit cell:	Completed after 1 iterations at t[s]:   5889.53
	FillingsUpdate:  mu: -0.187344054  nElectrons: 522.000000  magneticMoment: [ Abs: 0.00114  Tot: +0.00108 ]
	SubspaceRotationAdjust: set factor to 0.0585
ElecMinimize: Iter:  19  F: -2868.664243690745025  |grad|_K:  5.410e-08  alpha:  5.812e-01  linmin: -1.094e-07  t[s]:   5912.96
	Linear fluid (dielectric constant: 78.4, screening length: 8.12261 Bohr) occupying 0.431232 of unit cell:	Completed after 3 iterations at t[s]:   5935.20
	Linear fluid (dielectric constant: 78.4, screening length: 8.12261 Bohr) occupying 0.431231 of unit cell:	Completed after 0 iterations at t[s]:   5951.61
	FillingsUpdate:  mu: -0.187346900  nElectrons: 522.000000  magneticMoment: [ Abs: 0.00114  Tot: +0.00109 ]
	SubspaceRotationAdjust: set factor to 0.0641
ElecMinimize: Iter:  20  F: -2868.664244073164809  |grad|_K:  4.837e-08  alpha:  5.425e-01  linmin:  6.950e-07  t[s]:   5974.94
	Linear fluid (dielectric constant: 78.4, screening length: 8.12261 Bohr) occupying 0.431238 of unit cell:	Completed after 4 iterations at t[s]:   5997.30
	Linear fluid (dielectric constant: 78.4, screening length: 8.12261 Bohr) occupying 0.431238 of unit cell:	Completed after 0 iterations at t[s]:   6013.67
	FillingsUpdate:  mu: -0.187335204  nElectrons: 522.000000  magneticMoment: [ Abs: 0.00115  Tot: +0.00109 ]
	SubspaceRotationAdjust: set factor to 0.0652
ElecMinimize: Iter:  21  F: -2868.664244365069408  |grad|_K:  4.318e-08  alpha:  5.258e-01  linmin:  1.161e-07  t[s]:   6037.06
	Linear fluid (dielectric constant: 78.4, screening length: 8.12261 Bohr) occupying 0.431243 of unit cell:	Completed after 5 iterations at t[s]:   6059.66
	Linear fluid (dielectric constant: 78.4, screening length: 8.12261 Bohr) occupying 0.431243 of unit cell:	Completed after 0 iterations at t[s]:   6075.95
	FillingsUpdate:  mu: -0.187318786  nElectrons: 522.000000  magneticMoment: [ Abs: 0.00116  Tot: +0.00110 ]
	SubspaceRotationAdjust: set factor to 0.0584
ElecMinimize: Iter:  22  F: -2868.664244579866136  |grad|_K:  4.143e-08  alpha:  4.798e-01  linmin:  1.892e-06  t[s]:   6099.21
	Linear fluid (dielectric constant: 78.4, screening length: 8.12261 Bohr) occupying 0.431245 of unit cell:	Completed after 6 iterations at t[s]:   6122.18
	Linear fluid (dielectric constant: 78.4, screening length: 8.12261 Bohr) occupying 0.431244 of unit cell:	Completed after 2 iterations at t[s]:   6138.87
	FillingsUpdate:  mu: -0.187340334  nElectrons: 522.000000  magneticMoment: [ Abs: 0.00117  Tot: +0.00111 ]
	SubspaceRotationAdjust: set factor to 0.0476
ElecMinimize: Iter:  23  F: -2868.664244731324288  |grad|_K:  3.327e-08  alpha:  3.850e-01  linmin: -1.375e-07  t[s]:   6162.33
	Linear fluid (dielectric constant: 78.4, screening length: 8.12261 Bohr) occupying 0.431245 of unit cell:	Completed after 2 iterations at t[s]:   6184.42
	Linear fluid (dielectric constant: 78.4, screening length: 8.12261 Bohr) occupying 0.431245 of unit cell:	Completed after 0 iterations at t[s]:   6200.72
	FillingsUpdate:  mu: -0.187333331  nElectrons: 522.000000  magneticMoment: [ Abs: 0.00118  Tot: +0.00112 ]
	SubspaceRotationAdjust: set factor to 0.0498
ElecMinimize: Iter:  24  F: -2868.664244855723609  |grad|_K:  2.500e-08  alpha:  4.644e-01  linmin: -3.552e-06  t[s]:   6224.00
	Linear fluid (dielectric constant: 78.4, screening length: 8.12261 Bohr) occupying 0.431245 of unit cell:	Completed after 3 iterations at t[s]:   6246.25
	Linear fluid (dielectric constant: 78.4, screening length: 8.12261 Bohr) occupying 0.431245 of unit cell:	Completed after 0 iterations at t[s]:   6262.63
	FillingsUpdate:  mu: -0.187328117  nElectrons: 522.000000  magneticMoment: [ Abs: 0.00118  Tot: +0.00112 ]
	SubspaceRotationAdjust: set factor to 0.0547
ElecMinimize: Iter:  25  F: -2868.664244928160770  |grad|_K:  2.307e-08  alpha:  4.622e-01  linmin: -6.112e-06  t[s]:   6285.80
	Linear fluid (dielectric constant: 78.4, screening length: 8.12261 Bohr) occupying 0.431243 of unit cell:	Completed after 2 iterations at t[s]:   6307.79
	Linear fluid (dielectric constant: 78.4, screening length: 8.12261 Bohr) occupying 0.431243 of unit cell:	Completed after 1 iterations at t[s]:   6324.52
	FillingsUpdate:  mu: -0.187346138  nElectrons: 522.000000  magneticMoment: [ Abs: 0.00119  Tot: +0.00113 ]
	SubspaceRotationAdjust: set factor to 0.0477
ElecMinimize: Iter:  26  F: -2868.664244973668247  |grad|_K:  1.932e-08  alpha:  3.393e-01  linmin:  3.569e-06  t[s]:   6347.86
ElecMinimize: Converged (|Delta F|<1.000000e-07 for 2 iters).
Setting wave functions to eigenvectors of Hamiltonian
Converging empty states (this may take a while): |deigs|: 6.020e-05
Single-point solvation energy estimate, DeltaF = -0.007457201025318

Computing DFT-D3 correction:
# coordination-number Pt 9.637 8.659 9.640 8.659 9.490 9.491 9.490 9.491 7.244 7.244 5.980 5.980 9.425 9.425 9.419 9.419 9.418 9.418 9.418 9.418 5.947 5.947 5.947 5.947 9.491 9.491 9.491 9.491 8.656 8.656 8.656 8.656
# coordination-number C 4.963
# coordination-number O 1.690
# diagonal-C6 Pt 336.87 336.87 336.87 336.87 336.87 336.87 336.87 336.87 336.87 336.87 336.87 336.87 336.87 336.87 336.87 336.87 336.87 336.87 336.87 336.87 336.87 336.87 336.87 336.87 336.87 336.87 336.87 336.87 336.87 336.87 336.87 336.87
# diagonal-C6 C 18.21
# diagonal-C6 O 10.76
EvdW_6 =   -0.272676
EvdW_8 =   -0.447911

# Ionic positions in cartesian coordinates:
ion Pt   0.000010000000000   7.399025000000001  48.561914000000009 0
ion Pt   0.000010000000000  14.798198000000001  48.561914000000009 0
ion Pt   5.232006000000000   7.399025000000001  48.561914000000009 0
ion Pt   5.232006000000000  14.798198000000001  48.561914000000009 0
ion Pt   0.000000000000000   0.000074000000000  43.164379000000004 0
ion Pt   0.000000000000000   7.399232000000001  43.164379000000004 0
ion Pt   5.231996000000000   0.000074000000000  43.164379000000004 0
ion Pt   5.231996000000000   7.399232000000001  43.164379000000004 0
ion Pt   2.615956000000000   3.699298000000001  50.876444000000006 0
ion Pt   2.615956000000000  11.098456000000002  50.876444000000006 0
ion Pt   7.847942000000001   3.699298000000001  50.876444000000006 0
ion Pt   7.847942000000001  11.098456000000002  50.876444000000006 0
ion Pt   2.616040000000000   3.699683000000001  45.754477999999999 0
ion Pt   2.616040000000000  11.098841000000002  45.754477999999999 0
ion Pt   7.848036000000000   3.699683000000001  45.754477999999999 0
ion Pt   7.848036000000000  11.098841000000002  45.754477999999999 0
ion Pt   5.231944000000000   0.000000000000000  37.958072999999999 0
ion Pt   5.231944000000000   7.399158000000001  37.958072999999999 0
ion Pt  10.463950000000001   0.000000000000000  37.958072999999999 0
ion Pt  10.463950000000001   7.399158000000001  37.958072999999999 0
ion Pt   0.000031000000000   0.000118000000000  32.835321000000000 0
ion Pt   0.000031000000000   7.399277000000001  32.835321000000000 0
ion Pt   5.232038000000001   0.000118000000000  32.835321000000000 0
ion Pt   5.232038000000001   7.399277000000001  32.835321000000000 0
ion Pt   2.615946000000000   3.699624000000000  40.547072999999997 0
ion Pt   2.615946000000000  11.098782000000002  40.547072999999997 0
ion Pt   7.847942000000001   3.699624000000000  40.547072999999997 0
ion Pt   7.847942000000001  11.098782000000002  40.547072999999997 0
ion Pt   2.616050000000000   3.699653000000000  35.149956000000003 0
ion Pt   2.616050000000000  11.098796999999999  35.149956000000003 0
ion Pt   7.848046000000001   3.699653000000000  35.149956000000003 0
ion Pt   7.848046000000001  11.098796999999999  35.149956000000003 0
ion C   2.615956000000000   7.398877000000001  51.516683000000008 1  Linear 0 0 1
ion O   2.676051000000001   7.398877000000001   1.352105000000000 1  Linear 0 0 1

# Forces in Cartesian coordinates:
force Pt  -0.027073966441540   0.000000083089968  -0.018698592713852 0
force Pt  -0.002292660521367  -0.000001470494500  -0.002120802860259 0
force Pt   0.027024398245206  -0.000000656552041  -0.019716274560882 0
force Pt   0.002397171733985  -0.000002358213216  -0.002165076830769 0
force Pt   0.000642532392329   0.000001271929143  -0.000407011972958 0
force Pt   0.000520764503269   0.000001550343254   0.000633564556709 0
force Pt  -0.000589710770765   0.000000889843614  -0.000362519610220 0
force Pt  -0.000506177599645   0.000001093293609   0.000448889186319 0
force Pt  -0.000393647207986  -0.051449713314130  -0.000606007715198 0
force Pt  -0.000394429319877   0.051457563497964  -0.000634629686563 0
force Pt  -0.000001377583758  -0.009192887245197  -0.001719025040101 0
force Pt  -0.000002166952926   0.009195689529134  -0.001720284642179 0
force Pt  -0.000007029602118  -0.005474253508805  -0.005481700761230 0
force Pt  -0.000007449634497   0.005458466465678  -0.005477025708841 0
force Pt   0.000015132995451   0.001814298435127  -0.002003365783962 0
force Pt   0.000015131824015  -0.001824128853226  -0.002001032236259 0
force Pt  -0.000353357513264   0.000004987799861  -0.000164039784840 0
force Pt   0.000014115785394   0.000005022546979  -0.000983885619523 0
force Pt   0.000328962196930   0.000005166267408  -0.000183428958127 0
force Pt  -0.000013710709996   0.000005283136879  -0.000982034501596 0
force Pt  -0.000120875777358   0.000008296110574   0.000476864552790 0
force Pt   0.000397834039357   0.000008134494471  -0.000804900540434 0
force Pt   0.000119867055595   0.000008229358476   0.000469233093537 0
force Pt  -0.000389601344871   0.000008102669814  -0.000763195736182 0
force Pt  -0.000004678295322   0.000664566970893  -0.000266040917218 0
force Pt  -0.000004304509067  -0.000673844417558  -0.000266538366713 0
force Pt   0.000004817311310  -0.000208057016702   0.000683412210762 0
force Pt   0.000004733496071   0.000203643235003   0.000683887950468 0
force Pt  -0.000007672624040  -0.000244586261612  -0.000663779596978 0
force Pt  -0.000007659063634   0.000237632174057  -0.000665079108227 0
force Pt   0.000008562798339   0.000348282830182   0.000304300491852 0
force Pt   0.000008558685161  -0.000351557541023   0.000304415388260 0
force C  -0.002482090209898   0.000000609230132  -0.122616047539898 1  Linear 0 0 1
force O   0.003138847243990  -0.000013281798081   0.187918515747882 1  Linear 0 0 1

# Energy components:
   A_diel =       -0.0080735269265569
   Eewald =    14553.9631497743448563
       EH =    17194.8758226996396843
     Eloc =   -35120.5056353266190854
      Enl =      -30.6493219392160796
     EvdW =       -0.7205869600352296
      Exc =     -916.0643921717392004
 Exc_core =      524.6228916441151569
       KE =      925.8281572094474541
-------------------------------------
     Etot =    -2868.6579885969867973
       TS =        0.0062563766812344
-------------------------------------
        F =    -2868.6642449736682465


Dumping 'jdft.fillings' ... done
Dumping 'jdft.wfns' ... done
Dumping 'jdft.fluidState' ... done
Dumping 'jdft.ionpos' ... done
Dumping 'jdft.lattice' ... done
Dumping 'jdft.eigenvals' ... done
Dumping 'jdft.eigStats' ... 
	eMin: -2.144463 at state 0 ( [ +0.000000 +0.000000 +0.000000 ] spin 1 )
	HOMO: -0.187359 at state 11 ( [ +0.000000 +0.000000 +0.000000 ] spin -1 )
	mu  : -0.187346
	LUMO: -0.187126 at state 2 ( [ +0.000000 +0.500000 +0.000000 ] spin 1 )
	eMax: +0.111952 at state 18 ( [ +0.400000 +0.000000 +0.000000 ] spin -1 )
	HOMO-LUMO gap: +0.000233
	Optical gap  : +0.000334 at state 17 ( [ +0.200000 -0.250000 +0.000000 ] spin -1 )
Dumping 'jdft.Ecomponents' ... done
IonicMinimize: Iter:   0  F: -2868.664244973668247  |grad|_K:  1.587e-01  t[s]:   6667.90

#--- Lowdin population analysis ---
# oxidation-state Pt -0.048 -0.068 -0.048 -0.069 +0.008 -0.001 +0.007 -0.001 +0.032 +0.032 +0.071 +0.071 +0.002 +0.002 -0.004 -0.004 +0.008 +0.006 +0.008 +0.006 +0.079 +0.075 +0.079 +0.076 +0.008 +0.008 +0.009 +0.009 -0.043 -0.043 -0.042 -0.042
# magnetic-moments Pt +0.000 +0.000 +0.000 +0.000 +0.000 +0.000 +0.000 +0.000 +0.000 +0.000 +0.000 +0.000 +0.000 +0.000 +0.000 +0.000 +0.000 +0.000 +0.000 +0.000 +0.000 +0.000 +0.000 +0.000 +0.000 +0.000 +0.000 +0.000 +0.000 +0.000 +0.000 +0.000
# oxidation-state C +0.367
# magnetic-moments C -0.000
# oxidation-state O -0.122
# magnetic-moments O +0.000


Computing DFT-D3 correction:
# coordination-number Pt 9.642 8.659 9.644 8.659 9.490 9.491 9.490 9.491 7.204 7.204 5.980 5.980 9.426 9.425 9.419 9.419 9.418 9.418 9.418 9.418 5.947 5.947 5.947 5.947 9.491 9.491 9.491 9.491 8.656 8.656 8.656 8.656
# coordination-number C 4.985
# coordination-number O 1.600
# diagonal-C6 Pt 336.87 336.87 336.87 336.87 336.87 336.87 336.87 336.87 336.87 336.87 336.87 336.87 336.87 336.87 336.87 336.87 336.87 336.87 336.87 336.87 336.87 336.87 336.87 336.87 336.87 336.87 336.87 336.87 336.87 336.87 336.87 336.87
# diagonal-C6 C 18.21
# diagonal-C6 O 11.06
EvdW_6 =   -0.272678
EvdW_8 =   -0.447983

-------- Electronic minimization -----------
	Linear fluid (dielectric constant: 78.4, screening length: 8.12261 Bohr) occupying 0.431118 of unit cell:	Completed after 21 iterations at t[s]:   6694.10
	FillingsUpdate:  mu: -0.180200157  nElectrons: 522.000000  magneticMoment: [ Abs: 0.00126  Tot: +0.00120 ]
ElecMinimize: Iter:   0  F: -2868.566982159007239  |grad|_K:  3.345e-05  alpha:  1.000e+00
	Linear fluid (dielectric constant: 78.4, screening length: 8.12261 Bohr) occupying 0.431030 of unit cell:	Completed after 23 iterations at t[s]:   6747.19
	Linear fluid (dielectric constant: 78.4, screening length: 8.12261 Bohr) occupying 0.431015 of unit cell:	Completed after 22 iterations at t[s]:   6766.99
	FillingsUpdate:  mu: -0.185090016  nElectrons: 522.000000  magneticMoment: [ Abs: 0.00126  Tot: +0.00120 ]
	SubspaceRotationAdjust: set factor to 0.0457
ElecMinimize: Iter:   1  F: -2868.664647226500165  |grad|_K:  9.964e-06  alpha:  3.725e-01  linmin:  1.643e-02  t[s]:   6790.48
	Linear fluid (dielectric constant: 78.4, screening length: 8.12261 Bohr) occupying 0.430971 of unit cell:	Completed after 19 iterations at t[s]:   6815.55
	Linear fluid (dielectric constant: 78.4, screening length: 8.12261 Bohr) occupying 0.430970 of unit cell:	Completed after 13 iterations at t[s]:   6834.00
	FillingsUpdate:  mu: -0.186254771  nElectrons: 522.000000  magneticMoment: [ Abs: 0.00127  Tot: +0.00120 ]
	SubspaceRotationAdjust: set factor to 0.0388
ElecMinimize: Iter:   2  F: -2868.671689330637491  |grad|_K:  4.320e-06  alpha:  3.021e-01  linmin: -4.137e-04  t[s]:   6857.43
	Linear fluid (dielectric constant: 78.4, screening length: 8.12261 Bohr) occupying 0.430904 of unit cell:	Completed after 19 iterations at t[s]:   6882.31
	Linear fluid (dielectric constant: 78.4, screening length: 8.12261 Bohr) occupying 0.430881 of unit cell:	Completed after 15 iterations at t[s]:   6901.39
	FillingsUpdate:  mu: -0.188653864  nElectrons: 522.000000  magneticMoment: [ Abs: 0.00127  Tot: +0.00121 ]
	SubspaceRotationAdjust: set factor to 0.0331
ElecMinimize: Iter:   3  F: -2868.673519950323680  |grad|_K:  2.664e-06  alpha:  4.078e-01  linmin: -4.961e-05  t[s]:   6924.51
	Linear fluid (dielectric constant: 78.4, screening length: 8.12261 Bohr) occupying 0.430834 of unit cell:	Completed after 14 iterations at t[s]:   6948.69
	Linear fluid (dielectric constant: 78.4, screening length: 8.12261 Bohr) occupying 0.430832 of unit cell:	Completed after 8 iterations at t[s]:   6966.46
	FillingsUpdate:  mu: -0.188677487  nElectrons: 522.000000  magneticMoment: [ Abs: 0.00127  Tot: +0.00121 ]
	SubspaceRotationAdjust: set factor to 0.0342
ElecMinimize: Iter:   4  F: -2868.674248675648414  |grad|_K:  1.722e-06  alpha:  4.272e-01  linmin: -2.915e-05  t[s]:   6989.79
	Linear fluid (dielectric constant: 78.4, screening length: 8.12261 Bohr) occupying 0.430769 of unit cell:	Completed after 13 iterations at t[s]:   7013.71
	Linear fluid (dielectric constant: 78.4, screening length: 8.12261 Bohr) occupying 0.430753 of unit cell:	Completed after 8 iterations at t[s]:   7031.45
	FillingsUpdate:  mu: -0.189441713  nElectrons: 522.000000  magneticMoment: [ Abs: 0.00127  Tot: +0.00121 ]
	SubspaceRotationAdjust: set factor to 0.0431
[...]
force O  -0.000687085494128  -0.000001936428735  -0.000174576939444 1  Linear 0 0 1

# Energy components:
   A_diel =       -0.0080260954988890
   Eewald =    14394.5737947919187718
       EH =    17034.4683902348042466
     Eloc =   -34800.0870840877469163
      Enl =      -30.7030949165391327
     EvdW =       -0.7195606959447234
      Exc =     -915.7401169034880013
 Exc_core =      524.6228786857443538
       KE =      924.8864639035176651
-------------------------------------
     Etot =    -2868.7063550832340297
       TS =        0.0064592081023805
-------------------------------------
        F =    -2868.7128142913365991


Dumping 'jdft.fillings' ... done
Dumping 'jdft.wfns' ... done
Dumping 'jdft.fluidState' ... done
Dumping 'jdft.ionpos' ... done
Dumping 'jdft.lattice' ... done
Dumping 'jdft.eigenvals' ... done
Dumping 'jdft.eigStats' ... 
	eMin: -2.139132 at state 0 ( [ +0.000000 +0.000000 +0.000000 ] spin 1 )
	HOMO: -0.190063 at state 14 ( [ +0.200000 +0.000000 +0.000000 ] spin -1 )
	mu  : -0.190028
	LUMO: -0.189899 at state 0 ( [ +0.000000 +0.000000 +0.000000 ] spin 1 )
	eMax: +0.109734 at state 18 ( [ +0.400000 +0.000000 +0.000000 ] spin -1 )
	HOMO-LUMO gap: +0.000164
	Optical gap  : +0.000346 at state 4 ( [ +0.200000 +0.250000 +0.000000 ] spin 1 )
Dumping 'jdft.Ecomponents' ... done
IonicMinimize: Iter:  15  F: -2868.712814291336599  |grad|_K:  1.472e-04  alpha:  1.000e+00  linmin:  4.224e-03  t[s]:  46697.31

#--- Lowdin population analysis ---
# oxidation-state Pt -0.045 -0.059 -0.045 -0.059 +0.008 +0.008 +0.008 +0.008 -0.026 -0.026 +0.071 +0.071 +0.001 +0.001 +0.003 +0.003 +0.008 +0.007 +0.008 +0.007 +0.081 +0.084 +0.081 +0.084 +0.007 +0.007 +0.008 +0.008 -0.043 -0.043 -0.042 -0.042
# magnetic-moments Pt +0.002 +0.002 +0.002 +0.002 +0.002 +0.003 +0.002 +0.003 +0.003 +0.003 +0.004 +0.004 +0.003 +0.003 +0.004 +0.004 +0.003 +0.004 +0.003 +0.004 +0.004 +0.005 +0.004 +0.005 +0.003 +0.003 +0.003 +0.003 +0.002 +0.002 +0.002 +0.002
# oxidation-state C +0.417
# magnetic-moments C -0.000
# oxidation-state O -0.144
# magnetic-moments O +0.000


Computing DFT-D3 correction:
# coordination-number Pt 8.896 8.658 8.896 8.658 9.490 9.490 9.490 9.490 6.839 6.839 5.966 5.966 9.419 9.419 9.418 9.418 9.418 9.418 9.418 9.418 5.947 5.947 5.947 5.947 9.491 9.491 9.491 9.491 8.656 8.656 8.656 8.656
# coordination-number C 3.244
# coordination-number O 1.070
# diagonal-C6 Pt 336.87 336.87 336.87 336.87 336.87 336.87 336.87 336.87 336.87 336.87 336.87 336.87 336.87 336.87 336.87 336.87 336.87 336.87 336.87 336.87 336.87 336.87 336.87 336.87 336.87 336.87 336.87 336.87 336.87 336.87 336.87 336.87
# diagonal-C6 C 24.75
# diagonal-C6 O 12.75
EvdW_6 =   -0.272581
EvdW_8 =   -0.446977

-------- Electronic minimization -----------
	Linear fluid (dielectric constant: 78.4, screening length: 8.12261 Bohr) occupying 0.420105 of unit cell:	Completed after 11 iterations at t[s]:  46724.45
	FillingsUpdate:  mu: -0.189804427  nElectrons: 522.000000  magneticMoment: [ Abs: 0.10700  Tot: +0.10172 ]
ElecMinimize: Iter:   0  F: -2868.712801627181307  |grad|_K:  4.409e-07  alpha:  1.000e+00
	Linear fluid (dielectric constant: 78.4, screening length: 8.12261 Bohr) occupying 0.420036 of unit cell:	Completed after 18 iterations at t[s]:  46775.49
	Linear fluid (dielectric constant: 78.4, screening length: 8.12261 Bohr) occupying 0.420092 of unit cell:	Completed after 18 iterations at t[s]:  46794.88
	FillingsUpdate:  mu: -0.190314089  nElectrons: 522.000000  magneticMoment: [ Abs: 0.10712  Tot: +0.10180 ]
	SubspaceRotationAdjust: set factor to 0.0392
ElecMinimize: Iter:   1  F: -2868.712809540753369  |grad|_K:  1.685e-07  alpha:  1.697e-01  linmin:  2.253e-04  t[s]:  46817.99
	Linear fluid (dielectric constant: 78.4, screening length: 8.12261 Bohr) occupying 0.420093 of unit cell:	Completed after 7 iterations at t[s]:  46840.83
	Linear fluid (dielectric constant: 78.4, screening length: 8.12261 Bohr) occupying 0.420094 of unit cell:	Completed after 6 iterations at t[s]:  46858.15
	FillingsUpdate:  mu: -0.190299887  nElectrons: 522.000000  magneticMoment: [ Abs: 0.10732  Tot: +0.10192 ]
	SubspaceRotationAdjust: set factor to 0.0315
ElecMinimize: Iter:   2  F: -2868.712811525415873  |grad|_K:  8.138e-08  alpha:  2.925e-01  linmin:  8.199e-04  t[s]:  46881.45
	Linear fluid (dielectric constant: 78.4, screening length: 8.12261 Bohr) occupying 0.420093 of unit cell:	Completed after 6 iterations at t[s]:  46904.05
	Linear fluid (dielectric constant: 78.4, screening length: 8.12261 Bohr) occupying 0.420093 of unit cell:	Completed after 2 iterations at t[s]:  46921.23
	FillingsUpdate:  mu: -0.190164954  nElectrons: 522.000000  magneticMoment: [ Abs: 0.10751  Tot: +0.10204 ]
	SubspaceRotationAdjust: set factor to 0.0417
ElecMinimize: Iter:   3  F: -2868.712812108434719  |grad|_K:  4.523e-08  alpha:  3.687e-01  linmin: -8.636e-04  t[s]:  46945.02
	Linear fluid (dielectric constant: 78.4, screening length: 8.12261 Bohr) occupying 0.420093 of unit cell:	Completed after 5 iterations at t[s]:  46967.50
	Linear fluid (dielectric constant: 78.4, screening length: 8.12261 Bohr) occupying 0.420092 of unit cell:	Completed after 2 iterations at t[s]:  46984.34
	FillingsUpdate:  mu: -0.190154695  nElectrons: 522.000000  magneticMoment: [ Abs: 0.10774  Tot: +0.10220 ]
	SubspaceRotationAdjust: set factor to 0.0461
ElecMinimize: Iter:   4  F: -2868.712812388293059  |grad|_K:  3.885e-08  alpha:  5.543e-01  linmin: -2.307e-03  t[s]:  47007.75
	Linear fluid (dielectric constant: 78.4, screening length: 8.12261 Bohr) occupying 0.420094 of unit cell:	Completed after 3 iterations at t[s]:  47030.10
	Linear fluid (dielectric constant: 78.4, screening length: 8.12261 Bohr) occupying 0.420094 of unit cell:	Completed after 0 iterations at t[s]:  47046.40
	FillingsUpdate:  mu: -0.190161723  nElectrons: 522.000000  magneticMoment: [ Abs: 0.10810  Tot: +0.10249 ]
	SubspaceRotationAdjust: set factor to 0.0541
ElecMinimize: Iter:   5  F: -2868.712812627477888  |grad|_K:  4.249e-08  alpha:  6.275e-01  linmin: -8.944e-04  t[s]:  47069.64
	Linear fluid (dielectric constant: 78.4, screening length: 8.12261 Bohr) occupying 0.420097 of unit cell:	Completed after 3 iterations at t[s]:  47091.92
	Linear fluid (dielectric constant: 78.4, screening length: 8.12261 Bohr) occupying 0.420098 of unit cell:	Completed after 2 iterations at t[s]:  47108.72
	FillingsUpdate:  mu: -0.190108311  nElectrons: 522.000000  magneticMoment: [ Abs: 0.10891  Tot: +0.10319 ]
	SubspaceRotationAdjust: set factor to 0.064
ElecMinimize: Iter:   6  F: -2868.712813011316030  |grad|_K:  5.366e-08  alpha:  8.482e-01  linmin: -1.343e-04  t[s]:  47132.05
	Linear fluid (dielectric constant: 78.4, screening length: 8.12261 Bohr) occupying 0.420101 of unit cell:	Completed after 7 iterations at t[s]:  47154.99
	Linear fluid (dielectric constant: 78.4, screening length: 8.12261 Bohr) occupying 0.420099 of unit cell:	Completed after 7 iterations at t[s]:  47172.53
	FillingsUpdate:  mu: -0.190045418  nElectrons: 522.000000  magneticMoment: [ Abs: 0.10972  Tot: +0.10392 ]
	SubspaceRotationAdjust: set factor to 0.0592
ElecMinimize: Iter:   7  F: -2868.712813323131741  |grad|_K:  6.192e-08  alpha:  4.486e-01  linmin:  4.719e-05  t[s]:  47195.72
	Linear fluid (dielectric constant: 78.4, screening length: 8.12261 Bohr) occupying 0.420105 of unit cell:	Completed after 7 iterations at t[s]:  47218.70
	Linear fluid (dielectric constant: 78.4, screening length: 8.12261 Bohr) occupying 0.420104 of unit cell:	Completed after 0 iterations at t[s]:  47235.03
	FillingsUpdate:  mu: -0.190028869  nElectrons: 522.000000  magneticMoment: [ Abs: 0.11081  Tot: +0.10494 ]
	SubspaceRotationAdjust: set factor to 0.0555
ElecMinimize: Iter:   8  F: -2868.712813690932762  |grad|_K:  5.629e-08  alpha:  3.984e-01  linmin:  3.634e-04  t[s]:  47258.32
	Linear fluid (dielectric constant: 78.4, screening length: 8.12261 Bohr) occupying 0.420107 of unit cell:	Completed after 2 iterations at t[s]:  47280.45
	Linear fluid (dielectric constant: 78.4, screening length: 8.12261 Bohr) occupying 0.420108 of unit cell:	Completed after 0 iterations at t[s]:  47296.85
	FillingsUpdate:  mu: -0.190025695  nElectrons: 522.000000  magneticMoment: [ Abs: 0.11217  Tot: +0.10626 ]
	SubspaceRotationAdjust: set factor to 0.0631
ElecMinimize: Iter:   9  F: -2868.712814082172827  |grad|_K:  4.522e-08  alpha:  5.286e-01  linmin: -3.663e-04  t[s]:  47320.10
	Linear fluid (dielectric constant: 78.4, screening length: 8.12261 Bohr) occupying 0.420107 of unit cell:	Completed after 5 iterations at t[s]:  47342.91
	Linear fluid (dielectric constant: 78.4, screening length: 8.12261 Bohr) occupying 0.420107 of unit cell:	Completed after 0 iterations at t[s]:  47359.17
	FillingsUpdate:  mu: -0.190011477  nElectrons: 522.000000  magneticMoment: [ Abs: 0.11316  Tot: +0.10725 ]
	SubspaceRotationAdjust: set factor to 0.0622
ElecMinimize: Iter:  10  F: -2868.712814338509361  |grad|_K:  4.288e-08  alpha:  5.085e-01  linmin: -1.644e-04  t[s]:  47382.46
	Linear fluid (dielectric constant: 78.4, screening length: 8.12261 Bohr) occupying 0.420106 of unit cell:	Completed after 6 iterations at t[s]:  47405.32
	Linear fluid (dielectric constant: 78.4, screening length: 8.12261 Bohr) occupying 0.420106 of unit cell:	Completed after 3 iterations at t[s]:  47422.29
	FillingsUpdate:  mu: -0.190001100  nElectrons: 522.000000  magneticMoment: [ Abs: 0.11380  Tot: +0.10789 ]
	SubspaceRotationAdjust: set factor to 0.0515
ElecMinimize: Iter:  11  F: -2868.712814470654394  |grad|_K:  3.399e-08  alpha:  2.970e-01  linmin:  6.540e-04  t[s]:  47445.63
	Linear fluid (dielectric constant: 78.4, screening length: 8.12261 Bohr) occupying 0.420104 of unit cell:	Completed after 2 iterations at t[s]:  47467.67
	Linear fluid (dielectric constant: 78.4, screening length: 8.12261 Bohr) occupying 0.420104 of unit cell:	Completed after 3 iterations at t[s]:  47484.71
	FillingsUpdate:  mu: -0.190028626  nElectrons: 522.000000  magneticMoment: [ Abs: 0.11453  Tot: +0.10862 ]
	SubspaceRotationAdjust: set factor to 0.0542
ElecMinimize: Iter:  12  F: -2868.712814581898328  |grad|_K:  2.566e-08  alpha:  4.176e-01  linmin: -3.551e-04  t[s]:  47507.93
	Linear fluid (dielectric constant: 78.4, screening length: 8.12261 Bohr) occupying 0.420102 of unit cell:	Completed after 1 iterations at t[s]:  47529.92
	Linear fluid (dielectric constant: 78.4, screening length: 8.12261 Bohr) occupying 0.420102 of unit cell:	Completed after 0 iterations at t[s]:  47547.09
	FillingsUpdate:  mu: -0.190027055  nElectrons: 522.000000  magneticMoment: [ Abs: 0.11515  Tot: +0.10922 ]
	SubspaceRotationAdjust: set factor to 0.0656
ElecMinimize: Iter:  13  F: -2868.712814655399598  |grad|_K:  1.979e-08  alpha:  4.596e-01  linmin: -3.951e-04  t[s]:  47570.37
	Linear fluid (dielectric constant: 78.4, screening length: 8.12261 Bohr) occupying 0.420100 of unit cell:	Completed after 2 iterations at t[s]:  47592.45
	Linear fluid (dielectric constant: 78.4, screening length: 8.12261 Bohr) occupying 0.420100 of unit cell:	Completed after 0 iterations at t[s]:  47608.79
	FillingsUpdate:  mu: -0.190023402  nElectrons: 522.000000  magneticMoment: [ Abs: 0.11573  Tot: +0.10978 ]
	SubspaceRotationAdjust: set factor to 0.0734
ElecMinimize: Iter:  14  F: -2868.712814702962532  |grad|_K:  1.733e-08  alpha:  4.940e-01  linmin: -7.922e-04  t[s]:  47632.15
ElecMinimize: Converged (|Delta F|<1.000000e-07 for 2 iters).
Setting wave functions to eigenvectors of Hamiltonian
Converging empty states (this may take a while): |deigs|: 3.589e-09

Computing DFT-D3 correction:
# coordination-number Pt 8.896 8.658 8.896 8.658 9.490 9.490 9.490 9.490 6.839 6.839 5.966 5.966 9.419 9.419 9.418 9.418 9.418 9.418 9.418 9.418 5.947 5.947 5.947 5.947 9.491 9.491 9.491 9.491 8.656 8.656 8.656 8.656
# coordination-number C 3.244
# coordination-number O 1.070
# diagonal-C6 Pt 336.87 336.87 336.87 336.87 336.87 336.87 336.87 336.87 336.87 336.87 336.87 336.87 336.87 336.87 336.87 336.87 336.87 336.87 336.87 336.87 336.87 336.87 336.87 336.87 336.87 336.87 336.87 336.87 336.87 336.87 336.87 336.87
# diagonal-C6 C 24.75
# diagonal-C6 O 12.75
EvdW_6 =   -0.272581
EvdW_8 =   -0.446977

# Ionic positions in cartesian coordinates:
ion Pt   0.000010000000000   7.399025000000001  48.561914000000009 0
ion Pt   0.000010000000000  14.798198000000001  48.561914000000009 0
ion Pt   5.232006000000000   7.399025000000001  48.561914000000009 0
ion Pt   5.232006000000000  14.798198000000001  48.561914000000009 0
ion Pt   0.000000000000000   0.000074000000000  43.164379000000004 0
ion Pt   0.000000000000000   7.399232000000001  43.164379000000004 0
ion Pt   5.231996000000000   0.000074000000000  43.164379000000004 0
ion Pt   5.231996000000000   7.399232000000001  43.164379000000004 0
ion Pt   2.615956000000000   3.699298000000001  50.876444000000006 0
ion Pt   2.615956000000000  11.098456000000002  50.876444000000006 0
ion Pt   7.847942000000001   3.699298000000001  50.876444000000006 0
ion Pt   7.847942000000001  11.098456000000002  50.876444000000006 0
ion Pt   2.616040000000000   3.699683000000001  45.754477999999999 0
ion Pt   2.616040000000000  11.098841000000002  45.754477999999999 0
ion Pt   7.848036000000000   3.699683000000001  45.754477999999999 0
ion Pt   7.848036000000000  11.098841000000002  45.754477999999999 0
ion Pt   5.231944000000000   0.000000000000000  37.958072999999999 0
ion Pt   5.231944000000000   7.399158000000001  37.958072999999999 0
ion Pt  10.463950000000001   0.000000000000000  37.958072999999999 0
ion Pt  10.463950000000001   7.399158000000001  37.958072999999999 0
ion Pt   0.000031000000000   0.000118000000000  32.835321000000000 0
ion Pt   0.000031000000000   7.399277000000001  32.835321000000000 0
ion Pt   5.232038000000001   0.000118000000000  32.835321000000000 0
ion Pt   5.232038000000001   7.399277000000001  32.835321000000000 0
ion Pt   2.615946000000000   3.699624000000000  40.547072999999997 0
ion Pt   2.615946000000000  11.098782000000002  40.547072999999997 0
ion Pt   7.847942000000001   3.699624000000000  40.547072999999997 0
ion Pt   7.847942000000001  11.098782000000002  40.547072999999997 0
ion Pt   2.616050000000000   3.699653000000000  35.149956000000003 0
ion Pt   2.616050000000000  11.098796999999999  35.149956000000003 0
ion Pt   7.848046000000001   3.699653000000000  35.149956000000003 0
ion Pt   7.848046000000001  11.098796999999999  35.149956000000003 0
ion C   2.615956000000000   7.398877000000001  52.920300274760301 1  Linear 0 0 1
ion O   2.676051000000001   7.398877000000001   2.836230194269184 1  Linear 0 0 1

# Forces in Cartesian coordinates:
force Pt  -0.009565596611277   0.000000258365381  -0.011890573241781 0
force Pt   0.000885337703696  -0.000001718573536   0.000805881833630 0
force Pt   0.009438044088288   0.000000176182881  -0.011638251853550 0
force Pt  -0.000977416343855  -0.000001931752796   0.000955660276245 0
force Pt   0.000674583365008   0.000000887935995   0.000055275510217 0
force Pt   0.001944689525705   0.000001068493238   0.000324267434164 0
force Pt  -0.000652826233873   0.000000736245376   0.000080412893670 0
force Pt  -0.001953190513650   0.000000964618451   0.000281439132679 0
force Pt  -0.000237082327540   0.023824181203752   0.016738974258391 0
force Pt  -0.000237706815628  -0.023823607742469   0.016721176522092 0
force Pt   0.000011596230602  -0.005690071634777  -0.000285364488378 0
force Pt   0.000011141276470   0.005690498495767  -0.000285039678714 0
force Pt   0.000006609753238  -0.003052691202078  -0.005321036292125 0
force Pt   0.000006309471444   0.003039813225921  -0.005319101566916 0
force Pt  -0.000016374904739   0.002079649215085   0.000027250055616 0
force Pt  -0.000016353100913  -0.002087429319962   0.000026312366327 0
force Pt  -0.000502470041349   0.000004488635348   0.000682646794762 0
force Pt  -0.000170509578005   0.000005114675020  -0.000064977359199 0
force Pt   0.000504293316798   0.000004532338547   0.000687435823664 0
force Pt   0.000168949624012   0.000005184838097  -0.000048337662427 0
force Pt   0.000166573514178   0.000008448195904  -0.000289540897579 0
force Pt   0.000258427893085   0.000008135504962   0.000183596463924 0
force Pt  -0.000162927803298   0.000008392031205  -0.000291682714826 0
force Pt  -0.000260208309930   0.000008175375683   0.000193004309709 0
force Pt   0.000003517310594   0.000193111042967  -0.001146721770414 0
force Pt   0.000003829627991  -0.000203478878966  -0.001148324815753 0
force Pt   0.000003601836552  -0.000685180283355   0.000795342013957 0
force Pt   0.000003575938364   0.000681618939610   0.000795817420775 0
force Pt  -0.000006200748750  -0.000265888102984  -0.000439144722955 0
force Pt  -0.000006180646888   0.000258385633996  -0.000440270818401 0
force Pt   0.000004754491397  -0.000053835127239   0.000005653003031 0
force Pt   0.000004732127393   0.000051387483474   0.000005342625836 0
force C   0.001324485085103  -0.000002597368051  -0.000009767440124 1  Linear 0 0 1
force O  -0.000654773346896  -0.000002101691963   0.000013130394638 1  Linear 0 0 1

# Energy components:
   A_diel =       -0.0080335249142128
   Eewald =    14395.1007462406996638
       EH =    17035.0005386050906964
     Eloc =   -34801.1471675488792243
      Enl =      -30.7030632769342162
     EvdW =       -0.7195581365594288
      Exc =     -915.7407585152070624
 Exc_core =      524.6228796168761619
       KE =      924.8880608130311884
-------------------------------------
     Etot =    -2868.7063557267974829
       TS =        0.0064589761649546
-------------------------------------
        F =    -2868.7128147029625325


Dumping 'jdft.fillings' ... done
Dumping 'jdft.wfns' ... done
Dumping 'jdft.fluidState' ... done
Dumping 'jdft.ionpos' ... done
Dumping 'jdft.lattice' ... done
Dumping 'jdft.eigenvals' ... done
Dumping 'jdft.eigStats' ... 
	eMin: -2.139121 at state 0 ( [ +0.000000 +0.000000 +0.000000 ] spin 1 )
	HOMO: -0.190055 at state 14 ( [ +0.200000 +0.000000 +0.000000 ] spin -1 )
	mu  : -0.190023
	LUMO: -0.189903 at state 0 ( [ +0.000000 +0.000000 +0.000000 ] spin 1 )
	eMax: +0.109751 at state 18 ( [ +0.400000 +0.000000 +0.000000 ] spin -1 )
	HOMO-LUMO gap: +0.000153
	Optical gap  : +0.000347 at state 4 ( [ +0.200000 +0.250000 +0.000000 ] spin 1 )
Dumping 'jdft.Ecomponents' ... done
IonicMinimize: Iter:  16  F: -2868.712814702962532  |grad|_K:  1.157e-05  alpha:  1.000e+00  linmin:  4.685e-05  t[s]:  47696.05
IonicMinimize: Converged (|grad|_K<1.000000e-04).

#--- Lowdin population analysis ---
# oxidation-state Pt -0.044 -0.058 -0.045 -0.058 +0.009 +0.009 +0.009 +0.009 -0.026 -0.026 +0.071 +0.071 +0.002 +0.002 +0.005 +0.005 +0.008 +0.007 +0.008 +0.007 +0.080 +0.082 +0.080 +0.082 +0.008 +0.008 +0.008 +0.008 -0.044 -0.044 -0.043 -0.043
# magnetic-moments Pt +0.002 +0.002 +0.002 +0.002 +0.003 +0.003 +0.003 +0.003 +0.003 +0.003 +0.004 +0.004 +0.004 +0.004 +0.004 +0.004 +0.004 +0.005 +0.004 +0.005 +0.004 +0.006 +0.004 +0.006 +0.003 +0.003 +0.003 +0.003 +0.003 +0.003 +0.002 +0.002
# oxidation-state C +0.417
# magnetic-moments C -0.000
# oxidation-state O -0.145
# magnetic-moments O +0.000


Dumping 'jdft.n_up' ... done
Dumping 'jdft.n_dn' ... done
Dumping 'jdft.tau_up' ... done
Dumping 'jdft.tau_dn' ... done
Dumping 'jdft.eigenvals' ... done
Dumping 'jdft.eigStats' ... 
	eMin: -2.139121 at state 0 ( [ +0.000000 +0.000000 +0.000000 ] spin 1 )
	HOMO: -0.190055 at state 14 ( [ +0.200000 +0.000000 +0.000000 ] spin -1 )
	mu  : -0.190023
	LUMO: -0.189903 at state 0 ( [ +0.000000 +0.000000 +0.000000 ] spin 1 )
	eMax: +0.109751 at state 18 ( [ +0.400000 +0.000000 +0.000000 ] spin -1 )
	HOMO-LUMO gap: +0.000153
	Optical gap  : +0.000347 at state 4 ( [ +0.200000 +0.250000 +0.000000 ] spin 1 )
Dumping 'jdft.kPts' ... done
Dumping 'jdft.kMap' ... done
Dumping 'jdft.dosUp' ... done.
Dumping 'jdft.dosDn' ... done.
End date and time: Thu Feb 17 17:16:32 2022  (Duration: 0-13:15:33.26)
Done!
