
*************** JDFTx 1.6.0  ***************

Start date and time: Mon Dec  6 17:15:15 2021
Executable /projects/musgravc/apps/jdftx-1.6.1/build/jdftx with command-line: -i in
Running on hosts (process indices):  shas0825.rc.int.colorado.edu (0-23)
Divided in process groups (process indices):  0 (0)  1 (1)  2 (2)  3 (3)  4 (4)  5 (5)  6 (6)  7 (7)  8 (8)  9 (9)  10 (10)  11 (11)  12 (12)  13 (13)  14 (14)  15 (15)  16 (16)  17 (17)  18 (18)  19 (19)  20 (20)  21 (21)  22 (22)  23 (23)
Resource initialization completed at t[s]:      0.00
Run totals: 24 processes, 24 threads, 0 GPUs


Input parsed successfully to the following command list (including defaults):

basis kpoint-dependent
converge-empty-states yes
coords-type Cartesian
core-overlap-check none
coulomb-interaction Periodic
davidson-band-ratio 1.1
density-of-states Etol 1.000000e-06 Esigma 1.000000e-03 \
		Complete \
	Total \
	OrthoOrbital Ag 1   s \
	OrthoOrbital Ag 1   p \
	OrthoOrbital Ag 1   px \
	OrthoOrbital Ag 1   py \
	OrthoOrbital Ag 1   pz \
	OrthoOrbital Ag 1   d \
	OrthoOrbital Ag 1   dxy \
	OrthoOrbital Ag 1   dyz \
	OrthoOrbital Ag 1   dz2 \
	OrthoOrbital Ag 1   dxz \
	OrthoOrbital Ag 1   dx2-y2 \
	OrthoOrbital Ag 2   s \
	OrthoOrbital Ag 2   p \
	OrthoOrbital Ag 2   px \
	OrthoOrbital Ag 2   py \
	OrthoOrbital Ag 2   pz \
	OrthoOrbital Ag 2   d \
	OrthoOrbital Ag 2   dxy \
	OrthoOrbital Ag 2   dyz \
	OrthoOrbital Ag 2   dz2 \
	OrthoOrbital Ag 2   dxz \
	OrthoOrbital Ag 2   dx2-y2 \
	OrthoOrbital Ag 3   s \
	OrthoOrbital Ag 3   p \
	OrthoOrbital Ag 3   px \
	OrthoOrbital Ag 3   py \
	OrthoOrbital Ag 3   pz \
	OrthoOrbital Ag 3   d \
	OrthoOrbital Ag 3   dxy \
	OrthoOrbital Ag 3   dyz \
	OrthoOrbital Ag 3   dz2 \
	OrthoOrbital Ag 3   dxz \
	OrthoOrbital Ag 3   dx2-y2 \
	OrthoOrbital Ag 4   s \
	OrthoOrbital Ag 4   p \
	OrthoOrbital Ag 4   px \
	OrthoOrbital Ag 4   py \
	OrthoOrbital Ag 4   pz \
	OrthoOrbital Ag 4   d \
	OrthoOrbital Ag 4   dxy \
	OrthoOrbital Ag 4   dyz \
	OrthoOrbital Ag 4   dz2 \
	OrthoOrbital Ag 4   dxz \
	OrthoOrbital Ag 4   dx2-y2 \
	OrthoOrbital Ag 5   s \
	OrthoOrbital Ag 5   p \
	OrthoOrbital Ag 5   px \
	OrthoOrbital Ag 5   py \
	OrthoOrbital Ag 5   pz \
	OrthoOrbital Ag 5   d \
	OrthoOrbital Ag 5   dxy \
	OrthoOrbital Ag 5   dyz \
	OrthoOrbital Ag 5   dz2 \
	OrthoOrbital Ag 5   dxz \
	OrthoOrbital Ag 5   dx2-y2 \
	OrthoOrbital Ag 6   s \
	OrthoOrbital Ag 6   p \
	OrthoOrbital Ag 6   px \
	OrthoOrbital Ag 6   py \
	OrthoOrbital Ag 6   pz \
	OrthoOrbital Ag 6   d \
	OrthoOrbital Ag 6   dxy \
	OrthoOrbital Ag 6   dyz \
	OrthoOrbital Ag 6   dz2 \
	OrthoOrbital Ag 6   dxz \
	OrthoOrbital Ag 6   dx2-y2 \
	OrthoOrbital Ag 7   s \
	OrthoOrbital Ag 7   p \
	OrthoOrbital Ag 7   px \
	OrthoOrbital Ag 7   py \
	OrthoOrbital Ag 7   pz \
	OrthoOrbital Ag 7   d \
	OrthoOrbital Ag 7   dxy \
	OrthoOrbital Ag 7   dyz \
	OrthoOrbital Ag 7   dz2 \
	OrthoOrbital Ag 7   dxz \
	OrthoOrbital Ag 7   dx2-y2 \
	OrthoOrbital Ag 8   s \
	OrthoOrbital Ag 8   p \
	OrthoOrbital Ag 8   px \
	OrthoOrbital Ag 8   py \
	OrthoOrbital Ag 8   pz \
	OrthoOrbital Ag 8   d \
	OrthoOrbital Ag 8   dxy \
	OrthoOrbital Ag 8   dyz \
	OrthoOrbital Ag 8   dz2 \
	OrthoOrbital Ag 8   dxz \
	OrthoOrbital Ag 8   dx2-y2 \
	OrthoOrbital Ag 9   s \
	OrthoOrbital Ag 9   p \
	OrthoOrbital Ag 9   px \
	OrthoOrbital Ag 9   py \
	OrthoOrbital Ag 9   pz \
	OrthoOrbital Ag 9   d \
	OrthoOrbital Ag 9   dxy \
	OrthoOrbital Ag 9   dyz \
	OrthoOrbital Ag 9   dz2 \
	OrthoOrbital Ag 9   dxz \
	OrthoOrbital Ag 9   dx2-y2 \
	OrthoOrbital Ag 10   s \
	OrthoOrbital Ag 10   p \
	OrthoOrbital Ag 10   px \
	OrthoOrbital Ag 10   py \
	OrthoOrbital Ag 10   pz \
	OrthoOrbital Ag 10   d \
	OrthoOrbital Ag 10   dxy \
	OrthoOrbital Ag 10   dyz \
	OrthoOrbital Ag 10   dz2 \
	OrthoOrbital Ag 10   dxz \
	OrthoOrbital Ag 10   dx2-y2 \
	OrthoOrbital Ag 11   s \
	OrthoOrbital Ag 11   p \
	OrthoOrbital Ag 11   px \
	OrthoOrbital Ag 11   py \
	OrthoOrbital Ag 11   pz \
	OrthoOrbital Ag 11   d \
	OrthoOrbital Ag 11   dxy \
	OrthoOrbital Ag 11   dyz \
	OrthoOrbital Ag 11   dz2 \
	OrthoOrbital Ag 11   dxz \
	OrthoOrbital Ag 11   dx2-y2
dump End ElecDensity KEdensity BandEigs EigStats RhoAtom DOS Kpoints
dump Ionic State IonicPositions Lattice EigStats Ecomponents
dump 
dump 
dump 
dump 
dump 
dump 
dump 
dump 
dump-name jdft.$VAR
elec-cutoff 20
elec-eigen-algo Davidson
elec-ex-corr gga-PBE
elec-initial-magnetization 0.000000 no
elec-n-bands 126
elec-smearing Fermi 0.001
electronic-minimize  \
	dirUpdateScheme      FletcherReeves \
	linminMethod         DirUpdateRecommended \
	nIterations          100 \
	history              15 \
	knormThreshold       0 \
	energyDiffThreshold  1e-07 \
	nEnergyDiff          2 \
	alphaTstart          1 \
	alphaTmin            1e-10 \
	updateTestStepSize   yes \
	alphaTreduceFactor   0.1 \
	alphaTincreaseFactor 3 \
	nAlphaAdjustMax      3 \
	wolfeEnergy          0.0001 \
	wolfeGradient        0.9 \
	fdTest               no
exchange-regularization WignerSeitzTruncated
fluid LinearPCM 298.000000 1.013250
fluid-anion F- 0.5 MeanFieldLJ \
	epsBulk 1 \
	pMol 0 \
	epsInf 1 \
	Pvap 0 \
	sigmaBulk 0 \
	Rvdw 2.24877 \
	Res 0 \
	tauNuc 343133
fluid-cation Na+ 0.5 MeanFieldLJ \
	epsBulk 1 \
	pMol 0 \
	epsInf 1 \
	Pvap 0 \
	sigmaBulk 0 \
	Rvdw 2.19208 \
	Res 0 \
	tauNuc 343133
fluid-ex-corr lda-TF lda-PZ
fluid-gummel-loop 10 1.000000e-05
fluid-minimize  \
	dirUpdateScheme      PolakRibiere \
	linminMethod         DirUpdateRecommended \
	nIterations          400 \
	history              15 \
	knormThreshold       1e-11 \
	energyDiffThreshold  0 \
	nEnergyDiff          2 \
	alphaTstart          1 \
	alphaTmin            1e-10 \
	updateTestStepSize   yes \
	alphaTreduceFactor   0.1 \
	alphaTincreaseFactor 3 \
	nAlphaAdjustMax      6 \
	wolfeEnergy          0.0001 \
	wolfeGradient        0.9 \
	fdTest               no
fluid-solvent H2O 55.338 ScalarEOS \
	epsBulk 78.4 \
	pMol 0.92466 \
	epsInf 1.77 \
	Pvap 1.06736e-10 \
	sigmaBulk 4.62e-05 \
	Rvdw 2.61727 \
	Res 1.42 \
	tauNuc 343133 \
	poleEl 15 7 1
forces-output-coords Positions
ion Ag   0.000000000000000   0.000000000000000  24.268516999999999 1
ion Ag  -0.000002000000000   4.902982000000000   1.155680000000000 1
ion Ag   2.710226000000000   0.817162000000000   3.466964000000000 1
ion Ag   2.710224000000000   5.720144000000000   5.778247000000000 1
ion Ag   0.000000000000000   1.634324000000000   8.089530999999999 1
ion Ag  -0.000002000000000   6.537306000000000  10.400814999999998 1
ion Ag   2.710226000000000   2.451486000000000  12.712097999999997 1
ion Ag   2.710224000000001   7.354468000000001  15.023381999999998 1
ion Ag   0.000000000000000   3.268648000000000  17.334665999999999 1
ion Ag  -0.000002000000000   8.171630000000000  19.645949000000002 1
ion Ag   2.710227000000000   4.085811000000000  21.957232999999999 1
ion-species /projects/musgravc/apps/jdftx-1.6.0/build/pseudopotentials/GBRV_v1.5/$ID_pbe_v1.uspp
ion-species /projects/musgravc/apps/jdftx-1.6.0/build/pseudopotentials/GBRV_v1.5/$ID_pbe_v1.2.uspp
ion-species /projects/musgravc/apps/jdftx-1.6.0/build/pseudopotentials/GBRV_v1.5/$ID_pbe_v1.4.uspp
ion-species /projects/musgravc/apps/jdftx-1.6.0/build/pseudopotentials/GBRV_v1.5/$ID_pbe_v1.5.uspp
ion-width Ecut
ionic-minimize  \
	dirUpdateScheme      L-BFGS \
	linminMethod         DirUpdateRecommended \
	nIterations          100 \
	history              15 \
	knormThreshold       0.0001 \
	energyDiffThreshold  1e-06 \
	nEnergyDiff          2 \
	alphaTstart          1 \
	alphaTmin            1e-10 \
	updateTestStepSize   yes \
	alphaTreduceFactor   0.1 \
	alphaTincreaseFactor 3 \
	nAlphaAdjustMax      3 \
	wolfeEnergy          0.0001 \
	wolfeGradient        0.9 \
	fdTest               no
kpoint   0.000000000000   0.000000000000   0.000000000000  1.00000000000000
kpoint-folding 13 7 1 
latt-move-scale 0 0 0
latt-scale 1 1 1 
lattice  \
	   5.420447000000000   -2.710223000000000    0.000000000000000  \
	   0.000000000000000    8.988792000000000    0.000000000000000  \
	   0.000000000000000    0.000000000000000   76.272437999999994 
lattice-minimize  \
	dirUpdateScheme      L-BFGS \
	linminMethod         DirUpdateRecommended \
	nIterations          0 \
	history              15 \
	knormThreshold       0 \
	energyDiffThreshold  1e-06 \
	nEnergyDiff          2 \
	alphaTstart          1 \
	alphaTmin            1e-10 \
	updateTestStepSize   yes \
	alphaTreduceFactor   0.1 \
	alphaTincreaseFactor 3 \
	nAlphaAdjustMax      3 \
	wolfeEnergy          0.0001 \
	wolfeGradient        0.9 \
	fdTest               no
lcao-params 30 1e-06 0.001
pcm-variant CANDLE
spintype z-spin
subspace-rotation-factor 1 yes
symmetries none
symmetry-threshold 0.0001
van-der-waals D3


Applied RMS atom displacement 0 bohrs to make symmetries exact.

---------- Initializing the Grid ----------
R = 
[      5.42045     -2.71022            0  ]
[            0      8.98879            0  ]
[            0            0      76.2724  ]
unit cell volume = 3716.24
G =
[    1.15916   0.349501         -0  ]
[          0   0.699002          0  ]
[          0         -0  0.0823782  ]
Minimum fftbox size, Smin = [  24  40  308  ]
Chosen fftbox size, S = [  24  40  320  ]

---------- Exchange Correlation functional ----------
Initalized PBE GGA exchange.
Initalized PBE GGA correlation.

---------- Setting up pseudopotentials ----------
Width of ionic core gaussian charges (only for fluid interactions / plotting) set to 0.397384

Reading pseudopotential file '/projects/musgravc/apps/jdftx-1.6.0/build/pseudopotentials/GBRV_v1.5/ag_pbe_v1.4.uspp':
  Title: Ag.  Created by USPP 7.3.6 on 1-4-15
  Reference state energy: -147.606242.  19 valence electrons in orbitals:
    |400>  occupation: 2  eigenvalue: -3.637437
    |410>  occupation: 6  eigenvalue: -2.297267
    |420>  occupation: 10  eigenvalue: -0.417763
    |500>  occupation: 0.5  eigenvalue: -0.283525
    |510>  occupation: 0  eigenvalue: -0.122889
  lMax: 2  lLocal: 0  QijEcut: 5.5
  6 projectors sampled on a log grid with 717 points:
    l: 0  eig: -0.283528  rCut: 1.5
    l: 0  eig: -3.637440  rCut: 1.5
    l: 1  eig: -0.122892  rCut: 1.5
    l: 1  eig: -2.297267  rCut: 1.5
    l: 2  eig: -0.417762  rCut: 1.7
    l: 2  eig: -1.000000  rCut: 1.7
  Partial core density with radius 1.2
  Transforming core density to a uniform radial grid of dG=0.02 with 1326 points.
  Transforming local potential to a uniform radial grid of dG=0.02 with 1326 points.
  Transforming nonlocal projectors to a uniform radial grid of dG=0.02 with 432 points.
  Transforming density augmentations to a uniform radial grid of dG=0.02 with 1326 points.
  Transforming atomic orbitals to a uniform radial grid of dG=0.02 with 432 points.
  Core radius for overlap checks: 1.70 bohrs.

Initialized 1 species with 11 total atoms.

Folded 1 k-points by 13x7x1 to 91 k-points.

---------- Setting up k-points, bands, fillings ----------
No reducable k-points. 
Computing the number of bands and number of electrons
Calculating initial fillings.
nElectrons: 209.000000   nBands: 126   nStates: 182

----- Setting up reduced wavefunction bases (one per k-point) -----
average nbasis = 15874.978 , ideal nbasis = 15876.072

----- Initializing Supercell corresponding to k-point mesh -----
Lattice vector linear combinations in supercell:
[  13   0   0  ]
[   0   7   0  ]
[   0   0   1  ]
Supercell lattice vectors:
[  70.4658  -18.9716  0  ]
[  0  62.9215  0  ]
[  0  0  76.2724  ]

Initializing DFT-D3 calculator:
	Parameters set for gga-PBE functional
	s6:  1.000  s_r6:  1.217
	s8:  0.722  s_r8:  1.000
	Per-atom parameters loaded for:
	Ag:  sqrtQ[a0]:  5.443  Rcov[a0]:  2.173  CN: [ 0.00 0.97 ]

Initializing DFT-D2 calculator for fluid / solvation:
	Ag:  C6:  427.91 Eh-a0^6  R0: 3.097 a0

---------- Setting up ewald sum ----------
Optimum gaussian width for ewald sums = 4.143614 bohr.
Real space sum over 1235 unit cells with max indices [  9  6  2  ]
Reciprocal space sum over 4543 terms with max indices [  3  5  29  ]

Computing DFT-D3 correction:
# coordination-number Ag 5.364 5.364 7.664 9.176 9.205 9.210 9.210 9.210 9.205 9.176 7.664
# diagonal-C6 Ag 268.61 268.61 268.61 268.61 268.61 268.61 268.61 268.61 268.61 268.61 268.61
EvdW_6 =   -0.070449
EvdW_8 =   -0.095628

---------- Allocating electronic variables ----------
Initializing wave functions:  linear combination of atomic orbitals
Ag pseudo-atom occupations:   s ( 2 1 )  p ( 6 0 )  d ( 10 )
	FillingsUpdate:  mu: -0.049973516  nElectrons: 209.000000  magneticMoment: [ Abs: 0.00065  Tot: +0.00005 ]
LCAOMinimize: Iter:   0  F: -1623.5093045801711469  |grad|_K:  7.046e-04  alpha:  1.000e+00
	FillingsUpdate:  mu: +0.295457589  nElectrons: 209.000000  magneticMoment: [ Abs: 0.00054  Tot: +0.00001 ]
LCAOMinimize: Iter:   1  F: -1623.5279827387691967  |grad|_K:  8.576e-04  alpha:  1.343e-01  linmin:  8.348e-02  cgtest: -6.795e-01  t[s]:     99.06
LCAOMinimize: 	Bad step direction: g.d > 0.
LCAOMinimize: 	Undoing step.
LCAOMinimize: 	Step failed: resetting search direction.
	FillingsUpdate:  mu: +0.295457589  nElectrons: 209.000000  magneticMoment: [ Abs: 0.00054  Tot: +0.00001 ]
LCAOMinimize: Iter:   2  F: -1623.5279827387691967  |grad|_K:  8.576e-04  alpha:  0.000e+00
	FillingsUpdate:  mu: +0.087032654  nElectrons: 209.000000  magneticMoment: [ Abs: 0.00054  Tot: -0.00003 ]
LCAOMinimize: Iter:   3  F: -1623.6139470701232312  |grad|_K:  2.278e-04  alpha:  5.965e-02  linmin: -8.312e-03  cgtest:  8.088e-02  t[s]:    169.07
LCAOMinimize: 	Predicted alpha/alphaT>3.000000, increasing alphaT to 1.789473e-01.
	FillingsUpdate:  mu: +0.118255704  nElectrons: 209.000000  magneticMoment: [ Abs: 0.00040  Tot: -0.00000 ]
LCAOMinimize: Iter:   4  F: -1623.6607405113279583  |grad|_K:  1.256e-04  alpha:  4.445e-01  linmin: -2.314e-02  cgtest:  1.704e-01  t[s]:    219.72
	FillingsUpdate:  mu: +0.117050108  nElectrons: 209.000000  magneticMoment: [ Abs: 0.00040  Tot: -0.00000 ]
LCAOMinimize: Iter:   5  F: -1623.6617391534241506  |grad|_K:  4.815e-05  alpha:  3.090e-02  linmin: -8.955e-04  cgtest: -2.113e-01  t[s]:    259.68
LCAOMinimize: 	Predicted alpha/alphaT>3.000000, increasing alphaT to 9.269035e-02.
	FillingsUpdate:  mu: +0.102841239  nElectrons: 209.000000  magneticMoment: [ Abs: 0.00039  Tot: -0.00002 ]
LCAOMinimize: Iter:   6  F: -1623.6624342864506616  |grad|_K:  4.886e-05  alpha:  1.581e-01  linmin:  8.911e-06  cgtest:  1.378e-01  t[s]:    310.09
	FillingsUpdate:  mu: +0.107948257  nElectrons: 209.000000  magneticMoment: [ Abs: 0.00039  Tot: -0.00002 ]
LCAOMinimize: Iter:   7  F: -1623.6628200855766408  |grad|_K:  4.399e-05  alpha:  8.616e-02  linmin:  1.927e-04  cgtest: -1.303e-03  t[s]:    350.12
	FillingsUpdate:  mu: +0.111255944  nElectrons: 209.000000  magneticMoment: [ Abs: 0.00039  Tot: -0.00002 ]
LCAOMinimize: Iter:   8  F: -1623.6629527922129910  |grad|_K:  1.279e-05  alpha:  3.657e-02  linmin:  8.178e-04  cgtest: -1.029e-02  t[s]:    390.20
LCAOMinimize: 	Predicted alpha/alphaT>3.000000, increasing alphaT to 1.097219e-01.
	FillingsUpdate:  mu: +0.109410675  nElectrons: 209.000000  magneticMoment: [ Abs: 0.00038  Tot: -0.00002 ]
LCAOMinimize: Iter:   9  F: -1623.6629996047061013  |grad|_K:  1.219e-05  alpha:  1.519e-01  linmin: -1.665e-04  cgtest:  3.949e-03  t[s]:    440.65
	FillingsUpdate:  mu: +0.109799306  nElectrons: 209.000000  magneticMoment: [ Abs: 0.00038  Tot: -0.00002 ]
LCAOMinimize: Iter:  10  F: -1623.6630105004192046  |grad|_K:  6.701e-06  alpha:  3.889e-02  linmin:  2.478e-04  cgtest: -9.995e-03  t[s]:    480.62
	FillingsUpdate:  mu: +0.111199100  nElectrons: 209.000000  magneticMoment: [ Abs: 0.00038  Tot: -0.00002 ]
LCAOMinimize: Iter:  11  F: -1623.6630163697861917  |grad|_K:  2.176e-06  alpha:  6.939e-02  linmin: -2.573e-04  cgtest:  1.225e-02  t[s]:    520.65
	FillingsUpdate:  mu: +0.111008210  nElectrons: 209.000000  magneticMoment: [ Abs: 0.00038  Tot: -0.00002 ]
LCAOMinimize: Iter:  12  F: -1623.6630171903739210  |grad|_K:  3.046e-06  alpha:  9.176e-02  linmin: -1.694e-05  cgtest: -6.441e-04  t[s]:    560.78
	FillingsUpdate:  mu: +0.110580492  nElectrons: 209.000000  magneticMoment: [ Abs: 0.00038  Tot: -0.00002 ]
LCAOMinimize: Iter:  13  F: -1623.6630186404279357  |grad|_K:  1.747e-06  alpha:  8.282e-02  linmin: -1.348e-05  cgtest:  5.711e-04  t[s]:    600.83
	FillingsUpdate:  mu: +0.110911189  nElectrons: 209.000000  magneticMoment: [ Abs: 0.00038  Tot: -0.00002 ]
LCAOMinimize: Iter:  14  F: -1623.6630191615890908  |grad|_K:  9.867e-07  alpha:  9.052e-02  linmin: -3.959e-05  cgtest: -8.849e-05  t[s]:    641.09
	FillingsUpdate:  mu: +0.110939259  nElectrons: 209.000000  magneticMoment: [ Abs: 0.00038  Tot: -0.00002 ]
LCAOMinimize: Iter:  15  F: -1623.6630192282309508  |grad|_K:  6.030e-07  alpha:  3.620e-02  linmin:  9.525e-05  cgtest: -1.407e-03  t[s]:    681.24
LCAOMinimize: Converged (|Delta F|<1.000000e-06 for 2 iters).
----- createFluidSolver() ----- (Fluid-side solver setup)
   Initializing fluid molecule 'H2O'
     Initializing site 'O'
       Electron density: proportional to exp(-r/0.36935)*erfc((r-0.51523)/0.36823) with norm 6.826
       Charge density: gaussian nuclear width 0.478731 with net site charge 0.826
       Polarizability: cuspless exponential with width 0.32 and norm 3.73
       Hard sphere radius: 2.57003 bohrs
       Positions in reference frame:
         [ +0.000000 +0.000000 +0.000000 ]
     Initializing site 'H'
       Electron density: proportional to exp(-r/0.34641)*erfc((r-0)/0.390882) with norm 0.587
       Charge density: gaussian nuclear width 0.377945 with net site charge -0.413
       Polarizability: cuspless exponential with width 0.39 and norm 3.3
       Positions in reference frame:
         [ +0.000000 -1.441945 +1.122523 ]
         [ +0.000000 +1.441945 +1.122523 ]
     Net charge: 0   dipole magnitude: 0.927204
     Initializing spherical shell mfKernel with radius 2.61727 Bohr
     deltaS corrections:
       site 'O': -7.54299
       site 'H': -6.83917
   Initializing fluid molecule 'Na+'
     Initializing site 'Na'
       Electron density: proportional to exp(-r/0.19682)*erfc((r-0.71491)/0.41314) with norm 8.1383
       Charge density: gaussian nuclear width 0.365347 with net site charge -1
       Hard sphere radius: 1.86327 bohrs
       Positions in reference frame:
         [ +0.000000 +0.000000 +0.000000 ]
     Net charge: -1   dipole magnitude: 0
     Initializing gaussian mfKernel with width: 1.55004 Bohr
     deltaS corrections:
       site 'Na': -22.3555
   Initializing fluid molecule 'F-'
     Initializing site 'F'
       Electron density: proportional to exp(-r/0.38886)*erfc((r-0)/0.438782) with norm 8
       Charge density: gaussian nuclear width 0.374796 with net site charge 1
       Hard sphere radius: 2.39995 bohrs
       Positions in reference frame:
         [ +0.000000 +0.000000 +0.000000 ]
     Net charge: 1   dipole magnitude: 0
     Initializing gaussian mfKernel with width: 1.59012 Bohr
     deltaS corrections:
       site 'F': -9.04335

Correction to mu due to finite nuclear width = -0.055801
   Cavity determined by nc: 0.00142 and sigma: 0.707107
   Nonlocal vdW cavity from gaussian model electron density with norm = 8 and sigma = 0.993594 bohr
   Charge asymmetry in cavity with sensitivity pCavity = 36.5 e-bohr/Eh
   Electrostatic cavity expanded by eta = 1.46 bohrs
   Weighted density cavitation model constrained by Nbulk: 0.0049383 bohr^-3, Pvap: 3.14029 kPa, Rvdw: 2.61727 bohr and sigmaBulk: 4.62e-05 Eh/bohr^2 at T: 298 K.
   Weighted density dispersion model using vdW pair potentials with single solvent site with sqrtC6eff: 0.77 SI.


---- Citations for features of the code used in this run ----

   Software package:
      R. Sundararaman, K. Letchworth-Weaver, K.A. Schwarz, D. Gunceler, Y. Ozhabes and T.A. Arias, 'JDFTx: software for joint density-functional theory', SoftwareX 6, 278 (2017)

   gga-PBE exchange-correlation functional:
      J.P. Perdew, K. Burke and M. Ernzerhof, Phys. Rev. Lett. 77, 3865 (1996)

   Pseudopotentials:
      KF Garrity, JW Bennett, KM Rabe and D Vanderbilt, Comput. Mater. Sci. 81, 446 (2014)

   DFT-D3 dispersion correction:
      S. Grimme, J. Antony, S. Ehrlich and H. Krieg, J. Chem. Phys. 132, 154104 (2010)

   DFT-D2 dispersion correction:
      S. Grimme, J. Comput. Chem. 27, 1787 (2006)

   Charge-asymmetric nonlocally-determined local-electric (CANDLE) solvation model:
      R. Sundararaman and W.A. Goddard III, J. Chem. Phys. 142, 064107 (2015)

   Total energy minimization with Auxiliary Hamiltonian:
      C. Freysoldt, S. Boeck, and J. Neugebauer, Phys. Rev. B 79, 241103(R) (2009)

   Linear-tetrahedron sampling for density of states:
      G. Lehmann and M. Taut, Phys. status solidi (b) 54, 469 (1972)

This list may not be complete. Please suggest additional citations or
report any other bugs at https://github.com/shankar1729/jdftx/issues

Initialization completed successfully at t[s]:    688.87


Computing DFT-D3 correction:
# coordination-number Ag 5.364 5.364 7.664 9.176 9.205 9.210 9.210 9.210 9.205 9.176 7.664
# diagonal-C6 Ag 268.61 268.61 268.61 268.61 268.61 268.61 268.61 268.61 268.61 268.61 268.61
EvdW_6 =   -0.070449
EvdW_8 =   -0.095628
Fluid solver invoked on fresh (random / LCAO) wavefunctions
Running a vacuum solve first:

-------- Initial electronic minimization -----------
	FillingsUpdate:  mu: +0.110939260  nElectrons: 209.000000  magneticMoment: [ Abs: 0.00038  Tot: -0.00002 ]
ElecMinimize: Iter:   0  F: -1623.663019228238227  |grad|_K:  1.710e-05  alpha:  1.000e+00
	FillingsUpdate:  mu: +0.118447094  nElectrons: 209.000000  magneticMoment: [ Abs: 0.00029  Tot: -0.00002 ]
	SubspaceRotationAdjust: set factor to 1
ElecMinimize: Iter:   1  F: -1623.709065030976035  |grad|_K:  1.175e-05  alpha:  4.323e-01  linmin:  2.723e-05  t[s]:    774.60
	FillingsUpdate:  mu: +0.103388607  nElectrons: 209.000000  magneticMoment: [ Abs: 0.00022  Tot: -0.00003 ]
	SubspaceRotationAdjust: set factor to 0.905
ElecMinimize: Iter:   2  F: -1623.722837446378662  |grad|_K:  7.064e-06  alpha:  2.726e-01  linmin: -1.433e-05  t[s]:    826.99
	FillingsUpdate:  mu: +0.112475971  nElectrons: 209.000000  magneticMoment: [ Abs: 0.00020  Tot: -0.00003 ]
	SubspaceRotationAdjust: set factor to 0.627
ElecMinimize: Iter:   3  F: -1623.724097312482400  |grad|_K:  7.532e-06  alpha:  6.916e-02  linmin:  1.081e-05  t[s]:    879.34
	FillingsUpdate:  mu: +0.129165348  nElectrons: 209.000000  magneticMoment: [ Abs: 0.00017  Tot: -0.00002 ]
	SubspaceRotationAdjust: set factor to 0.432
ElecMinimize: Iter:   4  F: -1623.726267585359437  |grad|_K:  5.601e-06  alpha:  1.048e-01  linmin: -7.822e-06  t[s]:    931.75
	FillingsUpdate:  mu: +0.115138180  nElectrons: 209.000000  magneticMoment: [ Abs: 0.00013  Tot: -0.00003 ]
	SubspaceRotationAdjust: set factor to 0.589
ElecMinimize: Iter:   5  F: -1623.728027692173328  |grad|_K:  2.770e-06  alpha:  1.535e-01  linmin:  1.866e-05  t[s]:    984.46
	FillingsUpdate:  mu: +0.110981367  nElectrons: 209.000000  magneticMoment: [ Abs: 0.00011  Tot: -0.00003 ]
	SubspaceRotationAdjust: set factor to 0.395
ElecMinimize: Iter:   6  F: -1623.728488330363689  |grad|_K:  3.532e-06  alpha:  1.645e-01  linmin:  4.612e-06  t[s]:   1036.94
	FillingsUpdate:  mu: +0.111536466  nElectrons: 209.000000  magneticMoment: [ Abs: 0.00009  Tot: -0.00003 ]
	SubspaceRotationAdjust: set factor to 0.326
ElecMinimize: Iter:   7  F: -1623.729074745669777  |grad|_K:  1.743e-06  alpha:  1.286e-01  linmin:  2.051e-06  t[s]:   1089.21
	FillingsUpdate:  mu: +0.118684844  nElectrons: 209.000000  magneticMoment: [ Abs: 0.00007  Tot: -0.00003 ]
	SubspaceRotationAdjust: set factor to 0.22
ElecMinimize: Iter:   8  F: -1623.729341162242463  |grad|_K:  1.308e-06  alpha:  2.398e-01  linmin: -2.584e-05  t[s]:   1141.54
	FillingsUpdate:  mu: +0.117716661  nElectrons: 209.000000  magneticMoment: [ Abs: 0.00006  Tot: -0.00003 ]
	SubspaceRotationAdjust: set factor to 0.224
ElecMinimize: Iter:   9  F: -1623.729519103954090  |grad|_K:  9.374e-07  alpha:  2.841e-01  linmin:  2.430e-05  t[s]:   1194.16
	FillingsUpdate:  mu: +0.115519534  nElectrons: 209.000000  magneticMoment: [ Abs: 0.00005  Tot: -0.00003 ]
	SubspaceRotationAdjust: set factor to 0.158
ElecMinimize: Iter:  10  F: -1623.729593504275726  |grad|_K:  6.485e-07  alpha:  2.319e-01  linmin:  6.871e-06  t[s]:   1246.31
	FillingsUpdate:  mu: +0.115463356  nElectrons: 209.000000  magneticMoment: [ Abs: 0.00005  Tot: -0.00003 ]
	SubspaceRotationAdjust: set factor to 0.163
ElecMinimize: Iter:  11  F: -1623.729645286123741  |grad|_K:  4.850e-07  alpha:  3.375e-01  linmin:  2.326e-05  t[s]:   1298.66
	FillingsUpdate:  mu: +0.116814502  nElectrons: 209.000000  magneticMoment: [ Abs: 0.00004  Tot: -0.00002 ]
	SubspaceRotationAdjust: set factor to 0.182
ElecMinimize: Iter:  12  F: -1623.729673483582246  |grad|_K:  3.134e-07  alpha:  3.288e-01  linmin:  3.803e-06  t[s]:   1351.30
	FillingsUpdate:  mu: +0.117023377  nElectrons: 209.000000  magneticMoment: [ Abs: 0.00004  Tot: -0.00002 ]
	SubspaceRotationAdjust: set factor to 0.19
ElecMinimize: Iter:  13  F: -1623.729688440915879  |grad|_K:  2.656e-07  alpha:  4.171e-01  linmin:  1.104e-05  t[s]:   1403.65
	FillingsUpdate:  mu: +0.116721553  nElectrons: 209.000000  magneticMoment: [ Abs: 0.00004  Tot: -0.00002 ]
	SubspaceRotationAdjust: set factor to 0.167
ElecMinimize: Iter:  14  F: -1623.729695808234283  |grad|_K:  2.149e-07  alpha:  2.859e-01  linmin:  4.253e-07  t[s]:   1456.40
	FillingsUpdate:  mu: +0.116621943  nElectrons: 209.000000  magneticMoment: [ Abs: 0.00003  Tot: -0.00002 ]
	SubspaceRotationAdjust: set factor to 0.185
ElecMinimize: Iter:  15  F: -1623.729702488072235  |grad|_K:  1.685e-07  alpha:  3.963e-01  linmin:  9.139e-06  t[s]:   1508.54
	FillingsUpdate:  mu: +0.117048175  nElectrons: 209.000000  magneticMoment: [ Abs: 0.00003  Tot: -0.00001 ]
	SubspaceRotationAdjust: set factor to 0.209
ElecMinimize: Iter:  16  F: -1623.729706874957856  |grad|_K:  1.495e-07  alpha:  4.242e-01  linmin:  2.088e-06  t[s]:   1560.85
	FillingsUpdate:  mu: +0.117176679  nElectrons: 209.000000  magneticMoment: [ Abs: 0.00003  Tot: -0.00001 ]
	SubspaceRotationAdjust: set factor to 0.21
ElecMinimize: Iter:  17  F: -1623.729709989680941  |grad|_K:  1.318e-07  alpha:  3.817e-01  linmin:  2.939e-06  t[s]:   1612.99
	FillingsUpdate:  mu: +0.117017527  nElectrons: 209.000000  magneticMoment: [ Abs: 0.00002  Tot: -0.00001 ]
	SubspaceRotationAdjust: set factor to 0.171
ElecMinimize: Iter:  18  F: -1623.729711836645947  |grad|_K:  1.092e-07  alpha:  2.911e-01  linmin:  1.048e-06  t[s]:   1665.35
	FillingsUpdate:  mu: +0.116960171  nElectrons: 209.000000  magneticMoment: [ Abs: 0.00002  Tot: -0.00001 ]
	SubspaceRotationAdjust: set factor to 0.164
ElecMinimize: Iter:  19  F: -1623.729713124434738  |grad|_K:  7.594e-08  alpha:  2.960e-01  linmin:  1.738e-06  t[s]:   1717.63
	FillingsUpdate:  mu: +0.117139530  nElectrons: 209.000000  magneticMoment: [ Abs: 0.00001  Tot: -0.00000 ]
	SubspaceRotationAdjust: set factor to 0.177
ElecMinimize: Iter:  20  F: -1623.729713967687303  |grad|_K:  5.639e-08  alpha:  4.008e-01  linmin:  5.288e-07  t[s]:   1769.96
	FillingsUpdate:  mu: +0.117175252  nElectrons: 209.000000  magneticMoment: [ Abs: 0.00001  Tot: -0.00000 ]
	SubspaceRotationAdjust: set factor to 0.165
ElecMinimize: Iter:  21  F: -1623.729714343974138  |grad|_K:  4.485e-08  alpha:  3.240e-01  linmin:  2.575e-07  t[s]:   1822.33
	FillingsUpdate:  mu: +0.117117277  nElectrons: 209.000000  magneticMoment: [ Abs: 0.00001  Tot: -0.00000 ]
	SubspaceRotationAdjust: set factor to 0.143
ElecMinimize: Iter:  22  F: -1623.729714575628805  |grad|_K:  3.180e-08  alpha:  3.152e-01  linmin:  3.948e-07  t[s]:   1874.69
	FillingsUpdate:  mu: +0.117094797  nElectrons: 209.000000  magneticMoment: [ Abs: 0.00001  Tot: -0.00000 ]
	SubspaceRotationAdjust: set factor to 0.154
ElecMinimize: Iter:  23  F: -1623.729714699694114  |grad|_K:  2.332e-08  alpha:  3.359e-01  linmin: -1.342e-06  t[s]:   1927.25
	FillingsUpdate:  mu: +0.117121607  nElectrons: 209.000000  magneticMoment: [ Abs: 0.00001  Tot: -0.00000 ]
	SubspaceRotationAdjust: set factor to 0.167
ElecMinimize: Iter:  24  F: -1623.729714770086275  |grad|_K:  1.720e-08  alpha:  3.537e-01  linmin:  1.453e-06  t[s]:   1979.71
	FillingsUpdate:  mu: +0.117135466  nElectrons: 209.000000  magneticMoment: [ Abs: 0.00000  Tot: -0.00000 ]
	SubspaceRotationAdjust: set factor to 0.163
ElecMinimize: Iter:  25  F: -1623.729714807941036  |grad|_K:  1.417e-08  alpha:  3.512e-01  linmin:  5.664e-07  t[s]:   2031.85
ElecMinimize: Converged (|Delta F|<1.000000e-07 for 2 iters).
Setting wave functions to eigenvectors of Hamiltonian
Converging empty states (this may take a while): |deigs|: 1.793e-02
Vacuum energy after initial minimize, F = -1623.729714807941036


-------- Electronic minimization -----------
	Linear fluid (dielectric constant: 78.4, screening length: 8.12261 Bohr) occupying 0.554644 of unit cell:	Completed after 22 iterations at t[s]:   2223.27
	FillingsUpdate:  mu: -0.148703108  nElectrons: 209.000000  magneticMoment: [ Abs: 0.00000  Tot: -0.00000 ]
ElecMinimize: Iter:   0  F: -1623.730257737184957  |grad|_K:  4.116e-07  alpha:  1.000e+00
	Linear fluid (dielectric constant: 78.4, screening length: 8.12261 Bohr) occupying 0.555391 of unit cell:	Completed after 18 iterations at t[s]:   2267.19
	Linear fluid (dielectric constant: 78.4, screening length: 8.12261 Bohr) occupying 0.555199 of unit cell:	Completed after 14 iterations at t[s]:   2282.26
	FillingsUpdate:  mu: -0.143260446  nElectrons: 209.000000  magneticMoment: [ Abs: 0.00000  Tot: -0.00000 ]
	SubspaceRotationAdjust: set factor to 0.165
ElecMinimize: Iter:   1  F: -1623.730303448327504  |grad|_K:  4.516e-07  alpha:  7.399e-01  linmin: -2.666e-07  t[s]:   2304.73
	Linear fluid (dielectric constant: 78.4, screening length: 8.12261 Bohr) occupying 0.556088 of unit cell:	Completed after 15 iterations at t[s]:   2322.88
	Linear fluid (dielectric constant: 78.4, screening length: 8.12261 Bohr) occupying 0.555963 of unit cell:	Completed after 10 iterations at t[s]:   2337.68
	FillingsUpdate:  mu: -0.143768525  nElectrons: 209.000000  magneticMoment: [ Abs: 0.00000  Tot: -0.00000 ]
	SubspaceRotationAdjust: set factor to 0.191
ElecMinimize: Iter:   2  F: -1623.730350696735741  |grad|_K:  3.351e-07  alpha:  6.337e-01  linmin: -2.435e-07  t[s]:   2360.46
	Linear fluid (dielectric constant: 78.4, screening length: 8.12261 Bohr) occupying 0.556464 of unit cell:	Completed after 13 iterations at t[s]:   2378.45
	Linear fluid (dielectric constant: 78.4, screening length: 8.12261 Bohr) occupying 0.556333 of unit cell:	Completed after 9 iterations at t[s]:   2393.02
	FillingsUpdate:  mu: -0.143442090  nElectrons: 209.000000  magneticMoment: [ Abs: 0.00000  Tot: -0.00000 ]
	SubspaceRotationAdjust: set factor to 0.218
ElecMinimize: Iter:   3  F: -1623.730369817238625  |grad|_K:  2.657e-07  alpha:  4.656e-01  linmin: -3.785e-08  t[s]:   2415.59
	Linear fluid (dielectric constant: 78.4, screening length: 8.12261 Bohr) occupying 0.556592 of unit cell:	Completed after 11 iterations at t[s]:   2433.71
	Linear fluid (dielectric constant: 78.4, screening length: 8.12261 Bohr) occupying 0.556568 of unit cell:	Completed after 2 iterations at t[s]:   2447.76
	FillingsUpdate:  mu: -0.143046776  nElectrons: 209.000000  magneticMoment: [ Abs: 0.00000  Tot: -0.00000 ]
	SubspaceRotationAdjust: set factor to 0.26
ElecMinimize: Iter:   4  F: -1623.730380703784931  |grad|_K:  1.947e-07  alpha:  4.218e-01  linmin:  3.989e-09  t[s]:   2470.56
	Linear fluid (dielectric constant: 78.4, screening length: 8.12261 Bohr) occupying 0.556699 of unit cell:	Completed after 7 iterations at t[s]:   2488.24
	Linear fluid (dielectric constant: 78.4, screening length: 8.12261 Bohr) occupying 0.556741 of unit cell:	Completed after 4 iterations at t[s]:   2502.68
	FillingsUpdate:  mu: -0.143302419  nElectrons: 209.000000  magneticMoment: [ Abs: 0.00000  Tot: -0.00000 ]
	SubspaceRotationAdjust: set factor to 0.296
ElecMinimize: Iter:   5  F: -1623.730388460474614  |grad|_K:  1.475e-07  alpha:  5.598e-01  linmin: -1.605e-07  t[s]:   2525.28
	Linear fluid (dielectric constant: 78.4, screening length: 8.12261 Bohr) occupying 0.556856 of unit cell:	Completed after 10 iterations at t[s]:   2543.17
	Linear fluid (dielectric constant: 78.4, screening length: 8.12261 Bohr) occupying 0.556843 of unit cell:	Completed after 4 iterations at t[s]:   2557.33
	FillingsUpdate:  mu: -0.142680457  nElectrons: 209.000000  magneticMoment: [ Abs: 0.00000  Tot: -0.00000 ]
	SubspaceRotationAdjust: set factor to 0.315
ElecMinimize: Iter:   6  F: -1623.730392411478761  |grad|_K:  1.128e-07  alpha:  4.964e-01  linmin:  3.501e-08  t[s]:   2579.90
	Linear fluid (dielectric constant: 78.4, screening length: 8.12261 Bohr) occupying 0.556893 of unit cell:	Completed after 10 iterations at t[s]:   2597.71
	Linear fluid (dielectric constant: 78.4, screening length: 8.12261 Bohr) occupying 0.556888 of unit cell:	Completed after 2 iterations at t[s]:   2611.95
	FillingsUpdate:  mu: -0.143036643  nElectrons: 209.000000  magneticMoment: [ Abs: 0.00000  Tot: -0.00000 ]
	SubspaceRotationAdjust: set factor to 0.307
ElecMinimize: Iter:   7  F: -1623.730394497407360  |grad|_K:  7.780e-08  alpha:  4.492e-01  linmin:  7.241e-08  t[s]:   2634.63
	Linear fluid (dielectric constant: 78.4, screening length: 8.12261 Bohr) occupying 0.556914 of unit cell:	Completed after 10 iterations at t[s]:   2652.86
	Linear fluid (dielectric constant: 78.4, screening length: 8.12261 Bohr) occupying 0.556913 of unit cell:	Completed after 0 iterations at t[s]:   2666.85
	FillingsUpdate:  mu: -0.142703192  nElectrons: 209.000000  magneticMoment: [ Abs: 0.00000  Tot: -0.00000 ]
	SubspaceRotationAdjust: set factor to 0.273
ElecMinimize: Iter:   8  F: -1623.730395453920664  |grad|_K:  5.824e-08  alpha:  4.329e-01  linmin:  2.899e-07  t[s]:   2689.61
	Linear fluid (dielectric constant: 78.4, screening length: 8.12261 Bohr) occupying 0.556918 of unit cell:	Completed after 10 iterations at t[s]:   2707.74
	Linear fluid (dielectric constant: 78.4, screening length: 8.12261 Bohr) occupying 0.556917 of unit cell:	Completed after 2 iterations at t[s]:   2721.85
	FillingsUpdate:  mu: -0.142936220  nElectrons: 209.000000  magneticMoment: [ Abs: 0.00000  Tot: -0.00000 ]
	SubspaceRotationAdjust: set factor to 0.239
ElecMinimize: Iter:   9  F: -1623.730395888984049  |grad|_K:  3.720e-08  alpha:  3.533e-01  linmin: -2.008e-07  t[s]:   2744.44
	Linear fluid (dielectric constant: 78.4, screening length: 8.12261 Bohr) occupying 0.556919 of unit cell:	Completed after 6 iterations at t[s]:   2762.07
	Linear fluid (dielectric constant: 78.4, screening length: 8.12261 Bohr) occupying 0.556919 of unit cell:	Completed after 2 iterations at t[s]:   2776.20
	FillingsUpdate:  mu: -0.142845756  nElectrons: 209.000000  magneticMoment: [ Abs: 0.00000  Tot: -0.00000 ]
	SubspaceRotationAdjust: set factor to 0.244
ElecMinimize: Iter:  10  F: -1623.730396120324485  |grad|_K:  2.348e-08  alpha:  4.551e-01  linmin: -1.858e-06  t[s]:   2799.06
	Linear fluid (dielectric constant: 78.4, screening length: 8.12261 Bohr) occupying 0.556915 of unit cell:	Completed after 2 iterations at t[s]:   2816.98
	Linear fluid (dielectric constant: 78.4, screening length: 8.12261 Bohr) occupying 0.556915 of unit cell:	Completed after 0 iterations at t[s]:   2830.69
	FillingsUpdate:  mu: -0.142861455  nElectrons: 209.000000  magneticMoment: [ Abs: 0.00000  Tot: -0.00000 ]
	SubspaceRotationAdjust: set factor to 0.271
ElecMinimize: Iter:  11  F: -1623.730396211683001  |grad|_K:  1.687e-08  alpha:  4.489e-01  linmin: -1.387e-07  t[s]:   2853.35
	Linear fluid (dielectric constant: 78.4, screening length: 8.12261 Bohr) occupying 0.556910 of unit cell:	Completed after 2 iterations at t[s]:   2870.74
	Linear fluid (dielectric constant: 78.4, screening length: 8.12261 Bohr) occupying 0.556911 of unit cell:	Completed after 0 iterations at t[s]:   2884.62
	FillingsUpdate:  mu: -0.142899477  nElectrons: 209.000000  magneticMoment: [ Abs: 0.00000  Tot: -0.00000 ]
	SubspaceRotationAdjust: set factor to 0.296
ElecMinimize: Iter:  12  F: -1623.730396252558648  |grad|_K:  1.186e-08  alpha:  3.919e-01  linmin:  3.984e-06  t[s]:   2907.24
ElecMinimize: Converged (|Delta F|<1.000000e-07 for 2 iters).
Setting wave functions to eigenvectors of Hamiltonian
Converging empty states (this may take a while): |deigs|: 1.556e-04
Single-point solvation energy estimate, DeltaF = -0.000681444617612

Computing DFT-D3 correction:
# coordination-number Ag 5.364 5.364 7.664 9.176 9.205 9.210 9.210 9.210 9.205 9.176 7.664
# diagonal-C6 Ag 268.61 268.61 268.61 268.61 268.61 268.61 268.61 268.61 268.61 268.61 268.61
EvdW_6 =   -0.070449
EvdW_8 =   -0.095628

# Ionic positions in cartesian coordinates:
ion Ag   0.000000000000000   0.000000000000000  24.268516999999999 1
ion Ag  -0.000002000000000   4.902982000000000   1.155680000000000 1
ion Ag   2.710226000000000   0.817162000000000   3.466964000000000 1
ion Ag   2.710224000000000   5.720144000000000   5.778247000000000 1
ion Ag   0.000000000000000   1.634324000000000   8.089530999999999 1
ion Ag  -0.000002000000000   6.537306000000000  10.400814999999998 1
ion Ag   2.710226000000000   2.451486000000000  12.712097999999997 1
ion Ag   2.710224000000001   7.354468000000001  15.023381999999998 1
ion Ag   0.000000000000000   3.268648000000000  17.334665999999999 1
ion Ag  -0.000002000000000   8.171630000000000  19.645949000000002 1
ion Ag   2.710227000000000   4.085811000000000  21.957232999999999 1

# Forces in Cartesian coordinates:
force Ag  -0.000012807349940  -0.001218802373283  -0.001967025891841 1
force Ag   0.000032813682216   0.001281322309849   0.001544651693355 1
force Ag  -0.000039028543083  -0.001304387540095  -0.006096277411738 1
force Ag   0.000015261064471   0.000859643882829  -0.000847162397390 1
force Ag   0.000017985015722  -0.000639318365891   0.001835183411895 1
force Ag   0.000030265325748  -0.000470926666772  -0.000016983212176 1
force Ag  -0.000027351015665   0.000015255991788   0.000052562063206 1
force Ag   0.000017246806544   0.000508574381681   0.000187296978433 1
force Ag  -0.000050477402360   0.000581846987892  -0.001779145979759 1
force Ag   0.000006397795854  -0.000887041543251   0.000854342133350 1
force Ag   0.000003365911675   0.001294884562376   0.006033424861283 1

# Energy components:
   A_diel =       -0.0008326190234000
   Eewald =    14808.5158420382340410
       EH =    16274.3524153202270099
     Eloc =   -32961.6760266693527228
      Enl =       43.3850166656529126
     EvdW =       -0.1660768711704258
      Exc =     -159.4229148529242934
 Exc_core =        2.2898749859692806
       KE =      368.9925453717659707
-------------------------------------
     Etot =    -1623.7301566306216500
       TS =        0.0002396219370220
-------------------------------------
        F =    -1623.7303962525586485


Dumping 'jdft.fillings' ... done
Dumping 'jdft.wfns' ... done
Dumping 'jdft.fluidState' ... done
Dumping 'jdft.ionpos' ... done
Dumping 'jdft.lattice' ... done
Dumping 'jdft.eigenvals' ... done
Dumping 'jdft.eigStats' ... 
	eMin: -3.528436 at state 0 ( [ +0.000000 +0.000000 +0.000000 ] spin 1 )
	HOMO: -0.144079 at state 13 ( [ +0.076923 -0.142857 +0.000000 ] spin 1 )
	mu  : -0.142899
	LUMO: -0.142696 at state 128 ( [ +0.384615 +0.285714 +0.000000 ] spin -1 )
	eMax: +0.187153 at state 135 ( [ +0.461538 +0.285714 +0.000000 ] spin -1 )
	HOMO-LUMO gap: +0.001384
	Optical gap  : +0.007002 at state 145 ( [ -0.461538 -0.285714 +0.000000 ] spin -1 )
Dumping 'jdft.Ecomponents' ... done
IonicMinimize: Iter:   0  F: -1623.730396252558648  |grad|_K:  1.715e-03  t[s]:   3036.29

#--- Lowdin population analysis ---
# oxidation-state Ag +0.101 +0.102 -0.040 -0.039 +0.003 +0.002 +0.003 +0.002 +0.003 -0.039 -0.040
# magnetic-moments Ag -0.000 +0.000 -0.000 +0.000 -0.000 -0.000 -0.000 +0.000 -0.000 +0.000 -0.000


Computing DFT-D3 correction:
# coordination-number Ag 5.373 5.372 7.657 9.172 9.198 9.210 9.214 9.210 9.198 9.172 7.657
# diagonal-C6 Ag 268.61 268.61 268.61 268.61 268.61 268.61 268.61 268.61 268.61 268.61 268.61
EvdW_6 =   -0.070440
EvdW_8 =   -0.095616

-------- Electronic minimization -----------
	Linear fluid (dielectric constant: 78.4, screening length: 8.12261 Bohr) occupying 0.556942 of unit cell:	Completed after 10 iterations at t[s]:   3055.90
	FillingsUpdate:  mu: -0.142625449  nElectrons: 209.000000  magneticMoment: [ Abs: 0.00000  Tot: -0.00000 ]
ElecMinimize: Iter:   0  F: -1623.730472027180667  |grad|_K:  1.572e-07  alpha:  1.000e+00
	Linear fluid (dielectric constant: 78.4, screening length: 8.12261 Bohr) occupying 0.556911 of unit cell:	Completed after 12 iterations at t[s]:   3099.65
	Linear fluid (dielectric constant: 78.4, screening length: 8.12261 Bohr) occupying 0.556925 of unit cell:	Completed after 11 iterations at t[s]:   3114.94
	FillingsUpdate:  mu: -0.143817175  nElectrons: 209.000000  magneticMoment: [ Abs: 0.00000  Tot: -0.00000 ]
	SubspaceRotationAdjust: set factor to 0.227
ElecMinimize: Iter:   1  F: -1623.730477017734984  |grad|_K:  1.788e-07  alpha:  5.523e-01  linmin:  3.410e-06  t[s]:   3137.56
	Linear fluid (dielectric constant: 78.4, screening length: 8.12261 Bohr) occupying 0.556941 of unit cell:	Completed after 11 iterations at t[s]:   3155.40
	Linear fluid (dielectric constant: 78.4, screening length: 8.12261 Bohr) occupying 0.556940 of unit cell:	Completed after 5 iterations at t[s]:   3169.76
	FillingsUpdate:  mu: -0.142522665  nElectrons: 209.000000  magneticMoment: [ Abs: 0.00000  Tot: -0.00000 ]
	SubspaceRotationAdjust: set factor to 0.222
ElecMinimize: Iter:   2  F: -1623.730482907701798  |grad|_K:  1.467e-07  alpha:  5.042e-01  linmin:  2.010e-05  t[s]:   3192.47
	Linear fluid (dielectric constant: 78.4, screening length: 8.12261 Bohr) occupying 0.556936 of unit cell:	Completed after 6 iterations at t[s]:   3210.05
	Linear fluid (dielectric constant: 78.4, screening length: 8.12261 Bohr) occupying 0.556935 of unit cell:	Completed after 3 iterations at t[s]:   3224.07
	FillingsUpdate:  mu: -0.142740308  nElectrons: 209.000000  magneticMoment: [ Abs: 0.00000  Tot: -0.00000 ]
	SubspaceRotationAdjust: set factor to 0.262
ElecMinimize: Iter:   3  F: -1623.730487422634269  |grad|_K:  9.822e-08  alpha:  5.750e-01  linmin:  3.968e-06  t[s]:   3246.67
	Linear fluid (dielectric constant: 78.4, screening length: 8.12261 Bohr) occupying 0.556926 of unit cell:	Completed after 9 iterations at t[s]:   3264.50
	Linear fluid (dielectric constant: 78.4, screening length: 8.12261 Bohr) occupying 0.556930 of unit cell:	Completed after 7 iterations at t[s]:   3278.85
	FillingsUpdate:  mu: -0.143086316  nElectrons: 209.000000  magneticMoment: [ Abs: 0.00000  Tot: -0.00000 ]
	SubspaceRotationAdjust: set factor to 0.262
ElecMinimize: Iter:   4  F: -1623.730488673286573  |grad|_K:  6.064e-08  alpha:  3.567e-01  linmin: -1.613e-05  t[s]:   3301.41
	Linear fluid (dielectric constant: 78.4, screening length: 8.12261 Bohr) occupying 0.556932 of unit cell:	Completed after 9 iterations at t[s]:   3319.26
	Linear fluid (dielectric constant: 78.4, screening length: 8.12261 Bohr) occupying 0.556932 of unit cell:	Completed after 0 iterations at t[s]:   3333.06
	FillingsUpdate:  mu: -0.142888461  nElectrons: 209.000000  magneticMoment: [ Abs: 0.00000  Tot: -0.00000 ]
	SubspaceRotationAdjust: set factor to 0.257
ElecMinimize: Iter:   5  F: -1623.730489151172151  |grad|_K:  3.046e-08  alpha:  3.553e-01  linmin: -6.098e-06  t[s]:   3355.66
	Linear fluid (dielectric constant: 78.4, screening length: 8.12261 Bohr) occupying 0.556931 of unit cell:	Completed after 2 iterations at t[s]:   3372.98
	Linear fluid (dielectric constant: 78.4, screening length: 8.12261 Bohr) occupying 0.556930 of unit cell:	Completed after 0 iterations at t[s]:   3386.91
	FillingsUpdate:  mu: -0.142904271  nElectrons: 209.000000  magneticMoment: [ Abs: 0.00000  Tot: -0.00000 ]
	SubspaceRotationAdjust: set factor to 0.292
ElecMinimize: Iter:   6  F: -1623.730489301923171  |grad|_K:  1.799e-08  alpha:  4.424e-01  linmin: -5.970e-04  t[s]:   3409.48
	Linear fluid (dielectric constant: 78.4, screening length: 8.12261 Bohr) occupying 0.556929 of unit cell:	Completed after 2 iterations at t[s]:   3426.66
	Linear fluid (dielectric constant: 78.4, screening length: 8.12261 Bohr) occupying 0.556929 of unit cell:	Completed after 0 iterations at t[s]:   3440.58
	FillingsUpdate:  mu: -0.142950359  nElectrons: 209.000000  magneticMoment: [ Abs: 0.00000  Tot: -0.00000 ]
	SubspaceRotationAdjust: set factor to 0.3
ElecMinimize: Iter:   7  F: -1623.730489345122351  |grad|_K:  1.228e-08  alpha:  3.629e-01  linmin: -1.356e-04  t[s]:   3463.26
	Linear fluid (dielectric constant: 78.4, screening length: 8.12261 Bohr) occupying 0.556928 of unit cell:	Completed after 2 iterations at t[s]:   3480.78
	Linear fluid (dielectric constant: 78.4, screening length: 8.12261 Bohr) occupying 0.556928 of unit cell:	Completed after 0 iterations at t[s]:   3494.64
	FillingsUpdate:  mu: -0.142940639  nElectrons: 209.000000  magneticMoment: [ Abs: 0.00000  Tot: -0.00000 ]
	SubspaceRotationAdjust: set factor to 0.337
ElecMinimize: Iter:   8  F: -1623.730489363061679  |grad|_K:  8.079e-09  alpha:  3.275e-01  linmin: -1.458e-03  t[s]:   3517.20
ElecMinimize: Converged (|Delta F|<1.000000e-07 for 2 iters).
Setting wave functions to eigenvectors of Hamiltonian
Converging empty states (this may take a while): |deigs|: 9.313e-08

Computing DFT-D3 correction:
# coordination-number Ag 5.373 5.372 7.657 9.172 9.198 9.210 9.214 9.210 9.198 9.172 7.657
# diagonal-C6 Ag 268.61 268.61 268.61 268.61 268.61 268.61 268.61 268.61 268.61 268.61 268.61
EvdW_6 =   -0.070440
EvdW_8 =   -0.095616
IonicMinimize: 	Wolfe criterion not satisfied: alpha: 1  (E-E0)/|gdotd0|: -0.958871  gdotd/gdotd0: 0.933094 (taking cubic step)

Computing DFT-D3 correction:
# coordination-number Ag 5.389 5.387 7.643 9.163 9.183 9.211 9.221 9.212 9.184 9.166 7.645
# diagonal-C6 Ag 268.61 268.61 268.61 268.61 268.61 268.61 268.61 268.61 268.61 268.61 268.61
EvdW_6 =   -0.070422
EvdW_8 =   -0.095592

-------- Electronic minimization -----------
	Linear fluid (dielectric constant: 78.4, screening length: 8.12261 Bohr) occupying 0.557020 of unit cell:	Completed after 8 iterations at t[s]:   3588.62
	FillingsUpdate:  mu: -0.142891158  nElectrons: 209.000000  magneticMoment: [ Abs: 0.00000  Tot: -0.00000 ]
ElecMinimize: Iter:   0  F: -1623.730590421144598  |grad|_K:  3.067e-07  alpha:  1.000e+00
	Linear fluid (dielectric constant: 78.4, screening length: 8.12261 Bohr) occupying 0.557002 of unit cell:	Completed after 12 iterations at t[s]:   3632.07
	Linear fluid (dielectric constant: 78.4, screening length: 8.12261 Bohr) occupying 0.557005 of unit cell:	Completed after 7 iterations at t[s]:   3646.54
	FillingsUpdate:  mu: -0.143514582  nElectrons: 209.000000  magneticMoment: [ Abs: 0.00000  Tot: +0.00000 ]
	SubspaceRotationAdjust: set factor to 0.46
ElecMinimize: Iter:   1  F: -1623.730619269381350  |grad|_K:  3.422e-07  alpha:  8.389e-01  linmin: -7.241e-08  t[s]:   3669.12
	Linear fluid (dielectric constant: 78.4, screening length: 8.12261 Bohr) occupying 0.557020 of unit cell:	Completed after 11 iterations at t[s]:   3686.96
	Linear fluid (dielectric constant: 78.4, screening length: 8.12261 Bohr) occupying 0.557014 of unit cell:	Completed after 11 iterations at t[s]:   3702.60
	FillingsUpdate:  mu: -0.142197489  nElectrons: 209.000000  magneticMoment: [ Abs: 0.00000  Tot: +0.00000 ]
	SubspaceRotationAdjust: set factor to 0.499
ElecMinimize: Iter:   2  F: -1623.730641378513610  |grad|_K:  3.205e-07  alpha:  5.167e-01  linmin: -3.263e-07  t[s]:   3724.73
	Linear fluid (dielectric constant: 78.4, screening length: 8.12261 Bohr) occupying 0.556966 of unit cell:	Completed after 13 iterations at t[s]:   3742.86
	Linear fluid (dielectric constant: 78.4, screening length: 8.12261 Bohr) occupying 0.556984 of unit cell:	Completed after 10 iterations at t[s]:   3757.39
	FillingsUpdate:  mu: -0.143669013  nElectrons: 209.000000  magneticMoment: [ Abs: 0.00000  Tot: +0.00000 ]
	SubspaceRotationAdjust: set factor to 0.377
ElecMinimize: Iter:   3  F: -1623.730653298802054  |grad|_K:  2.041e-07  alpha:  3.175e-01  linmin:  1.019e-07  t[s]:   3779.93
	Linear fluid (dielectric constant: 78.4, screening length: 8.12261 Bohr) occupying 0.557002 of unit cell:	Completed after 12 iterations at t[s]:   3798.36
	Linear fluid (dielectric constant: 78.4, screening length: 8.12261 Bohr) occupying 0.556997 of unit cell:	Completed after 11 iterations at t[s]:   3813.07
	FillingsUpdate:  mu: -0.142577420  nElectrons: 209.000000  magneticMoment: [ Abs: 0.00000  Tot: +0.00000 ]
	SubspaceRotationAdjust: set factor to 0.242
ElecMinimize: Iter:   4  F: -1623.730656751876268  |grad|_K:  1.204e-07  alpha:  2.270e-01  linmin:  3.995e-07  t[s]:   3835.60
	Linear fluid (dielectric constant: 78.4, screening length: 8.12261 Bohr) occupying 0.556992 of unit cell:	Completed after 9 iterations at t[s]:   3853.23
	Linear fluid (dielectric constant: 78.4, screening length: 8.12261 Bohr) occupying 0.556990 of unit cell:	Completed after 2 iterations at t[s]:   3867.35
	FillingsUpdate:  mu: -0.142920321  nElectrons: 209.000000  magneticMoment: [ Abs: 0.00000  Tot: +0.00000 ]
	SubspaceRotationAdjust: set factor to 0.288
ElecMinimize: Iter:   5  F: -1623.730658376534393  |grad|_K:  5.715e-08  alpha:  3.065e-01  linmin: -1.464e-04  t[s]:   3889.96
	Linear fluid (dielectric constant: 78.4, screening length: 8.12261 Bohr) occupying 0.556988 of unit cell:	Completed after 10 iterations at t[s]:   3907.91
	Linear fluid (dielectric constant: 78.4, screening length: 8.12261 Bohr) occupying 0.556988 of unit cell:	Completed after 0 iterations at t[s]:   3921.73
	FillingsUpdate:  mu: -0.143125049  nElectrons: 209.000000  magneticMoment: [ Abs: 0.00000  Tot: +0.00000 ]
	SubspaceRotationAdjust: set factor to 0.265
ElecMinimize: Iter:   6  F: -1623.730658769005913  |grad|_K:  3.538e-08  alpha:  3.259e-01  linmin: -1.497e-03  t[s]:   3944.32
	Linear fluid (dielectric constant: 78.4, screening length: 8.12261 Bohr) occupying 0.556991 of unit cell:	Completed after 7 iterations at t[s]:   3962.14
	Linear fluid (dielectric constant: 78.4, screening length: 8.12261 Bohr) occupying 0.556991 of unit cell:	Completed after 0 iterations at t[s]:   3975.98
	FillingsUpdate:  mu: -0.142946397  nElectrons: 209.000000  magneticMoment: [ Abs: 0.00000  Tot: +0.00000 ]
	SubspaceRotationAdjust: set factor to 0.207
ElecMinimize: Iter:   7  F: -1623.730658922901057  |grad|_K:  2.066e-08  alpha:  3.243e-01  linmin:  4.398e-04  t[s]:   3998.68
	Linear fluid (dielectric constant: 78.4, screening length: 8.12261 Bohr) occupying 0.556991 of unit cell:	Completed after 2 iterations at t[s]:   4016.35
	Linear fluid (dielectric constant: 78.4, screening length: 8.12261 Bohr) occupying 0.556991 of unit cell:	Completed after 0 iterations at t[s]:   4030.22
	FillingsUpdate:  mu: -0.142968929  nElectrons: 209.000000  magneticMoment: [ Abs: 0.00000  Tot: +0.00000 ]
	SubspaceRotationAdjust: set factor to 0.24
ElecMinimize: Iter:   8  F: -1623.730658974563084  |grad|_K:  1.370e-08  alpha:  3.349e-01  linmin: -9.693e-04  t[s]:   4052.99
	Linear fluid (dielectric constant: 78.4, screening length: 8.12261 Bohr) occupying 0.556990 of unit cell:	Completed after 3 iterations at t[s]:   4070.34
	Linear fluid (dielectric constant: 78.4, screening length: 8.12261 Bohr) occupying 0.556990 of unit cell:	Completed after 0 iterations at t[s]:   4084.18
	FillingsUpdate:  mu: -0.143011484  nElectrons: 209.000000  magneticMoment: [ Abs: 0.00000  Tot: +0.00000 ]
	SubspaceRotationAdjust: set factor to 0.233
ElecMinimize: Iter:   9  F: -1623.730658995303429  |grad|_K:  8.647e-09  alpha:  2.993e-01  linmin: -1.301e-03  t[s]:   4106.94
ElecMinimize: Converged (|Delta F|<1.000000e-07 for 2 iters).
Setting wave functions to eigenvectors of Hamiltonian
Converging empty states (this may take a while): |deigs|: 5.083e-08

Computing DFT-D3 correction:
# coordination-number Ag 5.389 5.387 7.643 9.163 9.183 9.211 9.221 9.212 9.184 9.166 7.645
# diagonal-C6 Ag 268.61 268.61 268.61 268.61 268.61 268.61 268.61 268.61 268.61 268.61 268.61
EvdW_6 =   -0.070422
EvdW_8 =   -0.095592

# Ionic positions in cartesian coordinates:
ion Ag  -0.000036696038325  -0.003662148472702  24.262670231529398 1
ion Ag   0.000098167058144   4.906820225576695   1.160368264284987 1
ion Ag   2.710110640382245   0.813243096026863   3.448729476969709 1
ion Ag   2.710271509204910   5.722717190295637   5.775759822012752 1
ion Ag   0.000055681058661   1.632400303549474   8.095090859440605 1
ion Ag   0.000090521988739   6.535887478646832  10.400818359568390 1
ion Ag   2.710145672964502   2.451526026622513  12.712309995394540 1
ion Ag   2.710277466431129   7.355987981792191  15.023998200140220 1
ion Ag  -0.000149706195585   3.270387799610825  17.329382871265647 1
ion Ag   0.000018919399057   8.168963134017396  19.648566335604979 1
ion Ag   2.710238823746522   4.089689912334277  21.975387583788773 1

# Forces in Cartesian coordinates:
force Ag  -0.000013404515219  -0.001034538416609  -0.001338095623682 1
force Ag   0.000032226080502   0.001097140052093   0.001051032026293 1
force Ag  -0.000034217794248  -0.000918465160095  -0.005246751823235 1
force Ag   0.000015166654542   0.000580208922445  -0.000702434332594 1
force Ag   0.000014988712878  -0.000525282849341   0.000903385014477 1
force Ag   0.000027517315834  -0.000465078168160  -0.000117504763525 1
force Ag  -0.000024664538327   0.000014380579746  -0.000023973713557 1
force Ag   0.000015816523969   0.000493400620122   0.000147314904939 1
force Ag  -0.000045463888765   0.000479485783239  -0.000912657453249 1
force Ag   0.000005770092737  -0.000614129388650   0.000698532272133 1
force Ag   0.000006032884588   0.000912388176336   0.005246256985161 1

# Energy components:
   A_diel =       -0.0008364185624559
   Eewald =    14802.8726356805364048
       EH =    16268.6959160974529368
     Eloc =   -32950.3753077136134380
      Enl =       43.3851473349609051
     EvdW =       -0.1660140824817092
      Exc =     -159.4220387957597040
 Exc_core =        2.2898748679424967
       KE =      368.9902044195624740
-------------------------------------
     Etot =    -1623.7304186099627259
       TS =        0.0002403853407964
-------------------------------------
        F =    -1623.7306589953034290


Dumping 'jdft.fillings' ... done
Dumping 'jdft.wfns' ... done
Dumping 'jdft.fluidState' ... done
Dumping 'jdft.ionpos' ... done
Dumping 'jdft.lattice' ... done
Dumping 'jdft.eigenvals' ... done
Dumping 'jdft.eigStats' ... 
	eMin: -3.528583 at state 91 ( [ +0.000000 +0.000000 +0.000000 ] spin -1 )
	HOMO: -0.144158 at state 176 ( [ -0.076923 +0.142857 +0.000000 ] spin -1 )
	mu  : -0.143011
	LUMO: -0.142801 at state 37 ( [ +0.384615 +0.285714 +0.000000 ] spin 1 )
	eMax: +0.187055 at state 44 ( [ +0.461538 +0.285714 +0.000000 ] spin 1 )
	HOMO-LUMO gap: +0.001357
	Optical gap  : +0.007001 at state 135 ( [ +0.461538 +0.285714 +0.000000 ] spin -1 )
Dumping 'jdft.Ecomponents' ... done
IonicMinimize: Iter:   1  F: -1623.730658995303429  |grad|_K:  1.417e-03  alpha:  3.000e+00  linmin: -9.921e-01  t[s]:   4160.24

#--- Lowdin population analysis ---
# oxidation-state Ag +0.101 +0.101 -0.039 -0.039 +0.003 +0.001 +0.002 +0.001 +0.003 -0.039 -0.039
# magnetic-moments Ag -0.000 +0.000 -0.000 -0.000 -0.000 +0.000 -0.000 +0.000 +0.000 -0.000 +0.000


Computing DFT-D3 correction:
# coordination-number Ag 5.486 5.478 7.546 9.111 9.070 9.192 9.205 9.186 9.060 9.108 7.545
# diagonal-C6 Ag 268.61 268.61 268.61 268.61 268.61 268.61 268.61 268.61 268.61 268.61 268.61
EvdW_6 =   -0.070205
EvdW_8 =   -0.095331

-------- Electronic minimization -----------
	Linear fluid (dielectric constant: 78.4, screening length: 8.12261 Bohr) occupying 0.556996 of unit cell:	Completed after 23 iterations at t[s]:   4178.93
	FillingsUpdate:  mu: +0.109994268  nElectrons: 209.000000  magneticMoment: [ Abs: 0.00000  Tot: +0.00000 ]
ElecMinimize: Iter:   0  F: -1622.899059917805744  |grad|_K:  9.205e-05  alpha:  1.000e+00
	Linear fluid (dielectric constant: 78.4, screening length: 8.12261 Bohr) occupying 0.540012 of unit cell:	Completed after 24 iterations at t[s]:   4223.36
	Linear fluid (dielectric constant: 78.4, screening length: 8.12261 Bohr) occupying 0.552995 of unit cell:	Completed after 25 iterations at t[s]:   4239.14
	FillingsUpdate:  mu: -0.294063549  nElectrons: 209.000000  magneticMoment: [ Abs: 0.00000  Tot: +0.00000 ]
	SubspaceRotationAdjust: set factor to 0.153
ElecMinimize: Iter:   1  F: -1623.621004992324515  |grad|_K:  3.034e-05  alpha:  2.523e-01  linmin:  6.583e-03  t[s]:   4261.66
	Linear fluid (dielectric constant: 78.4, screening length: 8.12261 Bohr) occupying 0.555297 of unit cell:	Completed after 23 iterations at t[s]:   4280.58
	Linear fluid (dielectric constant: 78.4, screening length: 8.12261 Bohr) occupying 0.555434 of unit cell:	Completed after 14 iterations at t[s]:   4295.50
	FillingsUpdate:  mu: -0.161545241  nElectrons: 209.000000  magneticMoment: [ Abs: 0.00000  Tot: +0.00000 ]
	SubspaceRotationAdjust: set factor to 0.215
ElecMinimize: Iter:   2  F: -1623.704624894270410  |grad|_K:  8.640e-06  alpha:  2.671e-01  linmin: -1.849e-04  t[s]:   4317.89
	Linear fluid (dielectric constant: 78.4, screening length: 8.12261 Bohr) occupying 0.555884 of unit cell:	Completed after 15 iterations at t[s]:   4336.23
	Linear fluid (dielectric constant: 78.4, screening length: 8.12261 Bohr) occupying 0.555996 of unit cell:	Completed after 14 iterations at t[s]:   4351.17
	FillingsUpdate:  mu: -0.147980941  nElectrons: 209.000000  magneticMoment: [ Abs: 0.00000  Tot: +0.00000 ]
	SubspaceRotationAdjust: set factor to 0.272
ElecMinimize: Iter:   3  F: -1623.713751418691345  |grad|_K:  5.459e-06  alpha:  3.333e-01  linmin: -2.765e-05  t[s]:   4373.86
	Linear fluid (dielectric constant: 78.4, screening length: 8.12261 Bohr) occupying 0.556389 of unit cell:	Completed after 15 iterations at t[s]:   4392.14
	Linear fluid (dielectric constant: 78.4, screening length: 8.12261 Bohr) occupying 0.556544 of unit cell:	Completed after 14 iterations at t[s]:   4407.14
	FillingsUpdate:  mu: -0.148337614  nElectrons: 209.000000  magneticMoment: [ Abs: 0.00000  Tot: +0.00000 ]
	SubspaceRotationAdjust: set factor to 0.367
ElecMinimize: Iter:   4  F: -1623.718838187414804  |grad|_K:  4.898e-06  alpha:  4.665e-01  linmin: -5.289e-06  t[s]:   4429.71
	Linear fluid (dielectric constant: 78.4, screening length: 8.12261 Bohr) occupying 0.557242 of unit cell:	Completed after 15 iterations at t[s]:   4447.69
	Linear fluid (dielectric constant: 78.4, screening length: 8.12261 Bohr) occupying 0.557535 of unit cell:	Completed after 14 iterations at t[s]:   4462.64
	FillingsUpdate:  mu: -0.132570049  nElectrons: 209.000000  magneticMoment: [ Abs: 0.00000  Tot: +0.00000 ]
	SubspaceRotationAdjust: set factor to 0.457
ElecMinimize: Iter:   5  F: -1623.724763142899292  |grad|_K:  4.331e-06  alpha:  6.726e-01  linmin: -5.504e-05  t[s]:   4485.29
	Linear fluid (dielectric constant: 78.4, screening length: 8.12261 Bohr) occupying 0.557487 of unit cell:	Completed after 17 iterations at t[s]:   4503.87
	Linear fluid (dielectric constant: 78.4, screening length: 8.12261 Bohr) occupying 0.557512 of unit cell:	Completed after 13 iterations at t[s]:   4518.68
	FillingsUpdate:  mu: -0.146447975  nElectrons: 209.000000  magneticMoment: [ Abs: 0.00000  Tot: +0.00000 ]
	SubspaceRotationAdjust: set factor to 0.491
ElecMinimize: Iter:   6  F: -1623.728221489555835  |grad|_K:  3.841e-06  alpha:  5.011e-01  linmin: -7.571e-06  t[s]:   4541.29
	Linear fluid (dielectric constant: 78.4, screening length: 8.12261 Bohr) occupying 0.557594 of unit cell:	Completed after 18 iterations at t[s]:   4559.66
	Linear fluid (dielectric constant: 78.4, screening length: 8.12261 Bohr) occupying 0.557575 of unit cell:	Completed after 15 iterations at t[s]:   4574.62
	FillingsUpdate:  mu: -0.133999684  nElectrons: 209.000000  magneticMoment: [ Abs: 0.00000  Tot: +0.00000 ]
	SubspaceRotationAdjust: set factor to 0.436
ElecMinimize: Iter:   7  F: -1623.729997678249674  |grad|_K:  2.764e-06  alpha:  3.257e-01  linmin: -4.946e-06  t[s]:   4597.18
	Linear fluid (dielectric constant: 78.4, screening length: 8.12261 Bohr) occupying 0.557129 of unit cell:	Completed after 19 iterations at t[s]:   4615.85
	Linear fluid (dielectric constant: 78.4, screening length: 8.12261 Bohr) occupying 0.557208 of unit cell:	Completed after 12 iterations at t[s]:   4630.64
	FillingsUpdate:  mu: -0.148754313  nElectrons: 209.000000  magneticMoment: [ Abs: 0.00000  Tot: +0.00000 ]
	SubspaceRotationAdjust: set factor to 0.301
ElecMinimize: Iter:   8  F: -1623.730747645221300  |grad|_K:  1.817e-06  alpha:  2.684e-01  linmin: -1.116e-06  t[s]:   4653.31
	Linear fluid (dielectric constant: 78.4, screening length: 8.12261 Bohr) occupying 0.557197 of unit cell:	Completed after 14 iterations at t[s]:   4671.49
	Linear fluid (dielectric constant: 78.4, screening length: 8.12261 Bohr) occupying 0.557197 of unit cell:	Completed after 10 iterations at t[s]:   4686.07
	FillingsUpdate:  mu: -0.141970129  nElectrons: 209.000000  magneticMoment: [ Abs: 0.00000  Tot: +0.00000 ]
	SubspaceRotationAdjust: set factor to 0.253
ElecMinimize: Iter:   9  F: -1623.731094104801741  |grad|_K:  1.052e-06  alpha:  2.871e-01  linmin: -4.047e-07  t[s]:   4708.58
	Linear fluid (dielectric constant: 78.4, screening length: 8.12261 Bohr) occupying 0.557133 of unit cell:	Completed after 11 iterations at t[s]:   4726.61
	Linear fluid (dielectric constant: 78.4, screening length: 8.12261 Bohr) occupying 0.557112 of unit cell:	Completed after 4 iterations at t[s]:   4740.95
	FillingsUpdate:  mu: -0.142046619  nElectrons: 209.000000  magneticMoment: [ Abs: 0.00000  Tot: +0.00000 ]
	SubspaceRotationAdjust: set factor to 0.304
ElecMinimize: Iter:  10  F: -1623.731246625426593  |grad|_K:  7.128e-07  alpha:  3.774e-01  linmin:  7.497e-06  t[s]:   4763.59
	Linear fluid (dielectric constant: 78.4, screening length: 8.12261 Bohr) occupying 0.557016 of unit cell:	Completed after 12 iterations at t[s]:   4781.52
	Linear fluid (dielectric constant: 78.4, screening length: 8.12261 Bohr) occupying 0.557018 of unit cell:	Completed after 3 iterations at t[s]:   4795.55
	FillingsUpdate:  mu: -0.144865962  nElectrons: 209.000000  magneticMoment: [ Abs: 0.00000  Tot: +0.00000 ]
	SubspaceRotationAdjust: set factor to 0.326
ElecMinimize: Iter:  11  F: -1623.731315126678965  |grad|_K:  4.904e-07  alpha:  3.691e-01  linmin:  1.555e-06  t[s]:   4818.15
	Linear fluid (dielectric constant: 78.4, screening length: 8.12261 Bohr) occupying 0.557007 of unit cell:	Completed after 10 iterations at t[s]:   4836.31
	Linear fluid (dielectric constant: 78.4, screening length: 8.12261 Bohr) occupying 0.557006 of unit cell:	Completed after 6 iterations at t[s]:   4850.49
	FillingsUpdate:  mu: -0.142970248  nElectrons: 209.000000  magneticMoment: [ Abs: 0.00000  Tot: +0.00000 ]
	SubspaceRotationAdjust: set factor to 0.4
ElecMinimize: Iter:  12  F: -1623.731349980550704  |grad|_K:  3.873e-07  alpha:  3.965e-01  linmin: -1.367e-05  t[s]:   4873.02
	Linear fluid (dielectric constant: 78.4, screening length: 8.12261 Bohr) occupying 0.556977 of unit cell:	Completed after 9 iterations at t[s]:   4891.05
	Linear fluid (dielectric constant: 78.4, screening length: 8.12261 Bohr) occupying 0.556974 of unit cell:	Completed after 3 iterations at t[s]:   4905.66
	FillingsUpdate:  mu: -0.143670241  nElectrons: 209.000000  magneticMoment: [ Abs: 0.00000  Tot: +0.00000 ]
	SubspaceRotationAdjust: set factor to 0.524
ElecMinimize: Iter:  13  F: -1623.731374129100004  |grad|_K:  3.215e-07  alpha:  4.399e-01  linmin: -3.090e-06  t[s]:   4928.29
	Linear fluid (dielectric constant: 78.4, screening length: 8.12261 Bohr) occupying 0.556966 of unit cell:	Completed after 11 iterations at t[s]:   4946.29
	Linear fluid (dielectric constant: 78.4, screening length: 8.12261 Bohr) occupying 0.556965 of unit cell:	Completed after 2 iterations at t[s]:   4960.34
	FillingsUpdate:  mu: -0.144350880  nElectrons: 209.000000  magneticMoment: [ Abs: 0.00000  Tot: +0.00000 ]
	SubspaceRotationAdjust: set factor to 0.644
ElecMinimize: Iter:  14  F: -1623.731391672162772  |grad|_K:  2.849e-07  alpha:  4.639e-01  linmin: -1.099e-05  t[s]:   4982.82
	Linear fluid (dielectric constant: 78.4, screening length: 8.12261 Bohr) occupying 0.557025 of unit cell:	Completed after 12 iterations at t[s]:   5000.84
	Linear fluid (dielectric constant: 78.4, screening length: 8.12261 Bohr) occupying 0.557002 of unit cell:	Completed after 11 iterations at t[s]:   5015.54
	FillingsUpdate:  mu: -0.142688972  nElectrons: 209.000000  magneticMoment: [ Abs: 0.00000  Tot: +0.00000 ]
	SubspaceRotationAdjust: set factor to 0.536
ElecMinimize: Iter:  15  F: -1623.731400083509470  |grad|_K:  2.652e-07  alpha:  2.824e-01  linmin:  2.250e-06  t[s]:   5038.12
	Linear fluid (dielectric constant: 78.4, screening length: 8.12261 Bohr) occupying 0.556996 of unit cell:	Completed after 11 iterations at t[s]:   5056.24
	Linear fluid (dielectric constant: 78.4, screening length: 8.12261 Bohr) occupying 0.556997 of unit cell:	Completed after 10 iterations at t[s]:   5070.85
	FillingsUpdate:  mu: -0.143799622  nElectrons: 209.000000  magneticMoment: [ Abs: 0.00000  Tot: +0.00000 ]
	SubspaceRotationAdjust: set factor to 0.387
ElecMinimize: Iter:  16  F: -1623.731405795351748  |grad|_K:  1.623e-07  alpha:  2.225e-01  linmin:  8.570e-08  t[s]:   5093.50
	Linear fluid (dielectric constant: 78.4, screening length: 8.12261 Bohr) occupying 0.557007 of unit cell:	Completed after 9 iterations at t[s]:   5111.27
	Linear fluid (dielectric constant: 78.4, screening length: 8.12261 Bohr) occupying 0.557014 of unit cell:	Completed after 5 iterations at t[s]:   5125.58
	FillingsUpdate:  mu: -0.143489411  nElectrons: 209.000000  magneticMoment: [ Abs: 0.00000  Tot: +0.00000 ]
	SubspaceRotationAdjust: set factor to 0.375
ElecMinimize: Iter:  17  F: -1623.731409228342045  |grad|_K:  1.132e-07  alpha:  3.563e-01  linmin: -3.503e-06  t[s]:   5148.20
	Linear fluid (dielectric constant: 78.4, screening length: 8.12261 Bohr) occupying 0.557024 of unit cell:	Completed after 3 iterations at t[s]:   5165.60
	Linear fluid (dielectric constant: 78.4, screening length: 8.12261 Bohr) occupying 0.557025 of unit cell:	Completed after 2 iterations at t[s]:   5179.65
	FillingsUpdate:  mu: -0.143467639  nElectrons: 209.000000  magneticMoment: [ Abs: 0.00000  Tot: +0.00000 ]
	SubspaceRotationAdjust: set factor to 0.406
ElecMinimize: Iter:  18  F: -1623.731411062856296  |grad|_K:  7.785e-08  alpha:  3.918e-01  linmin:  9.952e-06  t[s]:   5202.95
	Linear fluid (dielectric constant: 78.4, screening length: 8.12261 Bohr) occupying 0.557028 of unit cell:	Completed after 5 iterations at t[s]:   5220.60
	Linear fluid (dielectric constant: 78.4, screening length: 8.12261 Bohr) occupying 0.557029 of unit cell:	Completed after 0 iterations at t[s]:   5234.46
	FillingsUpdate:  mu: -0.143603625  nElectrons: 209.000000  magneticMoment: [ Abs: 0.00000  Tot: +0.00000 ]
	SubspaceRotationAdjust: set factor to 0.484
ElecMinimize: Iter:  19  F: -1623.731411937659914  |grad|_K:  6.073e-08  alpha:  3.952e-01  linmin: -1.449e-05  t[s]:   5257.06
	Linear fluid (dielectric constant: 78.4, screening length: 8.12261 Bohr) occupying 0.557034 of unit cell:	Completed after 5 iterations at t[s]:   5274.49
	Linear fluid (dielectric constant: 78.4, screening length: 8.12261 Bohr) occupying 0.557035 of unit cell:	Completed after 0 iterations at t[s]:   5288.24
	FillingsUpdate:  mu: -0.143478348  nElectrons: 209.000000  magneticMoment: [ Abs: 0.00000  Tot: +0.00000 ]
	SubspaceRotationAdjust: set factor to 0.598
ElecMinimize: Iter:  20  F: -1623.731412498389091  |grad|_K:  4.980e-08  alpha:  4.157e-01  linmin: -6.887e-05  t[s]:   5310.86
	Linear fluid (dielectric constant: 78.4, screening length: 8.12261 Bohr) occupying 0.557034 of unit cell:	Completed after 5 iterations at t[s]:   5328.63
	Linear fluid (dielectric constant: 78.4, screening length: 8.12261 Bohr) occupying 0.557034 of unit cell:	Completed after 0 iterations at t[s]:   5342.55
	FillingsUpdate:  mu: -0.143579629  nElectrons: 209.000000  magneticMoment: [ Abs: 0.00000  Tot: +0.00000 ]
	SubspaceRotationAdjust: set factor to 0.736
ElecMinimize: Iter:  21  F: -1623.731412851539744  |grad|_K:  4.301e-08  alpha:  3.869e-01  linmin:  7.093e-05  t[s]:   5365.19
	Linear fluid (dielectric constant: 78.4, screening length: 8.12261 Bohr) occupying 0.557036 of unit cell:	Completed after 5 iterations at t[s]:   5382.79
	Linear fluid (dielectric constant: 78.4, screening length: 8.12261 Bohr) occupying 0.557036 of unit cell:	Completed after 2 iterations at t[s]:   5397.08
	FillingsUpdate:  mu: -0.143465107  nElectrons: 209.000000  magneticMoment: [ Abs: 0.00000  Tot: +0.00000 ]
	SubspaceRotationAdjust: set factor to 0.763
ElecMinimize: Iter:  22  F: -1623.731413069587234  |grad|_K:  3.613e-08  alpha:  3.282e-01  linmin: -3.762e-06  t[s]:   5419.76
	Linear fluid (dielectric constant: 78.4, screening length: 8.12261 Bohr) occupying 0.557030 of unit cell:	Completed after 7 iterations at t[s]:   5437.44
	Linear fluid (dielectric constant: 78.4, screening length: 8.12261 Bohr) occupying 0.557032 of unit cell:	Completed after 2 iterations at t[s]:   5451.49
	FillingsUpdate:  mu: -0.143650927  nElectrons: 209.000000  magneticMoment: [ Abs: 0.00000  Tot: -0.00000 ]
	SubspaceRotationAdjust: set factor to 0.588
ElecMinimize: Iter:  23  F: -1623.731413174525869  |grad|_K:  3.324e-08  alpha:  2.202e-01  linmin:  6.892e-05  t[s]:   5474.04
	Linear fluid (dielectric constant: 78.4, screening length: 8.12261 Bohr) occupying 0.557034 of unit cell:	Completed after 7 iterations at t[s]:   5491.75
	Linear fluid (dielectric constant: 78.4, screening length: 8.12261 Bohr) occupying 0.557034 of unit cell:	Completed after 0 iterations at t[s]:   5506.42
	FillingsUpdate:  mu: -0.143480462  nElectrons: 209.000000  magneticMoment: [ Abs: 0.00000  Tot: -0.00000 ]
	SubspaceRotationAdjust: set factor to 0.374
ElecMinimize: Iter:  24  F: -1623.731413247379123  |grad|_K:  2.294e-08  alpha:  1.837e-01  linmin:  1.457e-04  t[s]:   5529.07
	Linear fluid (dielectric constant: 78.4, screening length: 8.12261 Bohr) occupying 0.557032 of unit cell:	Completed after 2 iterations at t[s]:   5546.27
	Linear fluid (dielectric constant: 78.4, screening length: 8.12261 Bohr) occupying 0.557031 of unit cell:	Completed after 0 iterations at t[s]:   5560.10
	FillingsUpdate:  mu: -0.143529714  nElectrons: 209.000000  magneticMoment: [ Abs: 0.00000  Tot: -0.00000 ]
	SubspaceRotationAdjust: set factor to 0.367
ElecMinimize: Iter:  25  F: -1623.731413293968671  |grad|_K:  1.623e-08  alpha:  2.389e-01  linmin: -7.086e-04  t[s]:   5582.60
ElecMinimize: Converged (|Delta F|<1.000000e-07 for 2 iters).
Setting wave functions to eigenvectors of Hamiltonian
Converging empty states (this may take a while): |deigs|: 7.829e-06

Computing DFT-D3 correction:
# coordination-number Ag 5.486 5.478 7.546 9.111 9.070 9.192 9.205 9.186 9.060 9.108 7.545
# diagonal-C6 Ag 268.61 268.61 268.61 268.61 268.61 268.61 268.61 268.61 268.61 268.61 268.61
EvdW_6 =   -0.070205
EvdW_8 =   -0.095331

# Ionic positions in cartesian coordinates:
ion Ag  -0.000383687834557  -0.022274150164790  24.251322386211847 1
ion Ag   0.000816049101721   4.926820920094774   1.170879154143090 1
ion Ag   2.709441285951061   0.803425603847377   3.352848693586480 1
ion Ag   2.710606271624933   5.727782696446864   5.764628074244899 1
ion Ag   0.000298706984454   1.623549858318842   8.088931944478061 1
ion Ag   0.000633340629731   6.525176335486547  10.395931186833820 1
ion Ag   2.709635086061971   2.451797960574687  12.710328889416543 1
ion Ag   2.710587071287514   7.367004145631213  15.027116610479492 1
ion Ag  -0.001075317925064   3.278447828998345  17.335130707466867 1
ion Ag   0.000118359342849   8.162835073204418  19.661049011755178 1
ion Ag   2.710443834775386   4.099394727561726  22.074915341383722 1

# Forces in Cartesian coordinates:
force Ag  -0.000011169023007  -0.000353065683146   0.000007222445571 1
force Ag   0.000034461966452   0.000363743230394  -0.000211487357672 1
force Ag  -0.000019182822748   0.000038965514512  -0.001852095773855 1
force Ag   0.000007035201240   0.000236571974093  -0.000295942204802 1
force Ag   0.000002390677398  -0.000439046678463  -0.000940253178435 1
force Ag   0.000015345390269  -0.000055921051487  -0.000096930841241 1
force Ag  -0.000011215151548   0.000016359053219   0.000090723319995 1
force Ag   0.000005119408970   0.000086418113241   0.000231976510245 1
force Ag  -0.000020767089178   0.000423798257348   0.000929497810164 1
force Ag   0.000007867014494  -0.000270085494949   0.000189192269979 1
force Ag  -0.000005426405139   0.000000882581448   0.001840317925623 1

# Energy components:
   A_diel =       -0.0008549423684060
   Eewald =    14753.9669956107063626
       EH =    16219.7381491952601209
     Eloc =   -32852.5057365906832274
      Enl =       43.3865910158200379
     EvdW =       -0.1655355657204874
      Exc =     -159.4157494867098990
 Exc_core =        2.2898753631321487
       KE =      368.9750991242768805
-------------------------------------
     Etot =    -1623.7311662762858759
       TS =        0.0002470176828549
-------------------------------------
        F =    -1623.7314132939686715


Dumping 'jdft.fillings' ... done
Dumping 'jdft.wfns' ... done
Dumping 'jdft.fluidState' ... done
Dumping 'jdft.ionpos' ... done
Dumping 'jdft.lattice' ... done
Dumping 'jdft.eigenvals' ... done
Dumping 'jdft.eigStats' ... 
	eMin: -3.528975 at state 0 ( [ +0.000000 +0.000000 +0.000000 ] spin 1 )
	HOMO: -0.144465 at state 44 ( [ +0.461538 +0.285714 +0.000000 ] spin 1 )
	mu  : -0.143530
	LUMO: -0.143232 at state 152 ( [ -0.384615 -0.285714 +0.000000 ] spin -1 )
	eMax: +0.186392 at state 54 ( [ -0.461538 -0.285714 +0.000000 ] spin 1 )
	HOMO-LUMO gap: +0.001233
	Optical gap  : +0.006977 at state 54 ( [ -0.461538 -0.285714 +0.000000 ] spin 1 )
Dumping 'jdft.Ecomponents' ... done
IonicMinimize: Iter:   2  F: -1623.731413293968671  |grad|_K:  5.387e-04  alpha:  7.717e-01  linmin: -8.929e-01  t[s]:   5672.83

#--- Lowdin population analysis ---
# oxidation-state Ag +0.096 +0.096 -0.037 -0.038 +0.006 +0.000 +0.002 +0.000 +0.006 -0.038 -0.037
# magnetic-moments Ag +0.000 +0.000 -0.000 +0.000 +0.000 -0.000 -0.000 -0.000 +0.000 -0.000 +0.000


Computing DFT-D3 correction:
# coordination-number Ag 5.538 5.524 7.492 9.070 8.980 9.150 9.130 9.156 8.980 9.078 7.491
# diagonal-C6 Ag 268.61 268.61 268.61 268.61 268.61 268.61 268.61 268.61 268.61 268.61 268.61
EvdW_6 =   -0.069996
EvdW_8 =   -0.095094

-------- Electronic minimization -----------
	Linear fluid (dielectric constant: 78.4, screening length: 8.12261 Bohr) occupying 0.557026 of unit cell:	Completed after 23 iterations at t[s]:   5691.30
	FillingsUpdate:  mu: +0.112873285  nElectrons: 209.000000  magneticMoment: [ Abs: 0.00000  Tot: -0.00000 ]
ElecMinimize: Iter:   0  F: -1623.214186011199899  |grad|_K:  7.675e-05  alpha:  1.000e+00
	Linear fluid (dielectric constant: 78.4, screening length: 8.12261 Bohr) occupying 0.529267 of unit cell:	Completed after 24 iterations at t[s]:   5735.94
	Linear fluid (dielectric constant: 78.4, screening length: 8.12261 Bohr) occupying 0.552375 of unit cell:	Completed after 25 iterations at t[s]:   5751.66
	FillingsUpdate:  mu: -0.289482552  nElectrons: 209.000000  magneticMoment: [ Abs: 0.00000  Tot: -0.00000 ]
	SubspaceRotationAdjust: set factor to 0.198
ElecMinimize: Iter:   1  F: -1623.628183707625340  |grad|_K:  3.008e-05  alpha:  1.917e-01  linmin: -2.248e-04  t[s]:   5774.28
	Linear fluid (dielectric constant: 78.4, screening length: 8.12261 Bohr) occupying 0.554875 of unit cell:	Completed after 23 iterations at t[s]:   5793.11
	Linear fluid (dielectric constant: 78.4, screening length: 8.12261 Bohr) occupying 0.555598 of unit cell:	Completed after 21 iterations at t[s]:   5809.11
	FillingsUpdate:  mu: -0.143685614  nElectrons: 209.000000  magneticMoment: [ Abs: 0.00000  Tot: +0.00000 ]
	SubspaceRotationAdjust: set factor to 0.171
ElecMinimize: Iter:   2  F: -1623.710469514706801  |grad|_K:  9.836e-06  alpha:  2.475e-01  linmin: -1.619e-04  t[s]:   5831.76
	Linear fluid (dielectric constant: 78.4, screening length: 8.12261 Bohr) occupying 0.555980 of unit cell:	Completed after 15 iterations at t[s]:   5850.07
	Linear fluid (dielectric constant: 78.4, screening length: 8.12261 Bohr) occupying 0.556040 of unit cell:	Completed after 9 iterations at t[s]:   5864.65
	FillingsUpdate:  mu: -0.146617230  nElectrons: 209.000000  magneticMoment: [ Abs: 0.00000  Tot: +0.00000 ]
	SubspaceRotationAdjust: set factor to 0.215
ElecMinimize: Iter:   3  F: -1623.720673536019831  |grad|_K:  4.662e-06  alpha:  2.870e-01  linmin: -1.092e-05  t[s]:   5887.27
	Linear fluid (dielectric constant: 78.4, screening length: 8.12261 Bohr) occupying 0.556208 of unit cell:	Completed after 15 iterations at t[s]:   5905.55
	Linear fluid (dielectric constant: 78.4, screening length: 8.12261 Bohr) occupying 0.556288 of unit cell:	Completed after 14 iterations at t[s]:   5920.36
	FillingsUpdate:  mu: -0.155593278  nElectrons: 209.000000  magneticMoment: [ Abs: 0.00000  Tot: +0.00000 ]
	SubspaceRotationAdjust: set factor to 0.249
ElecMinimize: Iter:   4  F: -1623.724060902279007  |grad|_K:  3.458e-06  alpha:  4.262e-01  linmin: -7.082e-06  t[s]:   5942.88
	Linear fluid (dielectric constant: 78.4, screening length: 8.12261 Bohr) occupying 0.556769 of unit cell:	Completed after 15 iterations at t[s]:   5961.12
	Linear fluid (dielectric constant: 78.4, screening length: 8.12261 Bohr) occupying 0.557005 of unit cell:	Completed after 13 iterations at t[s]:   5975.86
	FillingsUpdate:  mu: -0.134094175  nElectrons: 209.000000  magneticMoment: [ Abs: 0.00000  Tot: +0.00000 ]
	SubspaceRotationAdjust: set factor to 0.289
ElecMinimize: Iter:   5  F: -1623.726858654948728  |grad|_K:  3.319e-06  alpha:  6.398e-01  linmin: -4.036e-06  t[s]:   5998.41
	Linear fluid (dielectric constant: 78.4, screening length: 8.12261 Bohr) occupying 0.557219 of unit cell:	Completed after 15 iterations at t[s]:   6016.59
	Linear fluid (dielectric constant: 78.4, screening length: 8.12261 Bohr) occupying 0.557180 of unit cell:	Completed after 13 iterations at t[s]:   6031.48
	FillingsUpdate:  mu: -0.142459983  nElectrons: 209.000000  magneticMoment: [ Abs: 0.00000  Tot: +0.00000 ]
	SubspaceRotationAdjust: set factor to 0.362
ElecMinimize: Iter:   6  F: -1623.728919229612075  |grad|_K:  2.745e-06  alpha:  5.120e-01  linmin: -4.867e-06  t[s]:   6054.18
	Linear fluid (dielectric constant: 78.4, screening length: 8.12261 Bohr) occupying 0.557203 of unit cell:	Completed after 14 iterations at t[s]:   6072.35
	Linear fluid (dielectric constant: 78.4, screening length: 8.12261 Bohr) occupying 0.557204 of unit cell:	Completed after 7 iterations at t[s]:   6086.64
	FillingsUpdate:  mu: -0.144044058  nElectrons: 209.000000  magneticMoment: [ Abs: 0.00000  Tot: +0.00000 ]
	SubspaceRotationAdjust: set factor to 0.405
ElecMinimize: Iter:   7  F: -1623.730433253568435  |grad|_K:  2.231e-06  alpha:  5.492e-01  linmin:  6.494e-06  t[s]:   6109.40
	Linear fluid (dielectric constant: 78.4, screening length: 8.12261 Bohr) occupying 0.557157 of unit cell:	Completed after 16 iterations at t[s]:   6127.61
	Linear fluid (dielectric constant: 78.4, screening length: 8.12261 Bohr) occupying 0.557173 of unit cell:	Completed after 12 iterations at t[s]:   6142.24
	FillingsUpdate:  mu: -0.138425027  nElectrons: 209.000000  magneticMoment: [ Abs: 0.00000  Tot: +0.00000 ]
	SubspaceRotationAdjust: set factor to 0.413
[...]
	Linear fluid (dielectric constant: 78.4, screening length: 8.12261 Bohr) occupying 0.554494 of unit cell:	Completed after 10 iterations at t[s]:  10679.64
	FillingsUpdate:  mu: -0.144776038  nElectrons: 209.000000  magneticMoment: [ Abs: 0.00000  Tot: -0.00000 ]
	SubspaceRotationAdjust: set factor to 0.42
ElecMinimize: Iter:   8  F: -1623.731700244266221  |grad|_K:  4.989e-07  alpha:  3.742e-01  linmin:  1.671e-06  t[s]:  10702.16
	Linear fluid (dielectric constant: 78.4, screening length: 8.12261 Bohr) occupying 0.554527 of unit cell:	Completed after 10 iterations at t[s]:  10719.83
	Linear fluid (dielectric constant: 78.4, screening length: 8.12261 Bohr) occupying 0.554529 of unit cell:	Completed after 2 iterations at t[s]:  10733.74
	FillingsUpdate:  mu: -0.144664365  nElectrons: 209.000000  magneticMoment: [ Abs: 0.00000  Tot: -0.00000 ]
	SubspaceRotationAdjust: set factor to 0.436
ElecMinimize: Iter:   9  F: -1623.731735704591529  |grad|_K:  2.860e-07  alpha:  3.900e-01  linmin: -5.656e-07  t[s]:  10756.60
	Linear fluid (dielectric constant: 78.4, screening length: 8.12261 Bohr) occupying 0.554564 of unit cell:	Completed after 11 iterations at t[s]:  10774.61
	Linear fluid (dielectric constant: 78.4, screening length: 8.12261 Bohr) occupying 0.554565 of unit cell:	Completed after 2 iterations at t[s]:  10788.71
	FillingsUpdate:  mu: -0.144145235  nElectrons: 209.000000  magneticMoment: [ Abs: 0.00000  Tot: -0.00000 ]
	SubspaceRotationAdjust: set factor to 0.417
ElecMinimize: Iter:  10  F: -1623.731747626778088  |grad|_K:  1.891e-07  alpha:  3.989e-01  linmin: -3.777e-06  t[s]:  10811.27
	Linear fluid (dielectric constant: 78.4, screening length: 8.12261 Bohr) occupying 0.554579 of unit cell:	Completed after 10 iterations at t[s]:  10829.10
	Linear fluid (dielectric constant: 78.4, screening length: 8.12261 Bohr) occupying 0.554577 of unit cell:	Completed after 6 iterations at t[s]:  10843.38
	FillingsUpdate:  mu: -0.144623698  nElectrons: 209.000000  magneticMoment: [ Abs: 0.00000  Tot: -0.00000 ]
	SubspaceRotationAdjust: set factor to 0.334
ElecMinimize: Iter:  11  F: -1623.731752137321564  |grad|_K:  1.232e-07  alpha:  3.449e-01  linmin:  1.075e-05  t[s]:  10865.83
	Linear fluid (dielectric constant: 78.4, screening length: 8.12261 Bohr) occupying 0.554599 of unit cell:	Completed after 10 iterations at t[s]:  10883.55
	Linear fluid (dielectric constant: 78.4, screening length: 8.12261 Bohr) occupying 0.554595 of unit cell:	Completed after 7 iterations at t[s]:  10897.92
	FillingsUpdate:  mu: -0.144123778  nElectrons: 209.000000  magneticMoment: [ Abs: 0.00000  Tot: -0.00000 ]
	SubspaceRotationAdjust: set factor to 0.237
ElecMinimize: Iter:  12  F: -1623.731753660674258  |grad|_K:  7.961e-08  alpha:  2.754e-01  linmin:  5.832e-06  t[s]:  10920.14
	Linear fluid (dielectric constant: 78.4, screening length: 8.12261 Bohr) occupying 0.554599 of unit cell:	Completed after 7 iterations at t[s]:  10937.71
	Linear fluid (dielectric constant: 78.4, screening length: 8.12261 Bohr) occupying 0.554601 of unit cell:	Completed after 2 iterations at t[s]:  10951.78
	FillingsUpdate:  mu: -0.144208291  nElectrons: 209.000000  magneticMoment: [ Abs: 0.00000  Tot: -0.00000 ]
	SubspaceRotationAdjust: set factor to 0.274
ElecMinimize: Iter:  13  F: -1623.731754503159891  |grad|_K:  4.964e-08  alpha:  3.635e-01  linmin: -5.585e-05  t[s]:  10974.31
	Linear fluid (dielectric constant: 78.4, screening length: 8.12261 Bohr) occupying 0.554602 of unit cell:	Completed after 6 iterations at t[s]:  10991.85
	Linear fluid (dielectric constant: 78.4, screening length: 8.12261 Bohr) occupying 0.554602 of unit cell:	Completed after 0 iterations at t[s]:  11005.71
	FillingsUpdate:  mu: -0.144295361  nElectrons: 209.000000  magneticMoment: [ Abs: 0.00000  Tot: -0.00000 ]
	SubspaceRotationAdjust: set factor to 0.297
ElecMinimize: Iter:  14  F: -1623.731754829613465  |grad|_K:  3.462e-08  alpha:  3.607e-01  linmin: -1.459e-04  t[s]:  11028.44
	Linear fluid (dielectric constant: 78.4, screening length: 8.12261 Bohr) occupying 0.554605 of unit cell:	Completed after 6 iterations at t[s]:  11046.13
	Linear fluid (dielectric constant: 78.4, screening length: 8.12261 Bohr) occupying 0.554605 of unit cell:	Completed after 0 iterations at t[s]:  11059.91
	FillingsUpdate:  mu: -0.144198393  nElectrons: 209.000000  magneticMoment: [ Abs: 0.00000  Tot: -0.00000 ]
	SubspaceRotationAdjust: set factor to 0.3
ElecMinimize: Iter:  15  F: -1623.731754989668389  |grad|_K:  2.514e-08  alpha:  3.618e-01  linmin: -9.633e-05  t[s]:  11082.57
	Linear fluid (dielectric constant: 78.4, screening length: 8.12261 Bohr) occupying 0.554605 of unit cell:	Completed after 2 iterations at t[s]:  11099.79
	Linear fluid (dielectric constant: 78.4, screening length: 8.12261 Bohr) occupying 0.554605 of unit cell:	Completed after 0 iterations at t[s]:  11113.65
	FillingsUpdate:  mu: -0.144217431  nElectrons: 209.000000  magneticMoment: [ Abs: 0.00000  Tot: -0.00000 ]
	SubspaceRotationAdjust: set factor to 0.391
ElecMinimize: Iter:  16  F: -1623.731755083823145  |grad|_K:  1.955e-08  alpha:  4.026e-01  linmin: -1.227e-04  t[s]:  11136.19
	Linear fluid (dielectric constant: 78.4, screening length: 8.12261 Bohr) occupying 0.554605 of unit cell:	Completed after 4 iterations at t[s]:  11153.81
	Linear fluid (dielectric constant: 78.4, screening length: 8.12261 Bohr) occupying 0.554605 of unit cell:	Completed after 1 iterations at t[s]:  11167.73
	FillingsUpdate:  mu: -0.144258169  nElectrons: 209.000000  magneticMoment: [ Abs: 0.00000  Tot: -0.00000 ]
	SubspaceRotationAdjust: set factor to 0.416
ElecMinimize: Iter:  17  F: -1623.731755131962018  |grad|_K:  1.708e-08  alpha:  3.423e-01  linmin:  2.753e-05  t[s]:  11190.35
ElecMinimize: Converged (|Delta F|<1.000000e-07 for 2 iters).
Setting wave functions to eigenvectors of Hamiltonian
Converging empty states (this may take a while): |deigs|: 8.717e-08

Computing DFT-D3 correction:
# coordination-number Ag 5.485 5.494 7.455 8.992 8.883 9.030 9.010 9.040 8.888 8.991 7.446
# diagonal-C6 Ag 268.61 268.61 268.61 268.61 268.61 268.61 268.61 268.61 268.61 268.61 268.61
EvdW_6 =   -0.069557
EvdW_8 =   -0.094439

# Ionic positions in cartesian coordinates:
ion Ag  -0.001480605565657  -0.055436773688398  24.339626147216023 1
ion Ag   0.003972569257847   4.960545913806843   1.087176678836884 1
ion Ag   2.709206349224912   0.827475695300901   3.222869369369747 1
ion Ag   2.711248123023521   5.749164752449662   5.694787055814696 1
ion Ag  -0.000122263543419   1.622411532696748   8.018381091202235 1
ion Ag   0.001221293693269   6.528024730179831  10.371750800772237 1
ion Ag   2.708803201907250   2.451346015889998  12.712564972544065 1
ion Ag   2.710212876084749   7.363192636318292  15.055631485381044 1
ion Ag  -0.001986937227377   3.278559854632169  17.403396645951052 1
ion Ag   0.000703769377062   8.141410596599297  19.724876589769799 1
ion Ag   2.709342623767842   4.077266045814661  22.202021163142216 1

# Forces in Cartesian coordinates:
force Ag   0.000007489863494  -0.000140619843502   0.000276039560115 1
force Ag  -0.000005709234601   0.000175725799561   0.000011606388631 1
force Ag   0.000005212315476   0.000114435762043  -0.000059230466015 1
force Ag   0.000003757017209   0.000021411923295   0.000099327118863 1
force Ag   0.000002924589549   0.000338810164091  -0.000065357024299 1
force Ag  -0.000000153843751  -0.000125809304186  -0.000231662754411 1
force Ag   0.000001090375833  -0.000010100654102  -0.000285681297954 1
force Ag   0.000004207167355   0.000141308913517  -0.000251693311117 1
force Ag   0.000005994666487  -0.000306561457809   0.000085795212907 1
force Ag   0.000003831472630   0.000048235436634   0.000310858530718 1
force Ag   0.000002617555328  -0.000169875447782   0.000268405465439 1

# Energy components:
   A_diel =       -0.0008372182559107
   Eewald =    14593.7359579902422411
       EH =    16059.5421467798514641
     Eloc =   -32532.0632530022012361
      Enl =       43.3968488115835527
     EvdW =       -0.1639957096965598
      Exc =     -159.3945679962699273
 Exc_core =        2.2898753812249075
       KE =      368.9263235234340073
-------------------------------------
     Etot =    -1623.7315014400896871
       TS =        0.0002536918722855
-------------------------------------
        F =    -1623.7317551319620179


Dumping 'jdft.fillings' ... done
Dumping 'jdft.wfns' ... done
Dumping 'jdft.fluidState' ... done
Dumping 'jdft.ionpos' ... done
Dumping 'jdft.lattice' ... done
Dumping 'jdft.eigenvals' ... done
Dumping 'jdft.eigStats' ... 
	eMin: -3.528603 at state 0 ( [ +0.000000 +0.000000 +0.000000 ] spin 1 )
	HOMO: -0.144803 at state 8 ( [ +0.076923 +0.142857 +0.000000 ] spin 1 )
	mu  : -0.144258
	LUMO: -0.144111 at state 91 ( [ +0.000000 +0.000000 +0.000000 ] spin -1 )
	eMax: +0.184906 at state 135 ( [ +0.461538 +0.285714 +0.000000 ] spin -1 )
	HOMO-LUMO gap: +0.000692
	Optical gap  : +0.011109 at state 0 ( [ +0.000000 +0.000000 +0.000000 ] spin 1 )
Dumping 'jdft.Ecomponents' ... done
IonicMinimize: Iter:   7  F: -1623.731755131962018  |grad|_K:  1.563e-04  alpha:  1.000e+00  linmin:  1.385e-01  t[s]:  11243.77

#--- Lowdin population analysis ---
# oxidation-state Ag +0.094 +0.094 -0.037 -0.036 +0.007 -0.000 +0.003 -0.001 +0.007 -0.037 -0.037
# magnetic-moments Ag -0.000 -0.000 +0.000 -0.000 +0.000 +0.000 -0.000 -0.000 +0.000 -0.000 +0.000


Computing DFT-D3 correction:
# coordination-number Ag 5.476 5.494 7.459 9.001 8.892 9.030 9.005 9.016 8.865 8.971 7.435
# diagonal-C6 Ag 268.61 268.61 268.61 268.61 268.61 268.61 268.61 268.61 268.61 268.61 268.61
EvdW_6 =   -0.069521
EvdW_8 =   -0.094383

-------- Electronic minimization -----------
	Linear fluid (dielectric constant: 78.4, screening length: 8.12261 Bohr) occupying 0.554381 of unit cell:	Completed after 15 iterations at t[s]:  11263.96
	FillingsUpdate:  mu: -0.143714447  nElectrons: 209.000000  magneticMoment: [ Abs: 0.00000  Tot: -0.00000 ]
ElecMinimize: Iter:   0  F: -1623.731721515273875  |grad|_K:  3.086e-07  alpha:  1.000e+00
	Linear fluid (dielectric constant: 78.4, screening length: 8.12261 Bohr) occupying 0.554340 of unit cell:	Completed after 18 iterations at t[s]:  11307.97
	Linear fluid (dielectric constant: 78.4, screening length: 8.12261 Bohr) occupying 0.554365 of unit cell:	Completed after 19 iterations at t[s]:  11323.28
	FillingsUpdate:  mu: -0.145296932  nElectrons: 209.000000  magneticMoment: [ Abs: 0.00000  Tot: -0.00000 ]
	SubspaceRotationAdjust: set factor to 0.263
ElecMinimize: Iter:   1  F: -1623.731734509831313  |grad|_K:  3.105e-07  alpha:  3.734e-01  linmin:  1.431e-05  t[s]:  11345.86
	Linear fluid (dielectric constant: 78.4, screening length: 8.12261 Bohr) occupying 0.554399 of unit cell:	Completed after 16 iterations at t[s]:  11364.06
	Linear fluid (dielectric constant: 78.4, screening length: 8.12261 Bohr) occupying 0.554396 of unit cell:	Completed after 8 iterations at t[s]:  11378.49
	FillingsUpdate:  mu: -0.143826594  nElectrons: 209.000000  magneticMoment: [ Abs: 0.00000  Tot: -0.00000 ]
	SubspaceRotationAdjust: set factor to 0.263
ElecMinimize: Iter:   2  F: -1623.731746448648664  |grad|_K:  2.024e-07  alpha:  3.389e-01  linmin:  1.155e-05  t[s]:  11401.10
	Linear fluid (dielectric constant: 78.4, screening length: 8.12261 Bohr) occupying 0.554402 of unit cell:	Completed after 7 iterations at t[s]:  11418.82
	Linear fluid (dielectric constant: 78.4, screening length: 8.12261 Bohr) occupying 0.554406 of unit cell:	Completed after 6 iterations at t[s]:  11433.04
	FillingsUpdate:  mu: -0.144074417  nElectrons: 209.000000  magneticMoment: [ Abs: 0.00000  Tot: -0.00000 ]
	SubspaceRotationAdjust: set factor to 0.319
ElecMinimize: Iter:   3  F: -1623.731755115516080  |grad|_K:  1.744e-07  alpha:  5.794e-01  linmin: -2.574e-06  t[s]:  11455.71
	Linear fluid (dielectric constant: 78.4, screening length: 8.12261 Bohr) occupying 0.554408 of unit cell:	Completed after 12 iterations at t[s]:  11473.79
	Linear fluid (dielectric constant: 78.4, screening length: 8.12261 Bohr) occupying 0.554407 of unit cell:	Completed after 10 iterations at t[s]:  11488.41
	FillingsUpdate:  mu: -0.144426427  nElectrons: 209.000000  magneticMoment: [ Abs: 0.00000  Tot: -0.00000 ]
	SubspaceRotationAdjust: set factor to 0.309
ElecMinimize: Iter:   4  F: -1623.731758732361641  |grad|_K:  9.843e-08  alpha:  3.252e-01  linmin:  7.910e-06  t[s]:  11511.25
	Linear fluid (dielectric constant: 78.4, screening length: 8.12261 Bohr) occupying 0.554413 of unit cell:	Completed after 11 iterations at t[s]:  11529.25
	Linear fluid (dielectric constant: 78.4, screening length: 8.12261 Bohr) occupying 0.554413 of unit cell:	Completed after 2 iterations at t[s]:  11543.32
	FillingsUpdate:  mu: -0.144107278  nElectrons: 209.000000  magneticMoment: [ Abs: 0.00000  Tot: -0.00000 ]
	SubspaceRotationAdjust: set factor to 0.285
ElecMinimize: Iter:   5  F: -1623.731760079061587  |grad|_K:  5.282e-08  alpha:  3.803e-01  linmin: -1.031e-04  t[s]:  11566.19
	Linear fluid (dielectric constant: 78.4, screening length: 8.12261 Bohr) occupying 0.554411 of unit cell:	Completed after 6 iterations at t[s]:  11583.75
	Linear fluid (dielectric constant: 78.4, screening length: 8.12261 Bohr) occupying 0.554411 of unit cell:	Completed after 2 iterations at t[s]:  11597.80
	FillingsUpdate:  mu: -0.144252561  nElectrons: 209.000000  magneticMoment: [ Abs: 0.00000  Tot: -0.00000 ]
	SubspaceRotationAdjust: set factor to 0.294
ElecMinimize: Iter:   6  F: -1623.731760433091722  |grad|_K:  3.378e-08  alpha:  3.461e-01  linmin:  1.542e-04  t[s]:  11620.44
	Linear fluid (dielectric constant: 78.4, screening length: 8.12261 Bohr) occupying 0.554410 of unit cell:	Completed after 2 iterations at t[s]:  11637.89
	Linear fluid (dielectric constant: 78.4, screening length: 8.12261 Bohr) occupying 0.554410 of unit cell:	Completed after 0 iterations at t[s]:  11651.74
	FillingsUpdate:  mu: -0.144233822  nElectrons: 209.000000  magneticMoment: [ Abs: 0.00000  Tot: -0.00000 ]
	SubspaceRotationAdjust: set factor to 0.354
ElecMinimize: Iter:   7  F: -1623.731760579776846  |grad|_K:  2.000e-08  alpha:  3.541e-01  linmin: -1.028e-04  t[s]:  11674.32
	Linear fluid (dielectric constant: 78.4, screening length: 8.12261 Bohr) occupying 0.554410 of unit cell:	Completed after 3 iterations at t[s]:  11691.62
	Linear fluid (dielectric constant: 78.4, screening length: 8.12261 Bohr) occupying 0.554410 of unit cell:	Completed after 0 iterations at t[s]:  11705.37
	FillingsUpdate:  mu: -0.144189779  nElectrons: 209.000000  magneticMoment: [ Abs: 0.00000  Tot: -0.00000 ]
	SubspaceRotationAdjust: set factor to 0.4
ElecMinimize: Iter:   8  F: -1623.731760632895202  |grad|_K:  1.364e-08  alpha:  3.612e-01  linmin: -8.607e-04  t[s]:  11727.98
	Linear fluid (dielectric constant: 78.4, screening length: 8.12261 Bohr) occupying 0.554409 of unit cell:	Completed after 2 iterations at t[s]:  11745.22
	Linear fluid (dielectric constant: 78.4, screening length: 8.12261 Bohr) occupying 0.554409 of unit cell:	Completed after 0 iterations at t[s]:  11759.11
	FillingsUpdate:  mu: -0.144212871  nElectrons: 209.000000  magneticMoment: [ Abs: 0.00000  Tot: -0.00000 ]
	SubspaceRotationAdjust: set factor to 0.48
ElecMinimize: Iter:   9  F: -1623.731760661391945  |grad|_K:  9.113e-09  alpha:  4.039e-01  linmin: -3.022e-04  t[s]:  11781.80
ElecMinimize: Converged (|Delta F|<1.000000e-07 for 2 iters).
Setting wave functions to eigenvectors of Hamiltonian
Converging empty states (this may take a while): |deigs|: 4.812e-08

Computing DFT-D3 correction:
# coordination-number Ag 5.476 5.494 7.459 9.001 8.892 9.030 9.005 9.016 8.865 8.971 7.435
# diagonal-C6 Ag 268.61 268.61 268.61 268.61 268.61 268.61 268.61 268.61 268.61 268.61 268.61
EvdW_6 =   -0.069521
EvdW_8 =   -0.094383

# Ionic positions in cartesian coordinates:
ion Ag  -0.001460576632789  -0.061376703679236  24.352508106548953 1
ion Ag   0.003915677145468   4.966556603826160   1.084252126516561 1
ion Ag   2.709343361432492   0.833331883565422   3.222724877123072 1
ion Ag   2.711273651690185   5.752502592955361   5.690302179100395 1
ion Ag  -0.000166053748263   1.629207614903372   8.015513501031654 1
ion Ag   0.001148184333557   6.527871470966787  10.364265860871956 1
ion Ag   2.708726936441936   2.450991105970255  12.706256495121051 1
ion Ag   2.710147343140042   7.363271851675046  15.052368116330875 1
ion Ag  -0.001846238069718   3.271758779743547  17.403772041361080 1
ion Ag   0.000790869503144   8.138866042900098  19.733057796271083 1
ion Ag   2.709247844763945   4.070979757173188  22.208060899723321 1

# Forces in Cartesian coordinates:
force Ag   0.000005763213875  -0.000137808318954  -0.000183016550926 1
force Ag  -0.000002558574684   0.000120587083960  -0.000080423299381 1
force Ag   0.000001000020175   0.000061589025643  -0.000210538706342 1
force Ag   0.000002984393643   0.000139520539141   0.000120242679274 1
force Ag   0.000002983699111   0.000026522257704   0.000024981833210 1
force Ag   0.000001840094408   0.000067982850809   0.000189232143026 1
force Ag   0.000000945861500   0.000041712815021   0.000197682038511 1
force Ag   0.000006662000471  -0.000037126776906   0.000130898704044 1
force Ag   0.000001948918250   0.000018895484157   0.000126628531506 1
force Ag   0.000003660421209  -0.000139502903532  -0.000005659797877 1
force Ag   0.000003369349923  -0.000093312249710  -0.000040824016628 1

# Energy components:
   A_diel =       -0.0008355036093266
   Eewald =    14584.5569620655878680
       EH =    16050.3781721644991194
     Eloc =   -32513.7193544160436431
      Enl =       43.3975473467381221
     EvdW =       -0.1639045862897757
      Exc =     -159.3932814844636994
 Exc_core =        2.2898753197617232
       KE =      368.9233127441193574
-------------------------------------
     Etot =    -1623.7315063497026131
       TS =        0.0002543116894412
-------------------------------------
        F =    -1623.7317606613919452


Dumping 'jdft.fillings' ... done
Dumping 'jdft.wfns' ... done
Dumping 'jdft.fluidState' ... done
Dumping 'jdft.ionpos' ... done
Dumping 'jdft.lattice' ... done
Dumping 'jdft.eigenvals' ... done
Dumping 'jdft.eigStats' ... 
	eMin: -3.528467 at state 91 ( [ +0.000000 +0.000000 +0.000000 ] spin -1 )
	HOMO: -0.144820 at state 8 ( [ +0.076923 +0.142857 +0.000000 ] spin 1 )
	mu  : -0.144213
	LUMO: -0.143973 at state 0 ( [ +0.000000 +0.000000 +0.000000 ] spin 1 )
	eMax: +0.184868 at state 145 ( [ -0.461538 -0.285714 +0.000000 ] spin -1 )
	HOMO-LUMO gap: +0.000847
	Optical gap  : +0.011278 at state 0 ( [ +0.000000 +0.000000 +0.000000 ] spin 1 )
Dumping 'jdft.Ecomponents' ... done
IonicMinimize: Iter:   8  F: -1623.731760661391945  |grad|_K:  9.470e-05  alpha:  1.000e+00  linmin:  1.900e-01  t[s]:  11834.30
IonicMinimize: Converged (|grad|_K<1.000000e-04).

#--- Lowdin population analysis ---
# oxidation-state Ag +0.094 +0.094 -0.037 -0.037 +0.007 -0.000 +0.003 -0.000 +0.007 -0.036 -0.037
# magnetic-moments Ag -0.000 +0.000 -0.000 -0.000 -0.000 +0.000 +0.000 +0.000 +0.000 -0.000 +0.000


Dumping 'jdft.n_up' ... done
Dumping 'jdft.n_dn' ... done
Dumping 'jdft.tau_up' ... done
Dumping 'jdft.tau_dn' ... done
Dumping 'jdft.eigenvals' ... done
Dumping 'jdft.eigStats' ... 
	eMin: -3.528467 at state 91 ( [ +0.000000 +0.000000 +0.000000 ] spin -1 )
	HOMO: -0.144820 at state 8 ( [ +0.076923 +0.142857 +0.000000 ] spin 1 )
	mu  : -0.144213
	LUMO: -0.143973 at state 0 ( [ +0.000000 +0.000000 +0.000000 ] spin 1 )
	eMax: +0.184868 at state 145 ( [ -0.461538 -0.285714 +0.000000 ] spin -1 )
	HOMO-LUMO gap: +0.000847
	Optical gap  : +0.011278 at state 0 ( [ +0.000000 +0.000000 +0.000000 ] spin 1 )
Dumping 'jdft.kPts' ... done
Dumping 'jdft.dosUp' ... done.
Dumping 'jdft.dosDn' ... done.
End date and time: Mon Dec  6 20:33:06 2021  (Duration: 0-3:17:51.29)
Done!
