
*************** JDFTx 1.6.0  ***************

Start date and time: Mon Dec  6 16:35:30 2021
Executable /projects/musgravc/apps/jdftx-1.6.1/build/jdftx with command-line: -i in
Running on hosts (process indices):  shas0550.rc.int.colorado.edu (0-23)
Divided in process groups (process indices):  0 (0)  1 (1)  2 (2)  3 (3)  4 (4)  5 (5)  6 (6)  7 (7)  8 (8)  9 (9)  10 (10)  11 (11)  12 (12)  13 (13)  14 (14)  15 (15)  16 (16)  17 (17)  18 (18)  19 (19)  20 (20)  21 (21)  22 (22)  23 (23)
Resource initialization completed at t[s]:      0.00
Run totals: 24 processes, 24 threads, 0 GPUs


Input parsed successfully to the following command list (including defaults):

basis kpoint-dependent
converge-empty-states yes
coords-type Cartesian
core-overlap-check none
coulomb-interaction Periodic
davidson-band-ratio 1.1
density-of-states Etol 1.000000e-06 Esigma 1.000000e-03 \
		Complete \
	Total \
	OrthoOrbital Pt 1   s \
	OrthoOrbital Pt 1   p \
	OrthoOrbital Pt 1   px \
	OrthoOrbital Pt 1   py \
	OrthoOrbital Pt 1   pz \
	OrthoOrbital Pt 1   d \
	OrthoOrbital Pt 1   dxy \
	OrthoOrbital Pt 1   dyz \
	OrthoOrbital Pt 1   dz2 \
	OrthoOrbital Pt 1   dxz \
	OrthoOrbital Pt 1   dx2-y2 \
	OrthoOrbital Pt 2   s \
	OrthoOrbital Pt 2   p \
	OrthoOrbital Pt 2   px \
	OrthoOrbital Pt 2   py \
	OrthoOrbital Pt 2   pz \
	OrthoOrbital Pt 2   d \
	OrthoOrbital Pt 2   dxy \
	OrthoOrbital Pt 2   dyz \
	OrthoOrbital Pt 2   dz2 \
	OrthoOrbital Pt 2   dxz \
	OrthoOrbital Pt 2   dx2-y2 \
	OrthoOrbital Pt 3   s \
	OrthoOrbital Pt 3   p \
	OrthoOrbital Pt 3   px \
	OrthoOrbital Pt 3   py \
	OrthoOrbital Pt 3   pz \
	OrthoOrbital Pt 3   d \
	OrthoOrbital Pt 3   dxy \
	OrthoOrbital Pt 3   dyz \
	OrthoOrbital Pt 3   dz2 \
	OrthoOrbital Pt 3   dxz \
	OrthoOrbital Pt 3   dx2-y2 \
	OrthoOrbital Pt 4   s \
	OrthoOrbital Pt 4   p \
	OrthoOrbital Pt 4   px \
	OrthoOrbital Pt 4   py \
	OrthoOrbital Pt 4   pz \
	OrthoOrbital Pt 4   d \
	OrthoOrbital Pt 4   dxy \
	OrthoOrbital Pt 4   dyz \
	OrthoOrbital Pt 4   dz2 \
	OrthoOrbital Pt 4   dxz \
	OrthoOrbital Pt 4   dx2-y2 \
	OrthoOrbital Pt 5   s \
	OrthoOrbital Pt 5   p \
	OrthoOrbital Pt 5   px \
	OrthoOrbital Pt 5   py \
	OrthoOrbital Pt 5   pz \
	OrthoOrbital Pt 5   d \
	OrthoOrbital Pt 5   dxy \
	OrthoOrbital Pt 5   dyz \
	OrthoOrbital Pt 5   dz2 \
	OrthoOrbital Pt 5   dxz \
	OrthoOrbital Pt 5   dx2-y2 \
	OrthoOrbital Pt 6   s \
	OrthoOrbital Pt 6   p \
	OrthoOrbital Pt 6   px \
	OrthoOrbital Pt 6   py \
	OrthoOrbital Pt 6   pz \
	OrthoOrbital Pt 6   d \
	OrthoOrbital Pt 6   dxy \
	OrthoOrbital Pt 6   dyz \
	OrthoOrbital Pt 6   dz2 \
	OrthoOrbital Pt 6   dxz \
	OrthoOrbital Pt 6   dx2-y2 \
	OrthoOrbital Pt 7   s \
	OrthoOrbital Pt 7   p \
	OrthoOrbital Pt 7   px \
	OrthoOrbital Pt 7   py \
	OrthoOrbital Pt 7   pz \
	OrthoOrbital Pt 7   d \
	OrthoOrbital Pt 7   dxy \
	OrthoOrbital Pt 7   dyz \
	OrthoOrbital Pt 7   dz2 \
	OrthoOrbital Pt 7   dxz \
	OrthoOrbital Pt 7   dx2-y2 \
	OrthoOrbital Pt 8   s \
	OrthoOrbital Pt 8   p \
	OrthoOrbital Pt 8   px \
	OrthoOrbital Pt 8   py \
	OrthoOrbital Pt 8   pz \
	OrthoOrbital Pt 8   d \
	OrthoOrbital Pt 8   dxy \
	OrthoOrbital Pt 8   dyz \
	OrthoOrbital Pt 8   dz2 \
	OrthoOrbital Pt 8   dxz \
	OrthoOrbital Pt 8   dx2-y2 \
	OrthoOrbital Pt 9   s \
	OrthoOrbital Pt 9   p \
	OrthoOrbital Pt 9   px \
	OrthoOrbital Pt 9   py \
	OrthoOrbital Pt 9   pz \
	OrthoOrbital Pt 9   d \
	OrthoOrbital Pt 9   dxy \
	OrthoOrbital Pt 9   dyz \
	OrthoOrbital Pt 9   dz2 \
	OrthoOrbital Pt 9   dxz \
	OrthoOrbital Pt 9   dx2-y2 \
	OrthoOrbital Pt 10   s \
	OrthoOrbital Pt 10   p \
	OrthoOrbital Pt 10   px \
	OrthoOrbital Pt 10   py \
	OrthoOrbital Pt 10   pz \
	OrthoOrbital Pt 10   d \
	OrthoOrbital Pt 10   dxy \
	OrthoOrbital Pt 10   dyz \
	OrthoOrbital Pt 10   dz2 \
	OrthoOrbital Pt 10   dxz \
	OrthoOrbital Pt 10   dx2-y2 \
	OrthoOrbital Pt 11   s \
	OrthoOrbital Pt 11   p \
	OrthoOrbital Pt 11   px \
	OrthoOrbital Pt 11   py \
	OrthoOrbital Pt 11   pz \
	OrthoOrbital Pt 11   d \
	OrthoOrbital Pt 11   dxy \
	OrthoOrbital Pt 11   dyz \
	OrthoOrbital Pt 11   dz2 \
	OrthoOrbital Pt 11   dxz \
	OrthoOrbital Pt 11   dx2-y2 \
	OrthoOrbital Pt 12   s \
	OrthoOrbital Pt 12   p \
	OrthoOrbital Pt 12   px \
	OrthoOrbital Pt 12   py \
	OrthoOrbital Pt 12   pz \
	OrthoOrbital Pt 12   d \
	OrthoOrbital Pt 12   dxy \
	OrthoOrbital Pt 12   dyz \
	OrthoOrbital Pt 12   dz2 \
	OrthoOrbital Pt 12   dxz \
	OrthoOrbital Pt 12   dx2-y2 \
	OrthoOrbital Pt 13   s \
	OrthoOrbital Pt 13   p \
	OrthoOrbital Pt 13   px \
	OrthoOrbital Pt 13   py \
	OrthoOrbital Pt 13   pz \
	OrthoOrbital Pt 13   d \
	OrthoOrbital Pt 13   dxy \
	OrthoOrbital Pt 13   dyz \
	OrthoOrbital Pt 13   dz2 \
	OrthoOrbital Pt 13   dxz \
	OrthoOrbital Pt 13   dx2-y2 \
	OrthoOrbital Pt 14   s \
	OrthoOrbital Pt 14   p \
	OrthoOrbital Pt 14   px \
	OrthoOrbital Pt 14   py \
	OrthoOrbital Pt 14   pz \
	OrthoOrbital Pt 14   d \
	OrthoOrbital Pt 14   dxy \
	OrthoOrbital Pt 14   dyz \
	OrthoOrbital Pt 14   dz2 \
	OrthoOrbital Pt 14   dxz \
	OrthoOrbital Pt 14   dx2-y2 \
	OrthoOrbital Pt 15   s \
	OrthoOrbital Pt 15   p \
	OrthoOrbital Pt 15   px \
	OrthoOrbital Pt 15   py \
	OrthoOrbital Pt 15   pz \
	OrthoOrbital Pt 15   d \
	OrthoOrbital Pt 15   dxy \
	OrthoOrbital Pt 15   dyz \
	OrthoOrbital Pt 15   dz2 \
	OrthoOrbital Pt 15   dxz \
	OrthoOrbital Pt 15   dx2-y2 \
	OrthoOrbital Pt 16   s \
	OrthoOrbital Pt 16   p \
	OrthoOrbital Pt 16   px \
	OrthoOrbital Pt 16   py \
	OrthoOrbital Pt 16   pz \
	OrthoOrbital Pt 16   d \
	OrthoOrbital Pt 16   dxy \
	OrthoOrbital Pt 16   dyz \
	OrthoOrbital Pt 16   dz2 \
	OrthoOrbital Pt 16   dxz \
	OrthoOrbital Pt 16   dx2-y2 \
	OrthoOrbital Pt 17   s \
	OrthoOrbital Pt 17   p \
	OrthoOrbital Pt 17   px \
	OrthoOrbital Pt 17   py \
	OrthoOrbital Pt 17   pz \
	OrthoOrbital Pt 17   d \
	OrthoOrbital Pt 17   dxy \
	OrthoOrbital Pt 17   dyz \
	OrthoOrbital Pt 17   dz2 \
	OrthoOrbital Pt 17   dxz \
	OrthoOrbital Pt 17   dx2-y2 \
	OrthoOrbital Pt 18   s \
	OrthoOrbital Pt 18   p \
	OrthoOrbital Pt 18   px \
	OrthoOrbital Pt 18   py \
	OrthoOrbital Pt 18   pz \
	OrthoOrbital Pt 18   d \
	OrthoOrbital Pt 18   dxy \
	OrthoOrbital Pt 18   dyz \
	OrthoOrbital Pt 18   dz2 \
	OrthoOrbital Pt 18   dxz \
	OrthoOrbital Pt 18   dx2-y2 \
	OrthoOrbital Pt 19   s \
	OrthoOrbital Pt 19   p \
	OrthoOrbital Pt 19   px \
	OrthoOrbital Pt 19   py \
	OrthoOrbital Pt 19   pz \
	OrthoOrbital Pt 19   d \
	OrthoOrbital Pt 19   dxy \
	OrthoOrbital Pt 19   dyz \
	OrthoOrbital Pt 19   dz2 \
	OrthoOrbital Pt 19   dxz \
	OrthoOrbital Pt 19   dx2-y2 \
	OrthoOrbital Pt 20   s \
	OrthoOrbital Pt 20   p \
	OrthoOrbital Pt 20   px \
	OrthoOrbital Pt 20   py \
	OrthoOrbital Pt 20   pz \
	OrthoOrbital Pt 20   d \
	OrthoOrbital Pt 20   dxy \
	OrthoOrbital Pt 20   dyz \
	OrthoOrbital Pt 20   dz2 \
	OrthoOrbital Pt 20   dxz \
	OrthoOrbital Pt 20   dx2-y2 \
	OrthoOrbital Pt 21   s \
	OrthoOrbital Pt 21   p \
	OrthoOrbital Pt 21   px \
	OrthoOrbital Pt 21   py \
	OrthoOrbital Pt 21   pz \
	OrthoOrbital Pt 21   d \
	OrthoOrbital Pt 21   dxy \
	OrthoOrbital Pt 21   dyz \
	OrthoOrbital Pt 21   dz2 \
	OrthoOrbital Pt 21   dxz \
	OrthoOrbital Pt 21   dx2-y2 \
	OrthoOrbital Pt 22   s \
	OrthoOrbital Pt 22   p \
	OrthoOrbital Pt 22   px \
	OrthoOrbital Pt 22   py \
	OrthoOrbital Pt 22   pz \
	OrthoOrbital Pt 22   d \
	OrthoOrbital Pt 22   dxy \
	OrthoOrbital Pt 22   dyz \
	OrthoOrbital Pt 22   dz2 \
	OrthoOrbital Pt 22   dxz \
	OrthoOrbital Pt 22   dx2-y2 \
	OrthoOrbital Pt 23   s \
	OrthoOrbital Pt 23   p \
	OrthoOrbital Pt 23   px \
	OrthoOrbital Pt 23   py \
	OrthoOrbital Pt 23   pz \
	OrthoOrbital Pt 23   d \
	OrthoOrbital Pt 23   dxy \
	OrthoOrbital Pt 23   dyz \
	OrthoOrbital Pt 23   dz2 \
	OrthoOrbital Pt 23   dxz \
	OrthoOrbital Pt 23   dx2-y2 \
	OrthoOrbital Pt 24   s \
	OrthoOrbital Pt 24   p \
	OrthoOrbital Pt 24   px \
	OrthoOrbital Pt 24   py \
	OrthoOrbital Pt 24   pz \
	OrthoOrbital Pt 24   d \
	OrthoOrbital Pt 24   dxy \
	OrthoOrbital Pt 24   dyz \
	OrthoOrbital Pt 24   dz2 \
	OrthoOrbital Pt 24   dxz \
	OrthoOrbital Pt 24   dx2-y2 \
	OrthoOrbital Pt 25   s \
	OrthoOrbital Pt 25   p \
	OrthoOrbital Pt 25   px \
	OrthoOrbital Pt 25   py \
	OrthoOrbital Pt 25   pz \
	OrthoOrbital Pt 25   d \
	OrthoOrbital Pt 25   dxy \
	OrthoOrbital Pt 25   dyz \
	OrthoOrbital Pt 25   dz2 \
	OrthoOrbital Pt 25   dxz \
	OrthoOrbital Pt 25   dx2-y2 \
	OrthoOrbital Pt 26   s \
	OrthoOrbital Pt 26   p \
	OrthoOrbital Pt 26   px \
	OrthoOrbital Pt 26   py \
	OrthoOrbital Pt 26   pz \
	OrthoOrbital Pt 26   d \
	OrthoOrbital Pt 26   dxy \
	OrthoOrbital Pt 26   dyz \
	OrthoOrbital Pt 26   dz2 \
	OrthoOrbital Pt 26   dxz \
	OrthoOrbital Pt 26   dx2-y2
dump End ElecDensity KEdensity BandEigs EigStats RhoAtom DOS Kpoints
dump Ionic State IonicPositions Lattice EigStats Ecomponents
dump 
dump 
dump 
dump 
dump 
dump 
dump 
dump 
dump-name jdft.$VAR
elec-cutoff 20
elec-eigen-algo Davidson
elec-ex-corr gga-PBE
elec-initial-magnetization 0.000000 no
elec-n-bands 250
elec-smearing Fermi 0.001
electronic-minimize  \
	dirUpdateScheme      FletcherReeves \
	linminMethod         DirUpdateRecommended \
	nIterations          100 \
	history              15 \
	knormThreshold       0 \
	energyDiffThreshold  1e-07 \
	nEnergyDiff          2 \
	alphaTstart          1 \
	alphaTmin            1e-10 \
	updateTestStepSize   yes \
	alphaTreduceFactor   0.1 \
	alphaTincreaseFactor 3 \
	nAlphaAdjustMax      3 \
	wolfeEnergy          0.0001 \
	wolfeGradient        0.9 \
	fdTest               no
exchange-regularization WignerSeitzTruncated
fluid LinearPCM 298.000000 1.013250
fluid-anion F- 0.5 MeanFieldLJ \
	epsBulk 1 \
	pMol 0 \
	epsInf 1 \
	Pvap 0 \
	sigmaBulk 0 \
	Rvdw 2.24877 \
	Res 0 \
	tauNuc 343133
fluid-cation Na+ 0.5 MeanFieldLJ \
	epsBulk 1 \
	pMol 0 \
	epsInf 1 \
	Pvap 0 \
	sigmaBulk 0 \
	Rvdw 2.19208 \
	Res 0 \
	tauNuc 343133
fluid-ex-corr lda-TF lda-PZ
fluid-gummel-loop 10 1.000000e-05
fluid-minimize  \
	dirUpdateScheme      PolakRibiere \
	linminMethod         DirUpdateRecommended \
	nIterations          400 \
	history              15 \
	knormThreshold       1e-11 \
	energyDiffThreshold  0 \
	nEnergyDiff          2 \
	alphaTstart          1 \
	alphaTmin            1e-10 \
	updateTestStepSize   yes \
	alphaTreduceFactor   0.1 \
	alphaTincreaseFactor 3 \
	nAlphaAdjustMax      6 \
	wolfeEnergy          0.0001 \
	wolfeGradient        0.9 \
	fdTest               no
fluid-solvent H2O 55.338 ScalarEOS \
	epsBulk 78.4 \
	pMol 0.92466 \
	epsInf 1.77 \
	Pvap 1.06736e-10 \
	sigmaBulk 4.62e-05 \
	Rvdw 2.61727 \
	Res 1.42 \
	tauNuc 343133 \
	poleEl 15 7 1
forces-output-coords Positions
ion Pt  -0.000004000000000  10.260789999999998  24.112843999999996 1
ion Pt   0.000000000000000   4.104311000000000  20.008534000000001 1
ion Pt   3.699579000000000   7.182556999999998  22.060688999999996 1
ion Pt   3.699583000000000   1.026078000000000  17.956378000000001 1
ion Pt  -0.000004000000000   8.208634999999999  13.852067999999997 1
ion Pt   0.000000000000000   2.052155000000000   9.747757000000000 1
ion Pt   3.699579000000000  11.286867999999998  15.904222999999998 1
ion Pt   3.699583000000000   5.130387999999999  11.799912999999998 1
ion Pt  -0.000004000000000  12.312944999999997   7.695601999999999 1
ion Pt   0.000000000000000   6.156465999999998   3.591292000000000 1
ion Pt   0.000000000000000   0.000000000000000  26.164998999999998 1
ion Pt   3.699579000000000   9.234711999999998   5.643447000000000 1
ion Pt   3.699583000000000   3.078232999999999   1.539136000000000 1
ion Pt   3.699574999999999  12.312944999999997  21.034651000000000 1
ion Pt   3.699579000000000   6.156465999999998  16.930260999999998 1
ion Pt   0.000000000000000   9.234711999999998  18.982415999999997 1
ion Pt   0.000004000000000   3.078232999999999  14.878104999999998 1
ion Pt   3.699575000000000  10.260789999999998  10.773795000000000 1
ion Pt   3.699578999999999   4.104311000000000   6.669484999999999 1
ion Pt   0.000000000000000  13.339022999999996  12.825950000000001 1
ion Pt   0.000000000000000   7.182556999999998   8.721639999999999 1
ion Pt   0.000004000000000   1.026078000000000   4.617329000000000 1
ion Pt   3.699575000000000   8.208634999999999   0.513019000000000 1
ion Pt   3.699579000000000   2.052155000000000  23.086805999999999 1
ion Pt   0.000000000000000  11.286867999999998   2.565174000000000 1
ion Pt   0.000004000000000   5.130387999999999  25.138961999999996 1
ion-species /projects/musgravc/apps/jdftx-1.6.0/build/pseudopotentials/GBRV_v1.5/$ID_pbe_v1.uspp
ion-species /projects/musgravc/apps/jdftx-1.6.0/build/pseudopotentials/GBRV_v1.5/$ID_pbe_v1.2.uspp
ion-species /projects/musgravc/apps/jdftx-1.6.0/build/pseudopotentials/GBRV_v1.5/$ID_pbe_v1.4.uspp
ion-species /projects/musgravc/apps/jdftx-1.6.0/build/pseudopotentials/GBRV_v1.5/$ID_pbe_v1.5.uspp
ion-width Ecut
ionic-minimize  \
	dirUpdateScheme      L-BFGS \
	linminMethod         DirUpdateRecommended \
	nIterations          100 \
	history              15 \
	knormThreshold       0.0001 \
	energyDiffThreshold  1e-06 \
	nEnergyDiff          2 \
	alphaTstart          1 \
	alphaTmin            1e-10 \
	updateTestStepSize   yes \
	alphaTreduceFactor   0.1 \
	alphaTincreaseFactor 3 \
	nAlphaAdjustMax      3 \
	wolfeEnergy          0.0001 \
	wolfeGradient        0.9 \
	fdTest               no
kpoint   0.000000000000   0.000000000000   0.000000000000  1.00000000000000
kpoint-folding 9 4 1 
latt-move-scale 0 0 0
latt-scale 1 1 1 
lattice  \
	   7.399158000000000   -3.699579000000000    0.000000000000000  \
	   0.000000000000000   13.339022999999999    0.000000000000000  \
	   0.000000000000000    0.000000000000000   80.034133999999995 
lattice-minimize  \
	dirUpdateScheme      L-BFGS \
	linminMethod         DirUpdateRecommended \
	nIterations          0 \
	history              15 \
	knormThreshold       0 \
	energyDiffThreshold  1e-06 \
	nEnergyDiff          2 \
	alphaTstart          1 \
	alphaTmin            1e-10 \
	updateTestStepSize   yes \
	alphaTreduceFactor   0.1 \
	alphaTincreaseFactor 3 \
	nAlphaAdjustMax      3 \
	wolfeEnergy          0.0001 \
	wolfeGradient        0.9 \
	fdTest               no
lcao-params 30 1e-06 0.001
pcm-variant CANDLE
spintype z-spin
subspace-rotation-factor 1 yes
symmetries none
symmetry-threshold 0.0001
van-der-waals D3


Applied RMS atom displacement 0 bohrs to make symmetries exact.

---------- Initializing the Grid ----------
R = 
[      7.39916     -3.69958            0  ]
[            0       13.339            0  ]
[            0            0      80.0341  ]
unit cell volume = 7899.17
G =
[   0.849176   0.235519         -0  ]
[          0   0.471038          0  ]
[          0         -0  0.0785063  ]
Minimum fftbox size, Smin = [  32  56  324  ]
Chosen fftbox size, S = [  32  56  324  ]

---------- Exchange Correlation functional ----------
Initalized PBE GGA exchange.
Initalized PBE GGA correlation.

---------- Setting up pseudopotentials ----------
Width of ionic core gaussian charges (only for fluid interactions / plotting) set to 0.397384

Reading pseudopotential file '/projects/musgravc/apps/jdftx-1.6.0/build/pseudopotentials/GBRV_v1.5/pt_pbe_v1.4.uspp':
  Title: Pt.  Created by USPP 7.3.6 on 31-3-15
  Reference state energy: -105.002503.  16 valence electrons in orbitals:
    |510>  occupation: 6  eigenvalue: -2.158104
    |520>  occupation: 9.5  eigenvalue: -0.335376
    |600>  occupation: 0  eigenvalue: -0.319640
    |610>  occupation: 0  eigenvalue: -0.122947
  lMax: 2  lLocal: 3  QijEcut: 5.5
  6 projectors sampled on a log grid with 745 points:
    l: 0  eig: -0.319640  rCut: 2.45
    l: 0  eig: 1.500000  rCut: 2.45
    l: 1  eig: -2.158104  rCut: 1.6
    l: 1  eig: -0.122947  rCut: 1.6
    l: 2  eig: -0.500000  rCut: 1.6
    l: 2  eig: -0.335375  rCut: 1.6
  Partial core density with radius 1.1
  Transforming core density to a uniform radial grid of dG=0.02 with 1264 points.
  Transforming local potential to a uniform radial grid of dG=0.02 with 1264 points.
  Transforming nonlocal projectors to a uniform radial grid of dG=0.02 with 432 points.
  Transforming density augmentations to a uniform radial grid of dG=0.02 with 1264 points.
  Transforming atomic orbitals to a uniform radial grid of dG=0.02 with 432 points.
  Core radius for overlap checks: 2.45 bohrs.

Initialized 1 species with 26 total atoms.

Folded 1 k-points by 9x4x1 to 36 k-points.

---------- Setting up k-points, bands, fillings ----------
No reducable k-points. 
Computing the number of bands and number of electrons
Calculating initial fillings.
nElectrons: 416.000000   nBands: 250   nStates: 72

----- Setting up reduced wavefunction bases (one per k-point) -----
average nbasis = 33742.806 , ideal nbasis = 33745.865

----- Initializing Supercell corresponding to k-point mesh -----
Lattice vector linear combinations in supercell:
[   9   0   0  ]
[   0   4   0  ]
[   0   0   1  ]
Supercell lattice vectors:
[  66.5924  -14.7983  0  ]
[  0  53.3561  0  ]
[  0  0  80.0341  ]

Initializing DFT-D3 calculator:
	Parameters set for gga-PBE functional
	s6:  1.000  s_r6:  1.217
	s8:  0.722  s_r8:  1.000
	Per-atom parameters loaded for:
	Pt:  sqrtQ[a0]:  5.888  Rcov[a0]:  2.116  CN: [ 0.00 1.92 6.67 ]

Initializing DFT-D2 calculator for fluid / solvation:
	Pt:  C6:  815.23 Eh-a0^6  R0: 3.326 a0 (WARNING: beyond Grimme's data set)

---------- Setting up ewald sum ----------
Optimum gaussian width for ewald sums = 4.616098 bohr.
Real space sum over 935 unit cells with max indices [  8  5  2  ]
Reciprocal space sum over 6669 terms with max indices [  4  6  28  ]

Computing DFT-D3 correction:
# coordination-number Pt 7.154 9.549 8.741 9.560 9.562 9.561 9.562 9.562 9.555 8.713 4.805 9.525 5.594 9.525 9.561 9.555 9.562 9.562 9.549 9.562 9.560 8.741 4.805 8.713 7.154 5.594
# diagonal-C6 Pt 336.87 336.87 336.87 336.87 336.87 336.87 336.87 336.87 336.87 336.87 336.87 336.87 336.87 336.87 336.87 336.87 336.87 336.87 336.87 336.87 336.87 336.87 336.87 336.87 336.87 336.87
EvdW_6 =   -0.233255
EvdW_8 =   -0.376272

---------- Allocating electronic variables ----------
Initializing wave functions:  linear combination of atomic orbitals
Pt pseudo-atom occupations:   s ( 0 )  p ( 6 0 )  d ( 10 )
	FillingsUpdate:  mu: -1.644943754  nElectrons: 416.000000  magneticMoment: [ Abs: 0.00180  Tot: +0.00000 ]
LCAOMinimize: Iter:   0  F: -2297.3708731834153696  |grad|_K:  1.469e-02  alpha:  1.000e+00
LCAOMinimize: 	Step increased F by 6.093654e+02, reducing alpha to 2.102834e-02.
	FillingsUpdate:  mu: +0.909451069  nElectrons: 416.000000  magneticMoment: [ Abs: 0.00141  Tot: -0.00002 ]
LCAOMinimize: Iter:   1  F: -2304.7298498184982236  |grad|_K:  1.050e-02  alpha:  2.103e-02  linmin:  1.665e-01  cgtest: -9.354e-01  t[s]:    253.64
LCAOMinimize: 	Bad step direction: g.d > 0.
LCAOMinimize: 	Undoing step.
LCAOMinimize: 	Step failed: resetting search direction.
	FillingsUpdate:  mu: +0.909451069  nElectrons: 416.000000  magneticMoment: [ Abs: 0.00141  Tot: -0.00002 ]
LCAOMinimize: Iter:   2  F: -2304.7298498184982236  |grad|_K:  1.050e-02  alpha:  0.000e+00
	FillingsUpdate:  mu: -0.293887252  nElectrons: 416.000000  magneticMoment: [ Abs: 0.00139  Tot: +0.00011 ]
LCAOMinimize: Iter:   3  F: -2310.3277083815337392  |grad|_K:  2.321e-03  alpha:  1.227e-02  linmin: -2.491e-02  cgtest: -5.146e-02  t[s]:    387.74
LCAOMinimize: 	Predicted alpha/alphaT>3.000000, increasing alphaT to 3.681394e-02.
	FillingsUpdate:  mu: -0.171309730  nElectrons: 416.000000  magneticMoment: [ Abs: 0.00121  Tot: +0.00002 ]
LCAOMinimize: Iter:   4  F: -2311.2552999621029812  |grad|_K:  2.908e-03  alpha:  4.843e-02  linmin:  8.118e-03  cgtest:  2.607e-01  t[s]:    484.25
	FillingsUpdate:  mu: +0.002271737  nElectrons: 416.000000  magneticMoment: [ Abs: 0.00114  Tot: +0.00001 ]
LCAOMinimize: Iter:   5  F: -2311.6240300589411163  |grad|_K:  1.289e-03  alpha:  1.120e-02  linmin: -4.753e-02  cgtest:  5.012e-01  t[s]:    560.66
LCAOMinimize: Encountered beta<0, resetting CG.
	FillingsUpdate:  mu: +0.127154378  nElectrons: 416.000000  magneticMoment: [ Abs: 0.00109  Tot: +0.00003 ]
LCAOMinimize: Iter:   6  F: -2311.8083182623422545  |grad|_K:  2.801e-03  alpha:  3.103e-02  linmin: -1.539e-03  cgtest:  1.094e-02  t[s]:    637.15
	FillingsUpdate:  mu: +0.103405528  nElectrons: 416.000000  magneticMoment: [ Abs: 0.00102  Tot: +0.00003 ]
LCAOMinimize: Iter:   7  F: -2312.0234843895600534  |grad|_K:  1.735e-03  alpha:  9.225e-03  linmin:  1.301e-02  cgtest: -4.155e-01  t[s]:    714.30
	FillingsUpdate:  mu: +0.046404388  nElectrons: 416.000000  magneticMoment: [ Abs: 0.00096  Tot: -0.00000 ]
LCAOMinimize: Iter:   8  F: -2312.1229659376572272  |grad|_K:  1.235e-03  alpha:  1.212e-02  linmin: -4.343e-03  cgtest:  6.103e-01  t[s]:    791.11
LCAOMinimize: 	Predicted alpha/alphaT>3.000000, increasing alphaT to 3.636531e-02.
	FillingsUpdate:  mu: +0.016121332  nElectrons: 416.000000  magneticMoment: [ Abs: 0.00091  Tot: -0.00004 ]
LCAOMinimize: Iter:   9  F: -2312.3437085105201731  |grad|_K:  1.529e-03  alpha:  4.145e-02  linmin:  9.046e-03  cgtest: -3.394e-02  t[s]:    887.07
	FillingsUpdate:  mu: +0.129783787  nElectrons: 416.000000  magneticMoment: [ Abs: 0.00086  Tot: -0.00006 ]
LCAOMinimize: Iter:  10  F: -2312.4872971738946035  |grad|_K:  9.483e-04  alpha:  1.792e-02  linmin: -3.663e-03  cgtest:  2.946e-01  t[s]:    963.64
	FillingsUpdate:  mu: +0.132704236  nElectrons: 416.000000  magneticMoment: [ Abs: 0.00086  Tot: -0.00006 ]
LCAOMinimize: Iter:  11  F: -2312.5046099682990643  |grad|_K:  7.370e-04  alpha:  5.351e-03  linmin: -6.461e-04  cgtest: -1.474e-02  t[s]:   1040.74
LCAOMinimize: 	Predicted alpha/alphaT>3.000000, increasing alphaT to 1.605175e-02.
	FillingsUpdate:  mu: +0.206730569  nElectrons: 416.000000  magneticMoment: [ Abs: 0.00083  Tot: -0.00007 ]
LCAOMinimize: Iter:  12  F: -2312.5584460136046800  |grad|_K:  9.910e-04  alpha:  2.774e-02  linmin: -1.318e-03  cgtest:  1.710e-02  t[s]:   1136.64
	FillingsUpdate:  mu: +0.130282076  nElectrons: 416.000000  magneticMoment: [ Abs: 0.00077  Tot: -0.00007 ]
LCAOMinimize: Iter:  13  F: -2312.6690384204644033  |grad|_K:  7.728e-04  alpha:  3.097e-02  linmin: -4.108e-03  cgtest:  5.067e-02  t[s]:   1213.31
	FillingsUpdate:  mu: +0.114153782  nElectrons: 416.000000  magneticMoment: [ Abs: 0.00077  Tot: -0.00007 ]
LCAOMinimize: Iter:  14  F: -2312.6828816502720656  |grad|_K:  6.875e-04  alpha:  6.263e-03  linmin:  5.871e-04  cgtest: -9.813e-02  t[s]:   1290.23
LCAOMinimize: 	Predicted alpha/alphaT>3.000000, increasing alphaT to 1.879009e-02.
	FillingsUpdate:  mu: +0.112624827  nElectrons: 416.000000  magneticMoment: [ Abs: 0.00072  Tot: -0.00005 ]
LCAOMinimize: Iter:  15  F: -2312.7393180172462053  |grad|_K:  9.792e-04  alpha:  3.522e-02  linmin:  2.161e-03  cgtest:  2.913e-01  t[s]:   1386.57
	FillingsUpdate:  mu: +0.183747999  nElectrons: 416.000000  magneticMoment: [ Abs: 0.00069  Tot: -0.00004 ]
LCAOMinimize: Iter:  16  F: -2312.7877527458445002  |grad|_K:  1.141e-03  alpha:  1.487e-02  linmin: -2.249e-04  cgtest:  6.334e-02  t[s]:   1462.94
	FillingsUpdate:  mu: +0.168620038  nElectrons: 416.000000  magneticMoment: [ Abs: 0.00068  Tot: -0.00004 ]
LCAOMinimize: Iter:  17  F: -2312.8092200771297939  |grad|_K:  1.794e-04  alpha:  4.478e-03  linmin: -9.932e-03  cgtest: -8.254e-02  t[s]:   1539.57
LCAOMinimize: 	Predicted alpha/alphaT>3.000000, increasing alphaT to 1.343444e-02.
LCAOMinimize: 	Predicted alpha/alphaT>3.000000, increasing alphaT to 4.030332e-02.
	FillingsUpdate:  mu: +0.146577743  nElectrons: 416.000000  magneticMoment: [ Abs: 0.00067  Tot: -0.00005 ]
LCAOMinimize: Iter:  18  F: -2312.8222299657013536  |grad|_K:  3.229e-04  alpha:  1.101e-01  linmin:  2.571e-04  cgtest: -4.812e-02  t[s]:   1655.92
	FillingsUpdate:  mu: +0.140882249  nElectrons: 416.000000  magneticMoment: [ Abs: 0.00067  Tot: -0.00005 ]
LCAOMinimize: Iter:  19  F: -2312.8237380269642927  |grad|_K:  1.650e-04  alpha:  3.959e-03  linmin: -3.735e-03  cgtest:  1.061e-01  t[s]:   1732.36
LCAOMinimize: 	Predicted alpha/alphaT>3.000000, increasing alphaT to 1.187678e-02.
	FillingsUpdate:  mu: +0.159473674  nElectrons: 416.000000  magneticMoment: [ Abs: 0.00067  Tot: -0.00005 ]
LCAOMinimize: Iter:  20  F: -2312.8263372395617807  |grad|_K:  1.877e-04  alpha:  2.646e-02  linmin:  1.331e-03  cgtest: -8.573e-02  t[s]:   1828.34
	FillingsUpdate:  mu: +0.156363860  nElectrons: 416.000000  magneticMoment: [ Abs: 0.00066  Tot: -0.00005 ]
LCAOMinimize: Iter:  21  F: -2312.8317726606387623  |grad|_K:  1.099e-04  alpha:  4.468e-02  linmin:  3.009e-04  cgtest:  3.346e-01  t[s]:   1905.44
	FillingsUpdate:  mu: +0.150395246  nElectrons: 416.000000  magneticMoment: [ Abs: 0.00066  Tot: -0.00005 ]
LCAOMinimize: Iter:  22  F: -2312.8321790747809246  |grad|_K:  1.218e-04  alpha:  9.586e-03  linmin:  2.726e-04  cgtest: -2.348e-03  t[s]:   1981.98
	FillingsUpdate:  mu: +0.142695232  nElectrons: 416.000000  magneticMoment: [ Abs: 0.00066  Tot: -0.00005 ]
LCAOMinimize: Iter:  23  F: -2312.8326024374368899  |grad|_K:  8.838e-05  alpha:  8.116e-03  linmin: -1.066e-04  cgtest:  5.729e-03  t[s]:   2058.41
LCAOMinimize: 	Predicted alpha/alphaT>3.000000, increasing alphaT to 2.434923e-02.
	FillingsUpdate:  mu: +0.140362799  nElectrons: 416.000000  magneticMoment: [ Abs: 0.00066  Tot: -0.00005 ]
LCAOMinimize: Iter:  24  F: -2312.8334188149419788  |grad|_K:  2.769e-05  alpha:  2.961e-02  linmin:  2.481e-05  cgtest: -8.862e-03  t[s]:   2154.51
	FillingsUpdate:  mu: +0.143355431  nElectrons: 416.000000  magneticMoment: [ Abs: 0.00066  Tot: -0.00005 ]
LCAOMinimize: Iter:  25  F: -2312.8336155558599785  |grad|_K:  6.555e-05  alpha:  7.274e-02  linmin: -9.428e-06  cgtest: -9.921e-04  t[s]:   2231.77
	FillingsUpdate:  mu: +0.142735209  nElectrons: 416.000000  magneticMoment: [ Abs: 0.00066  Tot: -0.00006 ]
LCAOMinimize: Iter:  26  F: -2312.8337137404237183  |grad|_K:  5.250e-05  alpha:  6.285e-03  linmin: -1.489e-03  cgtest:  4.327e-02  t[s]:   2308.17
	FillingsUpdate:  mu: +0.138792689  nElectrons: 416.000000  magneticMoment: [ Abs: 0.00066  Tot: -0.00006 ]
LCAOMinimize: Iter:  27  F: -2312.8338344850308204  |grad|_K:  2.446e-05  alpha:  1.210e-02  linmin:  2.863e-04  cgtest: -1.309e-01  t[s]:   2384.70
	FillingsUpdate:  mu: +0.137809594  nElectrons: 416.000000  magneticMoment: [ Abs: 0.00066  Tot: -0.00006 ]
LCAOMinimize: Iter:  28  F: -2312.8339091072748488  |grad|_K:  3.840e-05  alpha:  3.549e-02  linmin:  3.082e-06  cgtest:  2.338e-02  t[s]:   2461.22
	FillingsUpdate:  mu: +0.137754839  nElectrons: 416.000000  magneticMoment: [ Abs: 0.00066  Tot: -0.00006 ]
LCAOMinimize: Iter:  29  F: -2312.8339339264903174  |grad|_K:  1.931e-05  alpha:  4.724e-03  linmin: -8.185e-04  cgtest:  2.062e-02  t[s]:   2538.19
LCAOMinimize: 	Predicted alpha/alphaT>3.000000, increasing alphaT to 1.417264e-02.
	FillingsUpdate:  mu: +0.138800088  nElectrons: 416.000000  magneticMoment: [ Abs: 0.00066  Tot: -0.00006 ]
LCAOMinimize: Iter:  30  F: -2312.8339649884974278  |grad|_K:  2.059e-05  alpha:  2.340e-02  linmin: -1.583e-05  cgtest: -1.863e-02  t[s]:   2634.20
LCAOMinimize: None of the convergence criteria satisfied after 30 iterations.
----- createFluidSolver() ----- (Fluid-side solver setup)
   Initializing fluid molecule 'H2O'
     Initializing site 'O'
       Electron density: proportional to exp(-r/0.36935)*erfc((r-0.51523)/0.36823) with norm 6.826
       Charge density: gaussian nuclear width 0.478731 with net site charge 0.826
       Polarizability: cuspless exponential with width 0.32 and norm 3.73
       Hard sphere radius: 2.57003 bohrs
       Positions in reference frame:
         [ +0.000000 +0.000000 +0.000000 ]
     Initializing site 'H'
       Electron density: proportional to exp(-r/0.34641)*erfc((r-0)/0.390882) with norm 0.587
       Charge density: gaussian nuclear width 0.377945 with net site charge -0.413
       Polarizability: cuspless exponential with width 0.39 and norm 3.3
       Positions in reference frame:
         [ +0.000000 -1.441945 +1.122523 ]
         [ +0.000000 +1.441945 +1.122523 ]
     Net charge: 0   dipole magnitude: 0.927204
     Initializing spherical shell mfKernel with radius 2.61727 Bohr
     deltaS corrections:
       site 'O': -7.54299
       site 'H': -6.83917
   Initializing fluid molecule 'Na+'
     Initializing site 'Na'
       Electron density: proportional to exp(-r/0.19682)*erfc((r-0.71491)/0.41314) with norm 8.1383
       Charge density: gaussian nuclear width 0.365347 with net site charge -1
       Hard sphere radius: 1.86327 bohrs
       Positions in reference frame:
         [ +0.000000 +0.000000 +0.000000 ]
     Net charge: -1   dipole magnitude: 0
     Initializing gaussian mfKernel with width: 1.55004 Bohr
     deltaS corrections:
       site 'Na': -22.3555
   Initializing fluid molecule 'F-'
     Initializing site 'F'
       Electron density: proportional to exp(-r/0.38886)*erfc((r-0)/0.438782) with norm 8
       Charge density: gaussian nuclear width 0.374796 with net site charge 1
       Hard sphere radius: 2.39995 bohrs
       Positions in reference frame:
         [ +0.000000 +0.000000 +0.000000 ]
     Net charge: 1   dipole magnitude: 0
     Initializing gaussian mfKernel with width: 1.59012 Bohr
     deltaS corrections:
       site 'F': -9.04335

Correction to mu due to finite nuclear width = -0.052253
   Cavity determined by nc: 0.00142 and sigma: 0.707107
   Nonlocal vdW cavity from gaussian model electron density with norm = 8 and sigma = 0.993594 bohr
   Charge asymmetry in cavity with sensitivity pCavity = 36.5 e-bohr/Eh
   Electrostatic cavity expanded by eta = 1.46 bohrs
   Weighted density cavitation model constrained by Nbulk: 0.0049383 bohr^-3, Pvap: 3.14029 kPa, Rvdw: 2.61727 bohr and sigmaBulk: 4.62e-05 Eh/bohr^2 at T: 298 K.
   Weighted density dispersion model using vdW pair potentials with single solvent site with sqrtC6eff: 0.77 SI.


---- Citations for features of the code used in this run ----

   Software package:
      R. Sundararaman, K. Letchworth-Weaver, K.A. Schwarz, D. Gunceler, Y. Ozhabes and T.A. Arias, 'JDFTx: software for joint density-functional theory', SoftwareX 6, 278 (2017)

   gga-PBE exchange-correlation functional:
      J.P. Perdew, K. Burke and M. Ernzerhof, Phys. Rev. Lett. 77, 3865 (1996)

   Pseudopotentials:
      KF Garrity, JW Bennett, KM Rabe and D Vanderbilt, Comput. Mater. Sci. 81, 446 (2014)

   DFT-D3 dispersion correction:
      S. Grimme, J. Antony, S. Ehrlich and H. Krieg, J. Chem. Phys. 132, 154104 (2010)

   DFT-D2 dispersion correction:
      S. Grimme, J. Comput. Chem. 27, 1787 (2006)

   Charge-asymmetric nonlocally-determined local-electric (CANDLE) solvation model:
      R. Sundararaman and W.A. Goddard III, J. Chem. Phys. 142, 064107 (2015)

   Total energy minimization with Auxiliary Hamiltonian:
      C. Freysoldt, S. Boeck, and J. Neugebauer, Phys. Rev. B 79, 241103(R) (2009)

   Linear-tetrahedron sampling for density of states:
      G. Lehmann and M. Taut, Phys. status solidi (b) 54, 469 (1972)

This list may not be complete. Please suggest additional citations or
report any other bugs at https://github.com/shankar1729/jdftx/issues

Initialization completed successfully at t[s]:   2653.34


Computing DFT-D3 correction:
# coordination-number Pt 7.154 9.549 8.741 9.560 9.562 9.561 9.562 9.562 9.555 8.713 4.805 9.525 5.594 9.525 9.561 9.555 9.562 9.562 9.549 9.562 9.560 8.741 4.805 8.713 7.154 5.594
# diagonal-C6 Pt 336.87 336.87 336.87 336.87 336.87 336.87 336.87 336.87 336.87 336.87 336.87 336.87 336.87 336.87 336.87 336.87 336.87 336.87 336.87 336.87 336.87 336.87 336.87 336.87 336.87 336.87
EvdW_6 =   -0.233255
EvdW_8 =   -0.376272
Fluid solver invoked on fresh (random / LCAO) wavefunctions
Running a vacuum solve first:

-------- Initial electronic minimization -----------
	FillingsUpdate:  mu: +0.138800316  nElectrons: 416.000000  magneticMoment: [ Abs: 0.00066  Tot: -0.00006 ]
ElecMinimize: Iter:   0  F: -2312.833964988498337  |grad|_K:  3.248e-05  alpha:  1.000e+00
	FillingsUpdate:  mu: +0.173203506  nElectrons: 416.000000  magneticMoment: [ Abs: 0.00053  Tot: -0.00007 ]
	SubspaceRotationAdjust: set factor to 0.519
ElecMinimize: Iter:   1  F: -2313.086381314480150  |grad|_K:  8.599e-05  alpha:  3.927e-01  linmin:  2.213e-06  t[s]:   2844.43
	FillingsUpdate:  mu: +0.207330344  nElectrons: 416.000000  magneticMoment: [ Abs: 0.00051  Tot: -0.00007 ]
	SubspaceRotationAdjust: set factor to 0.243
ElecMinimize: Iter:   2  F: -2313.090584669259897  |grad|_K:  7.619e-05  alpha:  7.323e-03  linmin:  3.257e-03  t[s]:   2966.70
	FillingsUpdate:  mu: +0.218930061  nElectrons: 416.000000  magneticMoment: [ Abs: 0.00050  Tot: -0.00007 ]
	SubspaceRotationAdjust: set factor to 0.136
ElecMinimize: Iter:   3  F: -2313.092246519054697  |grad|_K:  5.460e-05  alpha:  3.846e-03  linmin:  1.030e-07  t[s]:   3090.84
ElecMinimize: 	Predicted alpha/alphaT>3.000000, increasing alphaT to 1.153709e-02.
	FillingsUpdate:  mu: +0.187420187  nElectrons: 416.000000  magneticMoment: [ Abs: 0.00049  Tot: -0.00007 ]
	SubspaceRotationAdjust: set factor to 0.207
ElecMinimize: Iter:   4  F: -2313.113263741009177  |grad|_K:  1.871e-05  alpha:  1.156e-02  linmin:  1.803e-05  t[s]:   3244.24
ElecMinimize: 	Predicted alpha/alphaT>3.000000, increasing alphaT to 3.469119e-02.
	FillingsUpdate:  mu: +0.210486712  nElectrons: 416.000000  magneticMoment: [ Abs: 0.00047  Tot: -0.00007 ]
	SubspaceRotationAdjust: set factor to 0.125
	SubspaceRotationAdjust: resetting CG because factor has changed by 0.125388
ElecMinimize: 	State modified externally: resetting search direction.
ElecMinimize: Iter:   5  F: -2313.125554973761609  |grad|_K:  2.911e-05  alpha:  5.780e-02
	FillingsUpdate:  mu: +0.179727700  nElectrons: 416.000000  magneticMoment: [ Abs: 0.00046  Tot: -0.00007 ]
	SubspaceRotationAdjust: set factor to 0.151
ElecMinimize: Iter:   6  F: -2313.141135524093897  |grad|_K:  1.568e-05  alpha:  3.023e-02  linmin:  8.760e-05  t[s]:   3580.81
ElecMinimize: 	Predicted alpha/alphaT>3.000000, increasing alphaT to 9.067522e-02.
	FillingsUpdate:  mu: +0.142722217  nElectrons: 416.000000  magneticMoment: [ Abs: 0.00041  Tot: -0.00007 ]
	SubspaceRotationAdjust: set factor to 0.112
ElecMinimize: Iter:   7  F: -2313.169900702887844  |grad|_K:  1.195e-05  alpha:  1.921e-01  linmin: -4.169e-05  t[s]:   3732.88
	FillingsUpdate:  mu: +0.162303643  nElectrons: 416.000000  magneticMoment: [ Abs: 0.00037  Tot: -0.00008 ]
	SubspaceRotationAdjust: set factor to 0.0645
ElecMinimize: Iter:   8  F: -2313.179098153649193  |grad|_K:  6.381e-06  alpha:  1.057e-01  linmin:  3.404e-06  t[s]:   3855.25
ElecMinimize: 	Predicted alpha/alphaT>3.000000, increasing alphaT to 3.170786e-01.
	FillingsUpdate:  mu: +0.172942445  nElectrons: 416.000000  magneticMoment: [ Abs: 0.00028  Tot: -0.00008 ]
	SubspaceRotationAdjust: set factor to 0.0402
ElecMinimize: Iter:   9  F: -2313.189870026315475  |grad|_K:  8.615e-06  alpha:  4.341e-01  linmin: -1.775e-06  t[s]:   4007.67
	FillingsUpdate:  mu: +0.159561186  nElectrons: 416.000000  magneticMoment: [ Abs: 0.00025  Tot: -0.00008 ]
	SubspaceRotationAdjust: set factor to 0.0237
ElecMinimize: Iter:  10  F: -2313.192822311420969  |grad|_K:  3.928e-06  alpha:  6.595e-02  linmin:  9.466e-05  t[s]:   4130.69
ElecMinimize: 	Predicted alpha/alphaT>3.000000, increasing alphaT to 1.978522e-01.
	FillingsUpdate:  mu: +0.151726048  nElectrons: 416.000000  magneticMoment: [ Abs: 0.00022  Tot: -0.00008 ]
	SubspaceRotationAdjust: set factor to 0.0233
ElecMinimize: Iter:  11  F: -2313.195388256062415  |grad|_K:  2.524e-06  alpha:  2.756e-01  linmin:  7.510e-06  t[s]:   4284.07
	FillingsUpdate:  mu: +0.152030966  nElectrons: 416.000000  magneticMoment: [ Abs: 0.00021  Tot: -0.00008 ]
	SubspaceRotationAdjust: set factor to 0.0182
ElecMinimize: Iter:  12  F: -2313.196067429045343  |grad|_K:  1.805e-06  alpha:  1.751e-01  linmin:  2.157e-07  t[s]:   4407.02
	FillingsUpdate:  mu: +0.157836506  nElectrons: 416.000000  magneticMoment: [ Abs: 0.00019  Tot: -0.00008 ]
	SubspaceRotationAdjust: set factor to 0.0224
ElecMinimize: Iter:  13  F: -2313.196759483577807  |grad|_K:  1.382e-06  alpha:  3.482e-01  linmin: -4.991e-06  t[s]:   4529.64
	FillingsUpdate:  mu: +0.157144703  nElectrons: 416.000000  magneticMoment: [ Abs: 0.00018  Tot: -0.00008 ]
	SubspaceRotationAdjust: set factor to 0.0203
ElecMinimize: Iter:  14  F: -2313.197094806077530  |grad|_K:  1.273e-06  alpha:  2.878e-01  linmin: -3.485e-07  t[s]:   4652.67
	FillingsUpdate:  mu: +0.153547299  nElectrons: 416.000000  magneticMoment: [ Abs: 0.00017  Tot: -0.00008 ]
	SubspaceRotationAdjust: set factor to 0.0236
ElecMinimize: Iter:  15  F: -2313.197348207635059  |grad|_K:  7.816e-07  alpha:  2.566e-01  linmin:  1.418e-06  t[s]:   4775.63
	FillingsUpdate:  mu: +0.153222082  nElectrons: 416.000000  magneticMoment: [ Abs: 0.00017  Tot: -0.00008 ]
	SubspaceRotationAdjust: set factor to 0.0218
ElecMinimize: Iter:  16  F: -2313.197503169083120  |grad|_K:  8.917e-07  alpha:  4.163e-01  linmin:  1.348e-06  t[s]:   4898.97
	FillingsUpdate:  mu: +0.153709693  nElectrons: 416.000000  magneticMoment: [ Abs: 0.00016  Tot: -0.00008 ]
	SubspaceRotationAdjust: set factor to 0.0192
ElecMinimize: Iter:  17  F: -2313.197633331471479  |grad|_K:  8.405e-07  alpha:  2.686e-01  linmin:  6.198e-08  t[s]:   5021.58
	FillingsUpdate:  mu: +0.154235807  nElectrons: 416.000000  magneticMoment: [ Abs: 0.00016  Tot: -0.00008 ]
	SubspaceRotationAdjust: set factor to 0.0249
ElecMinimize: Iter:  18  F: -2313.197841129513563  |grad|_K:  8.565e-07  alpha:  4.827e-01  linmin:  1.935e-06  t[s]:   5143.79
	FillingsUpdate:  mu: +0.152882698  nElectrons: 416.000000  magneticMoment: [ Abs: 0.00016  Tot: -0.00008 ]
	SubspaceRotationAdjust: set factor to 0.0222
ElecMinimize: Iter:  19  F: -2313.197996314701868  |grad|_K:  9.728e-07  alpha:  3.472e-01  linmin:  7.316e-07  t[s]:   5266.90
	FillingsUpdate:  mu: +0.150741251  nElectrons: 416.000000  magneticMoment: [ Abs: 0.00016  Tot: -0.00008 ]
	SubspaceRotationAdjust: set factor to 0.0217
ElecMinimize: Iter:  20  F: -2313.198182996217838  |grad|_K:  8.693e-07  alpha:  3.237e-01  linmin:  1.618e-06  t[s]:   5389.45
	FillingsUpdate:  mu: +0.151413343  nElectrons: 416.000000  magneticMoment: [ Abs: 0.00016  Tot: -0.00008 ]
	SubspaceRotationAdjust: set factor to 0.0233
ElecMinimize: Iter:  21  F: -2313.198496792812421  |grad|_K:  1.130e-06  alpha:  6.821e-01  linmin:  6.889e-07  t[s]:   5513.35
	FillingsUpdate:  mu: +0.151008247  nElectrons: 416.000000  magneticMoment: [ Abs: 0.00015  Tot: -0.00008 ]
	SubspaceRotationAdjust: set factor to 0.0186
ElecMinimize: Iter:  22  F: -2313.198729434204779  |grad|_K:  1.047e-06  alpha:  2.991e-01  linmin:  1.830e-07  t[s]:   5635.98
	FillingsUpdate:  mu: +0.148742370  nElectrons: 416.000000  magneticMoment: [ Abs: 0.00015  Tot: -0.00008 ]
	SubspaceRotationAdjust: set factor to 0.0179
ElecMinimize: Iter:  23  F: -2313.198945924381860  |grad|_K:  8.096e-07  alpha:  3.240e-01  linmin: -9.414e-08  t[s]:   5758.93
	FillingsUpdate:  mu: +0.147279584  nElectrons: 416.000000  magneticMoment: [ Abs: 0.00013  Tot: -0.00008 ]
	SubspaceRotationAdjust: set factor to 0.019
ElecMinimize: Iter:  24  F: -2313.199130344299647  |grad|_K:  7.507e-07  alpha:  4.615e-01  linmin: -9.469e-07  t[s]:   5882.29
	FillingsUpdate:  mu: +0.147383916  nElectrons: 416.000000  magneticMoment: [ Abs: 0.00012  Tot: -0.00008 ]
	SubspaceRotationAdjust: set factor to 0.0154
	SubspaceRotationAdjust: resetting CG because factor has changed by 0.122783
ElecMinimize: 	State modified externally: resetting search direction.
ElecMinimize: Iter:  25  F: -2313.199241823423108  |grad|_K:  6.155e-07  alpha:  3.244e-01
	FillingsUpdate:  mu: +0.147508082  nElectrons: 416.000000  magneticMoment: [ Abs: 0.00012  Tot: -0.00008 ]
	SubspaceRotationAdjust: set factor to 0.0211
ElecMinimize: Iter:  26  F: -2313.199300660726294  |grad|_K:  3.436e-07  alpha:  2.547e-01  linmin:  2.190e-07  t[s]:   6189.92
	FillingsUpdate:  mu: +0.147765677  nElectrons: 416.000000  magneticMoment: [ Abs: 0.00012  Tot: -0.00008 ]
	SubspaceRotationAdjust: set factor to 0.0176
ElecMinimize: Iter:  27  F: -2313.199334980736694  |grad|_K:  3.225e-07  alpha:  4.769e-01  linmin:  9.780e-07  t[s]:   6312.98
	FillingsUpdate:  mu: +0.147882755  nElectrons: 416.000000  magneticMoment: [ Abs: 0.00011  Tot: -0.00008 ]
	SubspaceRotationAdjust: set factor to 0.0147
ElecMinimize: Iter:  28  F: -2313.199363689340316  |grad|_K:  2.614e-07  alpha:  4.529e-01  linmin:  3.356e-08  t[s]:   6435.42
	FillingsUpdate:  mu: +0.147793252  nElectrons: 416.000000  magneticMoment: [ Abs: 0.00011  Tot: -0.00008 ]
	SubspaceRotationAdjust: set factor to 0.012
ElecMinimize: Iter:  29  F: -2313.199383494392350  |grad|_K:  2.017e-07  alpha:  4.754e-01  linmin: -3.540e-08  t[s]:   6558.07
	FillingsUpdate:  mu: +0.147881320  nElectrons: 416.000000  magneticMoment: [ Abs: 0.00011  Tot: -0.00008 ]
	SubspaceRotationAdjust: set factor to 0.0105
ElecMinimize: Iter:  30  F: -2313.199394947102519  |grad|_K:  1.699e-07  alpha:  4.616e-01  linmin:  3.535e-08  t[s]:   6681.20
	FillingsUpdate:  mu: +0.148008632  nElectrons: 416.000000  magneticMoment: [ Abs: 0.00011  Tot: -0.00007 ]
	SubspaceRotationAdjust: set factor to 0.012
ElecMinimize: Iter:  31  F: -2313.199405156010926  |grad|_K:  1.353e-07  alpha:  5.801e-01  linmin:  4.611e-07  t[s]:   6804.48
	FillingsUpdate:  mu: +0.147924513  nElectrons: 416.000000  magneticMoment: [ Abs: 0.00011  Tot: -0.00007 ]
	SubspaceRotationAdjust: set factor to 0.0141
ElecMinimize: Iter:  32  F: -2313.199413016296148  |grad|_K:  1.222e-07  alpha:  7.049e-01  linmin:  3.946e-07  t[s]:   6927.39
	FillingsUpdate:  mu: +0.148272152  nElectrons: 416.000000  magneticMoment: [ Abs: 0.00011  Tot: -0.00007 ]
	SubspaceRotationAdjust: set factor to 0.0145
ElecMinimize: Iter:  33  F: -2313.199420770459710  |grad|_K:  1.537e-07  alpha:  8.527e-01  linmin:  3.733e-07  t[s]:   7050.62
	FillingsUpdate:  mu: +0.148451307  nElectrons: 416.000000  magneticMoment: [ Abs: 0.00011  Tot: -0.00007 ]
	SubspaceRotationAdjust: set factor to 0.0127
ElecMinimize: Iter:  34  F: -2313.199429664499348  |grad|_K:  1.797e-07  alpha:  6.174e-01  linmin: -3.259e-08  t[s]:   7173.28
	FillingsUpdate:  mu: +0.148259283  nElectrons: 416.000000  magneticMoment: [ Abs: 0.00010  Tot: -0.00007 ]
	SubspaceRotationAdjust: set factor to 0.0113
ElecMinimize: Iter:  35  F: -2313.199441485598982  |grad|_K:  1.735e-07  alpha:  6.002e-01  linmin: -1.986e-07  t[s]:   7296.79
	FillingsUpdate:  mu: +0.148329013  nElectrons: 416.000000  magneticMoment: [ Abs: 0.00010  Tot: -0.00007 ]
	SubspaceRotationAdjust: set factor to 0.0123
ElecMinimize: Iter:  36  F: -2313.199454604551647  |grad|_K:  1.676e-07  alpha:  7.144e-01  linmin: -6.907e-07  t[s]:   7419.58
	FillingsUpdate:  mu: +0.148807402  nElectrons: 416.000000  magneticMoment: [ Abs: 0.00010  Tot: -0.00007 ]
	SubspaceRotationAdjust: set factor to 0.0126
ElecMinimize: Iter:  37  F: -2313.199465914764460  |grad|_K:  1.352e-07  alpha:  6.598e-01  linmin: -3.923e-07  t[s]:   7542.51
	FillingsUpdate:  mu: +0.148809787  nElectrons: 416.000000  magneticMoment: [ Abs: 0.00009  Tot: -0.00007 ]
	SubspaceRotationAdjust: set factor to 0.0125
ElecMinimize: Iter:  38  F: -2313.199472006629549  |grad|_K:  1.167e-07  alpha:  5.463e-01  linmin: -1.964e-07  t[s]:   7665.80
	FillingsUpdate:  mu: +0.148748417  nElectrons: 416.000000  magneticMoment: [ Abs: 0.00009  Tot: -0.00007 ]
	SubspaceRotationAdjust: set factor to 0.0118
ElecMinimize: Iter:  39  F: -2313.199476834252891  |grad|_K:  1.143e-07  alpha:  5.809e-01  linmin: -5.638e-08  t[s]:   7788.91
	FillingsUpdate:  mu: +0.148812294  nElectrons: 416.000000  magneticMoment: [ Abs: 0.00009  Tot: -0.00007 ]
	SubspaceRotationAdjust: set factor to 0.0127
ElecMinimize: Iter:  40  F: -2313.199481073412244  |grad|_K:  9.563e-08  alpha:  5.321e-01  linmin:  3.181e-08  t[s]:   7912.13
	FillingsUpdate:  mu: +0.148815090  nElectrons: 416.000000  magneticMoment: [ Abs: 0.00009  Tot: -0.00007 ]
	SubspaceRotationAdjust: set factor to 0.0147
ElecMinimize: Iter:  41  F: -2313.199485403124527  |grad|_K:  9.595e-08  alpha:  7.765e-01  linmin: -1.162e-07  t[s]:   8035.48
	FillingsUpdate:  mu: +0.148648972  nElectrons: 416.000000  magneticMoment: [ Abs: 0.00009  Tot: -0.00007 ]
	SubspaceRotationAdjust: set factor to 0.016
ElecMinimize: Iter:  42  F: -2313.199489713000276  |grad|_K:  1.093e-07  alpha:  7.678e-01  linmin: -3.632e-08  t[s]:   8158.89
	FillingsUpdate:  mu: +0.148602442  nElectrons: 416.000000  magneticMoment: [ Abs: 0.00009  Tot: -0.00007 ]
	SubspaceRotationAdjust: set factor to 0.0148
ElecMinimize: Iter:  43  F: -2313.199494996976227  |grad|_K:  1.370e-07  alpha:  7.259e-01  linmin: -1.380e-07  t[s]:   8282.16
	FillingsUpdate:  mu: +0.148564192  nElectrons: 416.000000  magneticMoment: [ Abs: 0.00009  Tot: -0.00006 ]
	SubspaceRotationAdjust: set factor to 0.0116
ElecMinimize: Iter:  44  F: -2313.199499955801912  |grad|_K:  1.137e-07  alpha:  4.336e-01  linmin:  1.923e-07  t[s]:   8405.32
	FillingsUpdate:  mu: +0.148442519  nElectrons: 416.000000  magneticMoment: [ Abs: 0.00008  Tot: -0.00006 ]
	SubspaceRotationAdjust: set factor to 0.012
ElecMinimize: Iter:  45  F: -2313.199503833155632  |grad|_K:  8.041e-08  alpha:  4.919e-01  linmin:  1.586e-07  t[s]:   8528.23
	FillingsUpdate:  mu: +0.148398682  nElectrons: 416.000000  magneticMoment: [ Abs: 0.00008  Tot: -0.00006 ]
	SubspaceRotationAdjust: set factor to 0.013
ElecMinimize: Iter:  46  F: -2313.199506450041099  |grad|_K:  7.366e-08  alpha:  6.643e-01  linmin:  2.891e-07  t[s]:   8651.39
	FillingsUpdate:  mu: +0.148398100  nElectrons: 416.000000  magneticMoment: [ Abs: 0.00008  Tot: -0.00006 ]
	SubspaceRotationAdjust: set factor to 0.0126
ElecMinimize: Iter:  47  F: -2313.199508400888135  |grad|_K:  6.876e-08  alpha:  5.899e-01  linmin:  1.820e-07  t[s]:   8773.86
	FillingsUpdate:  mu: +0.148367204  nElectrons: 416.000000  magneticMoment: [ Abs: 0.00007  Tot: -0.00006 ]
	SubspaceRotationAdjust: set factor to 0.0111
ElecMinimize: Iter:  48  F: -2313.199509735924948  |grad|_K:  5.574e-08  alpha:  4.633e-01  linmin: -1.434e-07  t[s]:   8896.56
	FillingsUpdate:  mu: +0.148337658  nElectrons: 416.000000  magneticMoment: [ Abs: 0.00007  Tot: -0.00006 ]
	SubspaceRotationAdjust: set factor to 0.0117
ElecMinimize: Iter:  49  F: -2313.199510732791623  |grad|_K:  4.310e-08  alpha:  5.264e-01  linmin:  3.543e-07  t[s]:   9019.49
	FillingsUpdate:  mu: +0.148343249  nElectrons: 416.000000  magneticMoment: [ Abs: 0.00007  Tot: -0.00006 ]
	SubspaceRotationAdjust: set factor to 0.0138
ElecMinimize: Iter:  50  F: -2313.199511446517590  |grad|_K:  3.902e-08  alpha:  6.307e-01  linmin: -2.613e-07  t[s]:   9143.09
	FillingsUpdate:  mu: +0.148324835  nElectrons: 416.000000  magneticMoment: [ Abs: 0.00007  Tot: -0.00006 ]
	SubspaceRotationAdjust: set factor to 0.0147
ElecMinimize: Iter:  51  F: -2313.199511998790058  |grad|_K:  3.686e-08  alpha:  5.952e-01  linmin:  1.944e-07  t[s]:   9266.56
	FillingsUpdate:  mu: +0.148310212  nElectrons: 416.000000  magneticMoment: [ Abs: 0.00007  Tot: -0.00006 ]
	SubspaceRotationAdjust: set factor to 0.0134
ElecMinimize: Iter:  52  F: -2313.199512435241559  |grad|_K:  3.850e-08  alpha:  5.268e-01  linmin:  6.046e-07  t[s]:   9390.36
	FillingsUpdate:  mu: +0.148317778  nElectrons: 416.000000  magneticMoment: [ Abs: 0.00007  Tot: -0.00006 ]
	SubspaceRotationAdjust: set factor to 0.0125
ElecMinimize: Iter:  53  F: -2313.199512951789984  |grad|_K:  3.467e-08  alpha:  5.722e-01  linmin:  1.286e-08  t[s]:   9513.10
	FillingsUpdate:  mu: +0.148334338  nElectrons: 416.000000  magneticMoment: [ Abs: 0.00007  Tot: -0.00006 ]
	SubspaceRotationAdjust: set factor to 0.0134
ElecMinimize: Iter:  54  F: -2313.199513416569971  |grad|_K:  2.888e-08  alpha:  6.344e-01  linmin:  7.052e-08  t[s]:   9636.05
	FillingsUpdate:  mu: +0.148343657  nElectrons: 416.000000  magneticMoment: [ Abs: 0.00007  Tot: -0.00006 ]
	SubspaceRotationAdjust: set factor to 0.0139
ElecMinimize: Iter:  55  F: -2313.199513729000955  |grad|_K:  2.411e-08  alpha:  6.146e-01  linmin:  4.368e-07  t[s]:   9759.20
	FillingsUpdate:  mu: +0.148349991  nElectrons: 416.000000  magneticMoment: [ Abs: 0.00007  Tot: -0.00006 ]
	SubspaceRotationAdjust: set factor to 0.012
ElecMinimize: Iter:  56  F: -2313.199513889933769  |grad|_K:  1.932e-08  alpha:  4.544e-01  linmin:  1.523e-07  t[s]:   9881.75
	FillingsUpdate:  mu: +0.148354435  nElectrons: 416.000000  magneticMoment: [ Abs: 0.00007  Tot: -0.00006 ]
	SubspaceRotationAdjust: set factor to 0.01
ElecMinimize: Iter:  57  F: -2313.199513988512081  |grad|_K:  1.423e-08  alpha:  4.329e-01  linmin: -2.995e-06  t[s]:  10005.24
	FillingsUpdate:  mu: +0.148358628  nElectrons: 416.000000  magneticMoment: [ Abs: 0.00006  Tot: -0.00006 ]
	SubspaceRotationAdjust: set factor to 0.0113
ElecMinimize: Iter:  58  F: -2313.199514054002975  |grad|_K:  1.103e-08  alpha:  5.289e-01  linmin:  3.202e-06  t[s]:  10127.81
ElecMinimize: Converged (|Delta F|<1.000000e-07 for 2 iters).
Setting wave functions to eigenvectors of Hamiltonian
Converging empty states (this may take a while): |deigs|: 2.430e-03
Vacuum energy after initial minimize, F = -2313.199514054002975


-------- Electronic minimization -----------
	Linear fluid (dielectric constant: 78.4, screening length: 8.12261 Bohr) occupying 0.553543 of unit cell:	Completed after 23 iterations at t[s]:  10655.84
	FillingsUpdate:  mu: -0.189080640  nElectrons: 416.000000  magneticMoment: [ Abs: 0.00005  Tot: -0.00005 ]
ElecMinimize: Iter:   0  F: -2313.204250920788581  |grad|_K:  4.156e-07  alpha:  1.000e+00
	Linear fluid (dielectric constant: 78.4, screening length: 8.12261 Bohr) occupying 0.554004 of unit cell:	Completed after 18 iterations at t[s]:  10759.92
	Linear fluid (dielectric constant: 78.4, screening length: 8.12261 Bohr) occupying 0.553961 of unit cell:	Completed after 9 iterations at t[s]:  10793.19
	FillingsUpdate:  mu: -0.187369767  nElectrons: 416.000000  magneticMoment: [ Abs: 0.00005  Tot: -0.00005 ]
	SubspaceRotationAdjust: set factor to 0.0113
ElecMinimize: Iter:   1  F: -2313.204346379981871  |grad|_K:  4.116e-07  alpha:  9.068e-01  linmin: -5.575e-07  t[s]:  10841.57
	Linear fluid (dielectric constant: 78.4, screening length: 8.12261 Bohr) occupying 0.554581 of unit cell:	Completed after 18 iterations at t[s]:  10889.66
	Linear fluid (dielectric constant: 78.4, screening length: 8.12261 Bohr) occupying 0.554329 of unit cell:	Completed after 12 iterations at t[s]:  10923.97
	FillingsUpdate:  mu: -0.186761082  nElectrons: 416.000000  magneticMoment: [ Abs: 0.00005  Tot: -0.00005 ]
	SubspaceRotationAdjust: set factor to 0.0119
ElecMinimize: Iter:   2  F: -2313.204401899376990  |grad|_K:  2.475e-07  alpha:  5.373e-01  linmin:  5.085e-07  t[s]:  10972.97
	Linear fluid (dielectric constant: 78.4, screening length: 8.12261 Bohr) occupying 0.554492 of unit cell:	Completed after 9 iterations at t[s]:  11018.70
	Linear fluid (dielectric constant: 78.4, screening length: 8.12261 Bohr) occupying 0.554491 of unit cell:	Completed after 0 iterations at t[s]:  11050.44
	FillingsUpdate:  mu: -0.186757244  nElectrons: 416.000000  magneticMoment: [ Abs: 0.00005  Tot: -0.00005 ]
	SubspaceRotationAdjust: set factor to 0.0142
ElecMinimize: Iter:   3  F: -2313.204421869205817  |grad|_K:  1.818e-07  alpha:  5.350e-01  linmin:  5.706e-07  t[s]:  11099.86
	Linear fluid (dielectric constant: 78.4, screening length: 8.12261 Bohr) occupying 0.554580 of unit cell:	Completed after 9 iterations at t[s]:  11145.13
	Linear fluid (dielectric constant: 78.4, screening length: 8.12261 Bohr) occupying 0.554601 of unit cell:	Completed after 2 iterations at t[s]:  11177.48
	FillingsUpdate:  mu: -0.186430801  nElectrons: 416.000000  magneticMoment: [ Abs: 0.00005  Tot: -0.00005 ]
	SubspaceRotationAdjust: set factor to 0.0176
ElecMinimize: Iter:   4  F: -2313.204435238324550  |grad|_K:  1.624e-07  alpha:  6.636e-01  linmin: -1.794e-06  t[s]:  11227.07
	Linear fluid (dielectric constant: 78.4, screening length: 8.12261 Bohr) occupying 0.554680 of unit cell:	Completed after 10 iterations at t[s]:  11272.38
	Linear fluid (dielectric constant: 78.4, screening length: 8.12261 Bohr) occupying 0.554700 of unit cell:	Completed after 3 iterations at t[s]:  11304.37
	FillingsUpdate:  mu: -0.186046948  nElectrons: 416.000000  magneticMoment: [ Abs: 0.00005  Tot: -0.00005 ]
	SubspaceRotationAdjust: set factor to 0.0214
ElecMinimize: Iter:   5  F: -2313.204448812804458  |grad|_K:  1.730e-07  alpha:  8.391e-01  linmin: -1.537e-06  t[s]:  11354.05
	Linear fluid (dielectric constant: 78.4, screening length: 8.12261 Bohr) occupying 0.554801 of unit cell:	Completed after 11 iterations at t[s]:  11399.65
	Linear fluid (dielectric constant: 78.4, screening length: 8.12261 Bohr) occupying 0.554813 of unit cell:	Completed after 3 iterations at t[s]:  11432.00
	FillingsUpdate:  mu: -0.185485339  nElectrons: 416.000000  magneticMoment: [ Abs: 0.00005  Tot: -0.00005 ]
	SubspaceRotationAdjust: set factor to 0.0245
ElecMinimize: Iter:   6  F: -2313.204466044334822  |grad|_K:  1.980e-07  alpha:  9.372e-01  linmin: -7.355e-07  t[s]:  11481.59
	Linear fluid (dielectric constant: 78.4, screening length: 8.12261 Bohr) occupying 0.554949 of unit cell:	Completed after 13 iterations at t[s]:  11527.76
	Linear fluid (dielectric constant: 78.4, screening length: 8.12261 Bohr) occupying 0.554950 of unit cell:	Completed after 0 iterations at t[s]:  11559.51
	FillingsUpdate:  mu: -0.184856088  nElectrons: 416.000000  magneticMoment: [ Abs: 0.00005  Tot: -0.00004 ]
	SubspaceRotationAdjust: set factor to 0.0267
ElecMinimize: Iter:   7  F: -2313.204488732695154  |grad|_K:  2.239e-07  alpha:  9.438e-01  linmin: -3.303e-07  t[s]:  11609.24
	Linear fluid (dielectric constant: 78.4, screening length: 8.12261 Bohr) occupying 0.555114 of unit cell:	Completed after 12 iterations at t[s]:  11655.04
	Linear fluid (dielectric constant: 78.4, screening length: 8.12261 Bohr) occupying 0.555091 of unit cell:	Completed after 7 iterations at t[s]:  11688.13
	FillingsUpdate:  mu: -0.184120456  nElectrons: 416.000000  magneticMoment: [ Abs: 0.00005  Tot: -0.00004 ]
	SubspaceRotationAdjust: set factor to 0.0285
ElecMinimize: Iter:   8  F: -2313.204513342798236  |grad|_K:  2.263e-07  alpha:  8.029e-01  linmin: -1.264e-07  t[s]:  11737.96
	Linear fluid (dielectric constant: 78.4, screening length: 8.12261 Bohr) occupying 0.555218 of unit cell:	Completed after 12 iterations at t[s]:  11783.71
	Linear fluid (dielectric constant: 78.4, screening length: 8.12261 Bohr) occupying 0.555199 of unit cell:	Completed after 7 iterations at t[s]:  11816.74
	FillingsUpdate:  mu: -0.183723117  nElectrons: 416.000000  magneticMoment: [ Abs: 0.00005  Tot: -0.00004 ]
	SubspaceRotationAdjust: set factor to 0.0299
ElecMinimize: Iter:   9  F: -2313.204534626516761  |grad|_K:  2.149e-07  alpha:  6.809e-01  linmin:  3.895e-08  t[s]:  11866.54
	Linear fluid (dielectric constant: 78.4, screening length: 8.12261 Bohr) occupying 0.555281 of unit cell:	Completed after 12 iterations at t[s]:  11912.26
	Linear fluid (dielectric constant: 78.4, screening length: 8.12261 Bohr) occupying 0.555270 of unit cell:	Completed after 7 iterations at t[s]:  11945.26
	FillingsUpdate:  mu: -0.183320681  nElectrons: 416.000000  magneticMoment: [ Abs: 0.00004  Tot: -0.00004 ]
	SubspaceRotationAdjust: set factor to 0.0299
ElecMinimize: Iter:  10  F: -2313.204551121138593  |grad|_K:  1.933e-07  alpha:  5.862e-01  linmin:  2.692e-08  t[s]:  11995.22
	Linear fluid (dielectric constant: 78.4, screening length: 8.12261 Bohr) occupying 0.555315 of unit cell:	Completed after 11 iterations at t[s]:  12040.69
	Linear fluid (dielectric constant: 78.4, screening length: 8.12261 Bohr) occupying 0.555313 of unit cell:	Completed after 2 iterations at t[s]:  12073.01
	FillingsUpdate:  mu: -0.183123455  nElectrons: 416.000000  magneticMoment: [ Abs: 0.00004  Tot: -0.00004 ]
	SubspaceRotationAdjust: set factor to 0.0285
ElecMinimize: Iter:  11  F: -2313.204563705458895  |grad|_K:  1.709e-07  alpha:  5.525e-01  linmin:  2.487e-07  t[s]:  12123.00
	Linear fluid (dielectric constant: 78.4, screening length: 8.12261 Bohr) occupying 0.555339 of unit cell:	Completed after 10 iterations at t[s]:  12168.34
	Linear fluid (dielectric constant: 78.4, screening length: 8.12261 Bohr) occupying 0.555340 of unit cell:	Completed after 0 iterations at t[s]:  12200.08
	FillingsUpdate:  mu: -0.183052391  nElectrons: 416.000000  magneticMoment: [ Abs: 0.00004  Tot: -0.00004 ]
	SubspaceRotationAdjust: set factor to 0.0288
ElecMinimize: Iter:  12  F: -2313.204573725957744  |grad|_K:  1.468e-07  alpha:  5.646e-01  linmin: -8.420e-07  t[s]:  12250.30
	Linear fluid (dielectric constant: 78.4, screening length: 8.12261 Bohr) occupying 0.555359 of unit cell:	Completed after 9 iterations at t[s]:  12295.19
	Linear fluid (dielectric constant: 78.4, screening length: 8.12261 Bohr) occupying 0.555362 of unit cell:	Completed after 2 iterations at t[s]:  12327.46
	FillingsUpdate:  mu: -0.182986939  nElectrons: 416.000000  magneticMoment: [ Abs: 0.00004  Tot: -0.00004 ]
	SubspaceRotationAdjust: set factor to 0.0323
ElecMinimize: Iter:  13  F: -2313.204582230680899  |grad|_K:  1.285e-07  alpha:  6.408e-01  linmin: -4.727e-08  t[s]:  12377.33
	Linear fluid (dielectric constant: 78.4, screening length: 8.12261 Bohr) occupying 0.555382 of unit cell:	Completed after 7 iterations at t[s]:  12422.21
	Linear fluid (dielectric constant: 78.4, screening length: 8.12261 Bohr) occupying 0.555384 of unit cell:	Completed after 2 iterations at t[s]:  12454.49
	FillingsUpdate:  mu: -0.183050478  nElectrons: 416.000000  magneticMoment: [ Abs: 0.00004  Tot: -0.00004 ]
	SubspaceRotationAdjust: set factor to 0.0372
ElecMinimize: Iter:  14  F: -2313.204589207783556  |grad|_K:  1.137e-07  alpha:  6.925e-01  linmin:  3.499e-08  t[s]:  12504.87
	Linear fluid (dielectric constant: 78.4, screening length: 8.12261 Bohr) occupying 0.555409 of unit cell:	Completed after 3 iterations at t[s]:  12549.04
	Linear fluid (dielectric constant: 78.4, screening length: 8.12261 Bohr) occupying 0.555410 of unit cell:	Completed after 0 iterations at t[s]:  12580.80
	FillingsUpdate:  mu: -0.183038151  nElectrons: 416.000000  magneticMoment: [ Abs: 0.00004  Tot: -0.00004 ]
	SubspaceRotationAdjust: set factor to 0.0422
ElecMinimize: Iter:  15  F: -2313.204594821730552  |grad|_K:  9.980e-08  alpha:  7.125e-01  linmin: -1.468e-07  t[s]:  12630.86
	Linear fluid (dielectric constant: 78.4, screening length: 8.12261 Bohr) occupying 0.555437 of unit cell:	Completed after 4 iterations at t[s]:  12675.32
	Linear fluid (dielectric constant: 78.4, screening length: 8.12261 Bohr) occupying 0.555436 of unit cell:	Completed after 0 iterations at t[s]:  12707.34
	FillingsUpdate:  mu: -0.183085796  nElectrons: 416.000000  magneticMoment: [ Abs: 0.00004  Tot: -0.00004 ]
	SubspaceRotationAdjust: set factor to 0.0479
ElecMinimize: Iter:  16  F: -2313.204598929094118  |grad|_K:  8.462e-08  alpha:  6.751e-01  linmin:  2.454e-07  t[s]:  12757.42
	Linear fluid (dielectric constant: 78.4, screening length: 8.12261 Bohr) occupying 0.555460 of unit cell:	Completed after 4 iterations at t[s]:  12801.77
	Linear fluid (dielectric constant: 78.4, screening length: 8.12261 Bohr) occupying 0.555459 of unit cell:	Completed after 0 iterations at t[s]:  12833.65
	FillingsUpdate:  mu: -0.183135204  nElectrons: 416.000000  magneticMoment: [ Abs: 0.00004  Tot: -0.00004 ]
	SubspaceRotationAdjust: set factor to 0.0551
ElecMinimize: Iter:  17  F: -2313.204601740085309  |grad|_K:  7.205e-08  alpha:  6.457e-01  linmin:  4.104e-07  t[s]:  12884.01
	Linear fluid (dielectric constant: 78.4, screening length: 8.12261 Bohr) occupying 0.555479 of unit cell:	Completed after 6 iterations at t[s]:  12928.65
	Linear fluid (dielectric constant: 78.4, screening length: 8.12261 Bohr) occupying 0.555477 of unit cell:	Completed after 1 iterations at t[s]:  12961.14
	FillingsUpdate:  mu: -0.183070049  nElectrons: 416.000000  magneticMoment: [ Abs: 0.00004  Tot: -0.00004 ]
	SubspaceRotationAdjust: set factor to 0.059
ElecMinimize: Iter:  18  F: -2313.204603610254708  |grad|_K:  6.694e-08  alpha:  5.935e-01  linmin:  1.073e-06  t[s]:  13011.45
	Linear fluid (dielectric constant: 78.4, screening length: 8.12261 Bohr) occupying 0.555493 of unit cell:	Completed after 10 iterations at t[s]:  13056.74
	Linear fluid (dielectric constant: 78.4, screening length: 8.12261 Bohr) occupying 0.555487 of unit cell:	Completed after 7 iterations at t[s]:  13089.72
	FillingsUpdate:  mu: -0.183168962  nElectrons: 416.000000  magneticMoment: [ Abs: 0.00004  Tot: -0.00003 ]
	SubspaceRotationAdjust: set factor to 0.0497
ElecMinimize: Iter:  19  F: -2313.204604558141909  |grad|_K:  7.237e-08  alpha:  3.518e-01  linmin:  2.174e-07  t[s]:  13139.94
	Linear fluid (dielectric constant: 78.4, screening length: 8.12261 Bohr) occupying 0.555498 of unit cell:	Completed after 8 iterations at t[s]:  13184.88
	Linear fluid (dielectric constant: 78.4, screening length: 8.12261 Bohr) occupying 0.555496 of unit cell:	Completed after 3 iterations at t[s]:  13217.52
	FillingsUpdate:  mu: -0.183192553  nElectrons: 416.000000  magneticMoment: [ Abs: 0.00004  Tot: -0.00003 ]
	SubspaceRotationAdjust: set factor to 0.0409
ElecMinimize: Iter:  20  F: -2313.204605493968756  |grad|_K:  5.114e-08  alpha:  2.944e-01  linmin:  6.828e-07  t[s]:  13267.93
	Linear fluid (dielectric constant: 78.4, screening length: 8.12261 Bohr) occupying 0.555500 of unit cell:	Completed after 4 iterations at t[s]:  13312.48
	Linear fluid (dielectric constant: 78.4, screening length: 8.12261 Bohr) occupying 0.555503 of unit cell:	Completed after 4 iterations at t[s]:  13344.91
	FillingsUpdate:  mu: -0.183067581  nElectrons: 416.000000  magneticMoment: [ Abs: 0.00004  Tot: -0.00003 ]
	SubspaceRotationAdjust: set factor to 0.0402
ElecMinimize: Iter:  21  F: -2313.204606315302499  |grad|_K:  4.381e-08  alpha:  5.151e-01  linmin: -1.532e-06  t[s]:  13395.29
	Linear fluid (dielectric constant: 78.4, screening length: 8.12261 Bohr) occupying 0.555505 of unit cell:	Completed after 6 iterations at t[s]:  13439.95
	Linear fluid (dielectric constant: 78.4, screening length: 8.12261 Bohr) occupying 0.555505 of unit cell:	Completed after 0 iterations at t[s]:  13471.87
	FillingsUpdate:  mu: -0.183241399  nElectrons: 416.000000  magneticMoment: [ Abs: 0.00004  Tot: -0.00003 ]
	SubspaceRotationAdjust: set factor to 0.0383
ElecMinimize: Iter:  22  F: -2313.204606900781528  |grad|_K:  3.829e-08  alpha:  4.934e-01  linmin:  1.636e-06  t[s]:  13522.32
	Linear fluid (dielectric constant: 78.4, screening length: 8.12261 Bohr) occupying 0.555505 of unit cell:	Completed after 3 iterations at t[s]:  13566.51
	Linear fluid (dielectric constant: 78.4, screening length: 8.12261 Bohr) occupying 0.555505 of unit cell:	Completed after 0 iterations at t[s]:  13598.93
	FillingsUpdate:  mu: -0.183186323  nElectrons: 416.000000  magneticMoment: [ Abs: 0.00003  Tot: -0.00003 ]
	SubspaceRotationAdjust: set factor to 0.0428
ElecMinimize: Iter:  23  F: -2313.204607375296746  |grad|_K:  3.024e-08  alpha:  5.370e-01  linmin: -3.393e-06  t[s]:  13649.25
	Linear fluid (dielectric constant: 78.4, screening length: 8.12261 Bohr) occupying 0.555502 of unit cell:	Completed after 2 iterations at t[s]:  13693.30
	Linear fluid (dielectric constant: 78.4, screening length: 8.12261 Bohr) occupying 0.555502 of unit cell:	Completed after 0 iterations at t[s]:  13725.14
	FillingsUpdate:  mu: -0.183159093  nElectrons: 416.000000  magneticMoment: [ Abs: 0.00003  Tot: -0.00003 ]
	SubspaceRotationAdjust: set factor to 0.0503
ElecMinimize: Iter:  24  F: -2313.204607739566200  |grad|_K:  2.772e-08  alpha:  6.329e-01  linmin: -3.407e-06  t[s]:  13775.53
	Linear fluid (dielectric constant: 78.4, screening length: 8.12261 Bohr) occupying 0.555497 of unit cell:	Completed after 5 iterations at t[s]:  13819.88
	Linear fluid (dielectric constant: 78.4, screening length: 8.12261 Bohr) occupying 0.555498 of unit cell:	Completed after 2 iterations at t[s]:  13852.01
	FillingsUpdate:  mu: -0.183299683  nElectrons: 416.000000  magneticMoment: [ Abs: 0.00003  Tot: -0.00003 ]
	SubspaceRotationAdjust: set factor to 0.0495
ElecMinimize: Iter:  25  F: -2313.204607995730839  |grad|_K:  2.780e-08  alpha:  5.335e-01  linmin:  4.864e-06  t[s]:  13902.39
	Linear fluid (dielectric constant: 78.4, screening length: 8.12261 Bohr) occupying 0.555494 of unit cell:	Completed after 5 iterations at t[s]:  13946.74
	Linear fluid (dielectric constant: 78.4, screening length: 8.12261 Bohr) occupying 0.555495 of unit cell:	Completed after 2 iterations at t[s]:  13978.62
	FillingsUpdate:  mu: -0.183212580  nElectrons: 416.000000  magneticMoment: [ Abs: 0.00003  Tot: -0.00003 ]
	SubspaceRotationAdjust: set factor to 0.046
ElecMinimize: Iter:  26  F: -2313.204608178006310  |grad|_K:  2.389e-08  alpha:  4.031e-01  linmin:  1.673e-06  t[s]:  14029.28
	Linear fluid (dielectric constant: 78.4, screening length: 8.12261 Bohr) occupying 0.555492 of unit cell:	Completed after 3 iterations at t[s]:  14073.65
	Linear fluid (dielectric constant: 78.4, screening length: 8.12261 Bohr) occupying 0.555491 of unit cell:	Completed after 0 iterations at t[s]:  14105.34
	FillingsUpdate:  mu: -0.183246557  nElectrons: 416.000000  magneticMoment: [ Abs: 0.00003  Tot: -0.00003 ]
	SubspaceRotationAdjust: set factor to 0.0509
ElecMinimize: Iter:  27  F: -2313.204608338648995  |grad|_K:  1.904e-08  alpha:  4.627e-01  linmin: -8.153e-06  t[s]:  14155.87
	Linear fluid (dielectric constant: 78.4, screening length: 8.12261 Bohr) occupying 0.555489 of unit cell:	Completed after 3 iterations at t[s]:  14200.46
	Linear fluid (dielectric constant: 78.4, screening length: 8.12261 Bohr) occupying 0.555489 of unit cell:	Completed after 0 iterations at t[s]:  14232.02
	FillingsUpdate:  mu: -0.183318310  nElectrons: 416.000000  magneticMoment: [ Abs: 0.00003  Tot: -0.00003 ]
	SubspaceRotationAdjust: set factor to 0.0518
ElecMinimize: Iter:  28  F: -2313.204608448202180  |grad|_K:  1.811e-08  alpha:  4.754e-01  linmin: -1.094e-05  t[s]:  14282.69
	Linear fluid (dielectric constant: 78.4, screening length: 8.12261 Bohr) occupying 0.555486 of unit cell:	Completed after 2 iterations at t[s]:  14326.75
	Linear fluid (dielectric constant: 78.4, screening length: 8.12261 Bohr) occupying 0.555487 of unit cell:	Completed after 0 iterations at t[s]:  14358.62
	FillingsUpdate:  mu: -0.183294140  nElectrons: 416.000000  magneticMoment: [ Abs: 0.00003  Tot: -0.00003 ]
	SubspaceRotationAdjust: set factor to 0.0498
ElecMinimize: Iter:  29  F: -2313.204608535655098  |grad|_K:  1.521e-08  alpha:  4.170e-01  linmin:  1.391e-05  t[s]:  14409.18
	Linear fluid (dielectric constant: 78.4, screening length: 8.12261 Bohr) occupying 0.555485 of unit cell:	Completed after 2 iterations at t[s]:  14453.36
	Linear fluid (dielectric constant: 78.4, screening length: 8.12261 Bohr) occupying 0.555485 of unit cell:	Completed after 0 iterations at t[s]:  14484.92
	FillingsUpdate:  mu: -0.183292216  nElectrons: 416.000000  magneticMoment: [ Abs: 0.00003  Tot: -0.00003 ]
	SubspaceRotationAdjust: set factor to 0.0567
ElecMinimize: Iter:  30  F: -2313.204608599206949  |grad|_K:  1.172e-08  alpha:  4.685e-01  linmin: -2.856e-05  t[s]:  14534.96
ElecMinimize: Converged (|Delta F|<1.000000e-07 for 2 iters).
Setting wave functions to eigenvectors of Hamiltonian
Converging empty states (this may take a while): |deigs|: 9.302e-05
Single-point solvation energy estimate, DeltaF = -0.005094545203974

Computing DFT-D3 correction:
# coordination-number Pt 7.154 9.549 8.741 9.560 9.562 9.561 9.562 9.562 9.555 8.713 4.805 9.525 5.594 9.525 9.561 9.555 9.562 9.562 9.549 9.562 9.560 8.741 4.805 8.713 7.154 5.594
# diagonal-C6 Pt 336.87 336.87 336.87 336.87 336.87 336.87 336.87 336.87 336.87 336.87 336.87 336.87 336.87 336.87 336.87 336.87 336.87 336.87 336.87 336.87 336.87 336.87 336.87 336.87 336.87 336.87
EvdW_6 =   -0.233255
EvdW_8 =   -0.376272

# Ionic positions in cartesian coordinates:
ion Pt  -0.000004000000000  10.260789999999998  24.112843999999996 1
ion Pt   0.000000000000000   4.104311000000000  20.008534000000001 1
ion Pt   3.699579000000000   7.182556999999998  22.060688999999996 1
ion Pt   3.699583000000000   1.026078000000000  17.956378000000001 1
ion Pt  -0.000004000000000   8.208634999999999  13.852067999999997 1
ion Pt   0.000000000000000   2.052155000000000   9.747757000000000 1
ion Pt   3.699579000000000  11.286867999999998  15.904222999999998 1
ion Pt   3.699583000000000   5.130387999999999  11.799912999999998 1
ion Pt  -0.000004000000000  12.312944999999997   7.695601999999999 1
ion Pt   0.000000000000000   6.156465999999998   3.591292000000000 1
ion Pt   0.000000000000000   0.000000000000000  26.164998999999998 1
ion Pt   3.699579000000000   9.234711999999998   5.643447000000000 1
ion Pt   3.699583000000000   3.078232999999999   1.539136000000000 1
ion Pt   3.699574999999999  12.312944999999997  21.034651000000000 1
ion Pt   3.699579000000000   6.156465999999998  16.930260999999998 1
ion Pt   0.000000000000000   9.234711999999998  18.982415999999997 1
ion Pt   0.000004000000000   3.078232999999999  14.878104999999998 1
ion Pt   3.699575000000000  10.260789999999998  10.773795000000000 1
ion Pt   3.699578999999999   4.104311000000000   6.669484999999999 1
ion Pt   0.000000000000000  13.339022999999996  12.825950000000001 1
ion Pt   0.000000000000000   7.182556999999998   8.721639999999999 1
ion Pt   0.000004000000000   1.026078000000000   4.617329000000000 1
ion Pt   3.699575000000000   8.208634999999999   0.513019000000000 1
ion Pt   3.699579000000000   2.052155000000000  23.086805999999999 1
ion Pt   0.000000000000000  11.286867999999998   2.565174000000000 1
ion Pt   0.000004000000000   5.130387999999999  25.138961999999996 1

# Forces in Cartesian coordinates:
force Pt  -0.000160680835426  -0.003872958602985   0.013122269976998 1
force Pt   0.000071525807223   0.000352560722751  -0.002197899674245 1
force Pt   0.000101784568930   0.005211506367713   0.017424679737881 1
force Pt  -0.000089663429049  -0.000565011020006  -0.003558465932465 1
force Pt   0.000018868805286   0.000424292569491   0.000497866086136 1
force Pt   0.000298193877248   0.001229768953622   0.004300480705735 1
force Pt  -0.000114878333201  -0.000781405918291   0.000726386395936 1
force Pt   0.000095159293942  -0.000138607010470  -0.001785018542416 1
force Pt  -0.000164778146874   0.000879313854828   0.002691105471931 1
force Pt   0.000256251596136   0.000039168848878  -0.016273781059269 1
force Pt   0.000203979830373  -0.000846576104942  -0.022319804689144 1
force Pt  -0.000197920186510  -0.000222428264832   0.002165178779911 1
force Pt  -0.000029418837375  -0.002236655498095   0.012559947256096 1
force Pt   0.000192961099061   0.000241595348065  -0.002124952332512 1
force Pt  -0.000290841977543  -0.001203437813425  -0.004404182427273 1
force Pt   0.000156829821117  -0.000858541974384  -0.002719155958133 1
force Pt  -0.000096535254141   0.000156161108077   0.001637508986648 1
force Pt   0.000123403161869   0.000762624698279  -0.000855303686291 1
force Pt  -0.000080991962516  -0.000379915024047   0.002209640377430 1
force Pt  -0.000024828739188  -0.000433203700685  -0.000652171329014 1
force Pt   0.000091757377878   0.000538978177845   0.003487396128294 1
force Pt  -0.000101090741376  -0.005227023203841  -0.017348665688822 1
force Pt  -0.000207913529364   0.000823123818583   0.022407605324416 1
force Pt  -0.000240894398795  -0.000007374508002   0.016375381994689 1
force Pt   0.000163715819039   0.003849857314837  -0.012994312571073 1
force Pt   0.000026275542688   0.002252099086280  -0.012475978360104 1

# Energy components:
   A_diel =       -0.0054928666001471
   Eewald =    30657.9513292106094013
       EH =    32757.7777572814738960
     Eloc =   -66130.2386504849418998
      Enl =      -27.5307356767715810
     EvdW =       -0.6095272310142550
      Exc =     -739.6636709201209214
 Exc_core =      426.1759184226523871
       KE =      742.9428871387656272
-------------------------------------
     Etot =    -2313.2001851259428804
       TS =        0.0044234732642422
-------------------------------------
        F =    -2313.2046085992069493


Dumping 'jdft.fillings' ... done
Dumping 'jdft.wfns' ... done
Dumping 'jdft.fluidState' ... done
Dumping 'jdft.ionpos' ... done
Dumping 'jdft.lattice' ... done
Dumping 'jdft.eigenvals' ... done
Dumping 'jdft.eigStats' ... 
	eMin: -2.133203 at state 54 ( [ +0.444444 +0.500000 +0.000000 ] spin -1 )
	HOMO: -0.183367 at state 32 ( [ -0.111111 +0.000000 +0.000000 ] spin 1 )
	mu  : -0.183292
	LUMO: -0.183213 at state 71 ( [ -0.111111 -0.250000 +0.000000 ] spin -1 )
	eMax: +0.099826 at state 0 ( [ +0.000000 +0.000000 +0.000000 ] spin 1 )
	HOMO-LUMO gap: +0.000155
	Optical gap  : +0.000269 at state 13 ( [ +0.333333 +0.250000 +0.000000 ] spin 1 )
Dumping 'jdft.Ecomponents' ... done
IonicMinimize: Iter:   0  F: -2313.204608599206949  |grad|_K:  6.202e-03  t[s]:  14966.76

#--- Lowdin population analysis ---
# oxidation-state Pt -0.032 +0.010 -0.028 +0.010 +0.007 +0.007 +0.009 +0.012 +0.012 -0.055 +0.101 -0.005 +0.076 -0.006 +0.007 +0.011 +0.012 +0.009 +0.012 +0.007 +0.012 -0.026 +0.102 -0.056 -0.031 +0.075
# magnetic-moments Pt -0.000 -0.000 -0.000 -0.000 -0.000 -0.000 -0.000 -0.000 -0.000 -0.000 -0.000 -0.000 -0.000 -0.000 -0.000 -0.000 -0.000 -0.000 -0.000 -0.000 -0.000 -0.000 -0.000 -0.000 -0.000 -0.000


Computing DFT-D3 correction:
# coordination-number Pt 7.158 9.531 8.729 9.552 9.567 9.554 9.566 9.569 9.538 8.711 4.856 9.517 5.636 9.517 9.554 9.538 9.568 9.566 9.531 9.567 9.553 8.729 4.856 8.711 7.158 5.635
# diagonal-C6 Pt 336.87 336.87 336.87 336.87 336.87 336.87 336.87 336.87 336.87 336.87 336.87 336.87 336.87 336.87 336.87 336.87 336.87 336.87 336.87 336.87 336.87 336.87 336.87 336.87 336.87 336.87
EvdW_6 =   -0.233257
EvdW_8 =   -0.376211

-------- Electronic minimization -----------
	Linear fluid (dielectric constant: 78.4, screening length: 8.12261 Bohr) occupying 0.555474 of unit cell:	Completed after 22 iterations at t[s]:  15011.05
	FillingsUpdate:  mu: -0.184653638  nElectrons: 416.000000  magneticMoment: [ Abs: 0.00002  Tot: -0.00002 ]
ElecMinimize: Iter:   0  F: -2313.094195607242909  |grad|_K:  2.287e-05  alpha:  1.000e+00
	Linear fluid (dielectric constant: 78.4, screening length: 8.12261 Bohr) occupying 0.555612 of unit cell:	Completed after 26 iterations at t[s]:  15116.32
	Linear fluid (dielectric constant: 78.4, screening length: 8.12261 Bohr) occupying 0.555478 of unit cell:	Completed after 26 iterations at t[s]:  15152.13
	FillingsUpdate:  mu: -0.206823501  nElectrons: 416.000000  magneticMoment: [ Abs: 0.00002  Tot: -0.00002 ]
	SubspaceRotationAdjust: set factor to 0.0505
ElecMinimize: Iter:   1  F: -2313.193754181545046  |grad|_K:  6.794e-06  alpha:  3.127e-01  linmin:  8.824e-04  t[s]:  15200.57
	Linear fluid (dielectric constant: 78.4, screening length: 8.12261 Bohr) occupying 0.555600 of unit cell:	Completed after 23 iterations at t[s]:  15248.82
	Linear fluid (dielectric constant: 78.4, screening length: 8.12261 Bohr) occupying 0.555572 of unit cell:	Completed after 19 iterations at t[s]:  15284.34
	FillingsUpdate:  mu: -0.172426130  nElectrons: 416.000000  magneticMoment: [ Abs: 0.00002  Tot: -0.00002 ]
	SubspaceRotationAdjust: set factor to 0.0316
ElecMinimize: Iter:   2  F: -2313.200721572511611  |grad|_K:  3.597e-06  alpha:  2.479e-01  linmin: -1.817e-06  t[s]:  15333.40
	Linear fluid (dielectric constant: 78.4, screening length: 8.12261 Bohr) occupying 0.555592 of unit cell:	Completed after 22 iterations at t[s]:  15381.38
	Linear fluid (dielectric constant: 78.4, screening length: 8.12261 Bohr) occupying 0.555593 of unit cell:	Completed after 2 iterations at t[s]:  15413.85
	FillingsUpdate:  mu: -0.184212441  nElectrons: 416.000000  magneticMoment: [ Abs: 0.00002  Tot: -0.00002 ]
	SubspaceRotationAdjust: set factor to 0.0263
ElecMinimize: Iter:   3  F: -2313.202686015351901  |grad|_K:  1.542e-06  alpha:  2.490e-01  linmin: -9.976e-06  t[s]:  15463.14
	Linear fluid (dielectric constant: 78.4, screening length: 8.12261 Bohr) occupying 0.555619 of unit cell:	Completed after 19 iterations at t[s]:  15510.09
	Linear fluid (dielectric constant: 78.4, screening length: 8.12261 Bohr) occupying 0.555631 of unit cell:	Completed after 13 iterations at t[s]:  15544.03
	FillingsUpdate:  mu: -0.187223067  nElectrons: 416.000000  magneticMoment: [ Abs: 0.00002  Tot: -0.00002 ]
	SubspaceRotationAdjust: set factor to 0.028
ElecMinimize: Iter:   4  F: -2313.203202740730831  |grad|_K:  9.940e-07  alpha:  3.563e-01  linmin: -7.675e-06  t[s]:  15593.65
	Linear fluid (dielectric constant: 78.4, screening length: 8.12261 Bohr) occupying 0.555683 of unit cell:	Completed after 17 iterations at t[s]:  15640.15
	Linear fluid (dielectric constant: 78.4, screening length: 8.12261 Bohr) occupying 0.555708 of unit cell:	Completed after 14 iterations at t[s]:  15674.26
	FillingsUpdate:  mu: -0.181388674  nElectrons: 416.000000  magneticMoment: [ Abs: 0.00002  Tot: -0.00002 ]
	SubspaceRotationAdjust: set factor to 0.0306
ElecMinimize: Iter:   5  F: -2313.203519342414438  |grad|_K:  9.333e-07  alpha:  5.260e-01  linmin:  3.591e-05  t[s]:  15724.05
	Linear fluid (dielectric constant: 78.4, screening length: 8.12261 Bohr) occupying 0.555805 of unit cell:	Completed after 13 iterations at t[s]:  15770.00
	Linear fluid (dielectric constant: 78.4, screening length: 8.12261 Bohr) occupying 0.555819 of unit cell:	Completed after 6 iterations at t[s]:  15802.78
	FillingsUpdate:  mu: -0.182623078  nElectrons: 416.000000  magneticMoment: [ Abs: 0.00002  Tot: -0.00002 ]
	SubspaceRotationAdjust: set factor to 0.0392
ElecMinimize: Iter:   6  F: -2313.203840155957096  |grad|_K:  8.631e-07  alpha:  6.050e-01  linmin: -8.003e-06  t[s]:  15852.42
	Linear fluid (dielectric constant: 78.4, screening length: 8.12261 Bohr) occupying 0.555925 of unit cell:	Completed after 19 iterations at t[s]:  15899.06
	Linear fluid (dielectric constant: 78.4, screening length: 8.12261 Bohr) occupying 0.555936 of unit cell:	Completed after 10 iterations at t[s]:  15932.74
	FillingsUpdate:  mu: -0.185001034  nElectrons: 416.000000  magneticMoment: [ Abs: 0.00002  Tot: -0.00002 ]
	SubspaceRotationAdjust: set factor to 0.0413
ElecMinimize: Iter:   7  F: -2313.204144445706788  |grad|_K:  1.171e-06  alpha:  6.696e-01  linmin: -1.110e-05  t[s]:  15982.37
	Linear fluid (dielectric constant: 78.4, screening length: 8.12261 Bohr) occupying 0.556133 of unit cell:	Completed after 20 iterations at t[s]:  16029.47
	Linear fluid (dielectric constant: 78.4, screening length: 8.12261 Bohr) occupying 0.556112 of unit cell:	Completed after 12 iterations at t[s]:  16063.02
	FillingsUpdate:  mu: -0.180260804  nElectrons: 416.000000  magneticMoment: [ Abs: 0.00002  Tot: -0.00002 ]
	SubspaceRotationAdjust: set factor to 0.0374
ElecMinimize: Iter:   8  F: -2313.204643952784863  |grad|_K:  1.476e-06  alpha:  5.963e-01  linmin:  1.941e-05  t[s]:  16113.47
	Linear fluid (dielectric constant: 78.4, screening length: 8.12261 Bohr) occupying 0.556292 of unit cell:	Completed after 13 iterations at t[s]:  16159.16
	Linear fluid (dielectric constant: 78.4, screening length: 8.12261 Bohr) occupying 0.556316 of unit cell:	Completed after 9 iterations at t[s]:  16192.36
	FillingsUpdate:  mu: -0.179636507  nElectrons: 416.000000  magneticMoment: [ Abs: 0.00002  Tot: -0.00002 ]
	SubspaceRotationAdjust: set factor to 0.0401
ElecMinimize: Iter:   9  F: -2313.205537812169041  |grad|_K:  1.495e-06  alpha:  6.761e-01  linmin:  1.225e-05  t[s]:  16242.12
	Linear fluid (dielectric constant: 78.4, screening length: 8.12261 Bohr) occupying 0.556347 of unit cell:	Completed after 15 iterations at t[s]:  16288.25
[...]
       KE =      742.9037037472741076
-------------------------------------
     Etot =    -2313.2171676482043949
       TS =        0.0044918709312625
-------------------------------------
        F =    -2313.2216595191357555


Dumping 'jdft.fillings' ... done
Dumping 'jdft.wfns' ... done
Dumping 'jdft.fluidState' ... done
Dumping 'jdft.ionpos' ... done
Dumping 'jdft.lattice' ... done
Dumping 'jdft.eigenvals' ... done
Dumping 'jdft.eigStats' ... 
	eMin: -2.133791 at state 56 ( [ -0.444444 +0.000000 +0.000000 ] spin -1 )
	HOMO: -0.184068 at state 21 ( [ -0.444444 +0.250000 +0.000000 ] spin 1 )
	mu  : -0.183994
	LUMO: -0.183836 at state 69 ( [ -0.111111 +0.250000 +0.000000 ] spin -1 )
	eMax: +0.100667 at state 0 ( [ +0.000000 +0.000000 +0.000000 ] spin 1 )
	HOMO-LUMO gap: +0.000232
	Optical gap  : +0.000423 at state 56 ( [ -0.444444 +0.000000 +0.000000 ] spin -1 )
Dumping 'jdft.Ecomponents' ... done
IonicMinimize: Iter:  11  F: -2313.221659519135756  |grad|_K:  1.203e-04  alpha:  1.000e+00  linmin: -7.170e-02  t[s]:  60397.70

#--- Lowdin population analysis ---
# oxidation-state Pt -0.014 +0.007 -0.032 +0.008 +0.007 +0.007 +0.006 +0.013 +0.009 -0.058 +0.098 -0.003 +0.082 -0.003 +0.006 +0.008 +0.012 +0.007 +0.008 +0.007 +0.009 -0.032 +0.099 -0.059 -0.013 +0.081
# magnetic-moments Pt -0.000 -0.000 -0.000 -0.000 -0.000 -0.000 -0.000 -0.000 -0.000 -0.000 -0.000 -0.000 -0.000 -0.000 -0.000 -0.000 -0.000 -0.000 -0.000 -0.000 -0.000 -0.000 -0.000 -0.000 -0.000 -0.000


Computing DFT-D3 correction:
# coordination-number Pt 7.049 9.404 8.602 9.512 9.539 9.462 9.568 9.555 9.419 8.635 5.276 9.422 5.971 9.419 9.457 9.414 9.553 9.571 9.408 9.540 9.515 8.604 5.276 8.634 7.050 5.971
# diagonal-C6 Pt 336.87 336.87 336.87 336.87 336.87 336.87 336.87 336.87 336.87 336.87 336.87 336.87 336.87 336.87 336.87 336.87 336.87 336.87 336.87 336.87 336.87 336.87 336.87 336.87 336.87 336.87
EvdW_6 =   -0.233291
EvdW_8 =   -0.376411

-------- Electronic minimization -----------
	Linear fluid (dielectric constant: 78.4, screening length: 8.12261 Bohr) occupying 0.560318 of unit cell:	Completed after 11 iterations at t[s]:  60445.97
	FillingsUpdate:  mu: -0.183387687  nElectrons: 416.000000  magneticMoment: [ Abs: 0.00000  Tot: -0.00000 ]
ElecMinimize: Iter:   0  F: -2313.221629450998080  |grad|_K:  3.381e-07  alpha:  1.000e+00
	Linear fluid (dielectric constant: 78.4, screening length: 8.12261 Bohr) occupying 0.560320 of unit cell:	Completed after 20 iterations at t[s]:  60550.17
	Linear fluid (dielectric constant: 78.4, screening length: 8.12261 Bohr) occupying 0.560317 of unit cell:	Completed after 20 iterations at t[s]:  60585.11
	FillingsUpdate:  mu: -0.183951780  nElectrons: 416.000000  magneticMoment: [ Abs: 0.00000  Tot: -0.00000 ]
	SubspaceRotationAdjust: set factor to 0.0271
ElecMinimize: Iter:   1  F: -2313.221640547144943  |grad|_K:  1.319e-07  alpha:  1.604e-01  linmin:  7.017e-04  t[s]:  60634.06
	Linear fluid (dielectric constant: 78.4, screening length: 8.12261 Bohr) occupying 0.560317 of unit cell:	Completed after 6 iterations at t[s]:  60679.55
	Linear fluid (dielectric constant: 78.4, screening length: 8.12261 Bohr) occupying 0.560317 of unit cell:	Completed after 7 iterations at t[s]:  60712.99
	FillingsUpdate:  mu: -0.184090942  nElectrons: 416.000000  magneticMoment: [ Abs: 0.00000  Tot: -0.00000 ]
	SubspaceRotationAdjust: set factor to 0.031
ElecMinimize: Iter:   2  F: -2313.221644670084970  |grad|_K:  7.118e-08  alpha:  3.947e-01  linmin:  3.420e-03  t[s]:  60762.01
	Linear fluid (dielectric constant: 78.4, screening length: 8.12261 Bohr) occupying 0.560317 of unit cell:	Completed after 6 iterations at t[s]:  60807.26
	Linear fluid (dielectric constant: 78.4, screening length: 8.12261 Bohr) occupying 0.560317 of unit cell:	Completed after 3 iterations at t[s]:  60839.85
	FillingsUpdate:  mu: -0.183818630  nElectrons: 416.000000  magneticMoment: [ Abs: 0.00000  Tot: -0.00000 ]
	SubspaceRotationAdjust: set factor to 0.0352
ElecMinimize: Iter:   3  F: -2313.221646133098602  |grad|_K:  5.666e-08  alpha:  4.805e-01  linmin: -1.370e-03  t[s]:  60889.17
	Linear fluid (dielectric constant: 78.4, screening length: 8.12261 Bohr) occupying 0.560316 of unit cell:	Completed after 5 iterations at t[s]:  60934.26
	Linear fluid (dielectric constant: 78.4, screening length: 8.12261 Bohr) occupying 0.560316 of unit cell:	Completed after 4 iterations at t[s]:  60966.77
	FillingsUpdate:  mu: -0.184009224  nElectrons: 416.000000  magneticMoment: [ Abs: 0.00000  Tot: -0.00000 ]
	SubspaceRotationAdjust: set factor to 0.0402
ElecMinimize: Iter:   4  F: -2313.221647560311794  |grad|_K:  6.106e-08  alpha:  7.256e-01  linmin:  5.438e-04  t[s]:  61016.37
	Linear fluid (dielectric constant: 78.4, screening length: 8.12261 Bohr) occupying 0.560316 of unit cell:	Completed after 7 iterations at t[s]:  61061.88
	Linear fluid (dielectric constant: 78.4, screening length: 8.12261 Bohr) occupying 0.560316 of unit cell:	Completed after 0 iterations at t[s]:  61093.94
	FillingsUpdate:  mu: -0.183956696  nElectrons: 416.000000  magneticMoment: [ Abs: 0.00000  Tot: -0.00000 ]
	SubspaceRotationAdjust: set factor to 0.0423
ElecMinimize: Iter:   5  F: -2313.221649265180986  |grad|_K:  7.367e-08  alpha:  7.579e-01  linmin: -2.926e-04  t[s]:  61143.57
	Linear fluid (dielectric constant: 78.4, screening length: 8.12261 Bohr) occupying 0.560316 of unit cell:	Completed after 8 iterations at t[s]:  61188.85
	Linear fluid (dielectric constant: 78.4, screening length: 8.12261 Bohr) occupying 0.560316 of unit cell:	Completed after 7 iterations at t[s]:  61221.77
	FillingsUpdate:  mu: -0.183858738  nElectrons: 416.000000  magneticMoment: [ Abs: 0.00000  Tot: -0.00000 ]
	SubspaceRotationAdjust: set factor to 0.0371
ElecMinimize: Iter:   6  F: -2313.221651032949467  |grad|_K:  8.364e-08  alpha:  5.261e-01  linmin:  2.144e-04  t[s]:  61271.61
	Linear fluid (dielectric constant: 78.4, screening length: 8.12261 Bohr) occupying 0.560316 of unit cell:	Completed after 9 iterations at t[s]:  61316.96
	Linear fluid (dielectric constant: 78.4, screening length: 8.12261 Bohr) occupying 0.560316 of unit cell:	Completed after 0 iterations at t[s]:  61348.84
	FillingsUpdate:  mu: -0.184050386  nElectrons: 416.000000  magneticMoment: [ Abs: 0.00000  Tot: -0.00000 ]
	SubspaceRotationAdjust: set factor to 0.0329
ElecMinimize: Iter:   7  F: -2313.221653382398017  |grad|_K:  7.808e-08  alpha:  5.550e-01  linmin: -3.963e-04  t[s]:  61398.34
	Linear fluid (dielectric constant: 78.4, screening length: 8.12261 Bohr) occupying 0.560315 of unit cell:	Completed after 4 iterations at t[s]:  61443.24
	Linear fluid (dielectric constant: 78.4, screening length: 8.12261 Bohr) occupying 0.560315 of unit cell:	Completed after 3 iterations at t[s]:  61476.11
	FillingsUpdate:  mu: -0.183948545  nElectrons: 416.000000  magneticMoment: [ Abs: 0.00000  Tot: -0.00000 ]
	SubspaceRotationAdjust: set factor to 0.0347
ElecMinimize: Iter:   8  F: -2313.221655858413214  |grad|_K:  7.228e-08  alpha:  6.557e-01  linmin:  1.610e-04  t[s]:  61526.23
	Linear fluid (dielectric constant: 78.4, screening length: 8.12261 Bohr) occupying 0.560314 of unit cell:	Completed after 6 iterations at t[s]:  61571.19
	Linear fluid (dielectric constant: 78.4, screening length: 8.12261 Bohr) occupying 0.560314 of unit cell:	Completed after 0 iterations at t[s]:  61603.85
	FillingsUpdate:  mu: -0.183995484  nElectrons: 416.000000  magneticMoment: [ Abs: 0.00000  Tot: -0.00000 ]
	SubspaceRotationAdjust: set factor to 0.0366
ElecMinimize: Iter:   9  F: -2313.221657881698320  |grad|_K:  6.320e-08  alpha:  6.410e-01  linmin: -2.273e-05  t[s]:  61653.80
	Linear fluid (dielectric constant: 78.4, screening length: 8.12261 Bohr) occupying 0.560313 of unit cell:	Completed after 8 iterations at t[s]:  61699.22
	Linear fluid (dielectric constant: 78.4, screening length: 8.12261 Bohr) occupying 0.560313 of unit cell:	Completed after 7 iterations at t[s]:  61732.30
	FillingsUpdate:  mu: -0.183968249  nElectrons: 416.000000  magneticMoment: [ Abs: 0.00000  Tot: -0.00000 ]
	SubspaceRotationAdjust: set factor to 0.0313
ElecMinimize: Iter:  10  F: -2313.221658948069489  |grad|_K:  5.605e-08  alpha:  4.382e-01  linmin:  4.861e-05  t[s]:  61782.38
	Linear fluid (dielectric constant: 78.4, screening length: 8.12261 Bohr) occupying 0.560312 of unit cell:	Completed after 7 iterations at t[s]:  61827.31
	Linear fluid (dielectric constant: 78.4, screening length: 8.12261 Bohr) occupying 0.560312 of unit cell:	Completed after 1 iterations at t[s]:  61859.40
	FillingsUpdate:  mu: -0.183981513  nElectrons: 416.000000  magneticMoment: [ Abs: 0.00000  Tot: -0.00000 ]
	SubspaceRotationAdjust: set factor to 0.0268
ElecMinimize: Iter:  11  F: -2313.221659717240527  |grad|_K:  4.363e-08  alpha:  4.027e-01  linmin:  4.674e-04  t[s]:  61909.72
	Linear fluid (dielectric constant: 78.4, screening length: 8.12261 Bohr) occupying 0.560311 of unit cell:	Completed after 2 iterations at t[s]:  61954.09
	Linear fluid (dielectric constant: 78.4, screening length: 8.12261 Bohr) occupying 0.560310 of unit cell:	Completed after 2 iterations at t[s]:  61986.21
	FillingsUpdate:  mu: -0.184014004  nElectrons: 416.000000  magneticMoment: [ Abs: 0.00000  Tot: -0.00000 ]
	SubspaceRotationAdjust: set factor to 0.0308
ElecMinimize: Iter:  12  F: -2313.221660340529525  |grad|_K:  3.178e-08  alpha:  5.466e-01  linmin: -3.179e-04  t[s]:  62036.61
	Linear fluid (dielectric constant: 78.4, screening length: 8.12261 Bohr) occupying 0.560310 of unit cell:	Completed after 3 iterations at t[s]:  62080.98
	Linear fluid (dielectric constant: 78.4, screening length: 8.12261 Bohr) occupying 0.560309 of unit cell:	Completed after 0 iterations at t[s]:  62113.07
	FillingsUpdate:  mu: -0.183983924  nElectrons: 416.000000  magneticMoment: [ Abs: 0.00000  Tot: -0.00000 ]
	SubspaceRotationAdjust: set factor to 0.0354
ElecMinimize: Iter:  13  F: -2313.221660711692493  |grad|_K:  2.596e-08  alpha:  5.971e-01  linmin: -6.161e-04  t[s]:  62163.39
	Linear fluid (dielectric constant: 78.4, screening length: 8.12261 Bohr) occupying 0.560309 of unit cell:	Completed after 2 iterations at t[s]:  62207.70
	Linear fluid (dielectric constant: 78.4, screening length: 8.12261 Bohr) occupying 0.560309 of unit cell:	Completed after 0 iterations at t[s]:  62239.50
	FillingsUpdate:  mu: -0.183974859  nElectrons: 416.000000  magneticMoment: [ Abs: 0.00000  Tot: -0.00000 ]
	SubspaceRotationAdjust: set factor to 0.04
ElecMinimize: Iter:  14  F: -2313.221660982854246  |grad|_K:  2.212e-08  alpha:  6.484e-01  linmin: -5.868e-04  t[s]:  62289.74
	Linear fluid (dielectric constant: 78.4, screening length: 8.12261 Bohr) occupying 0.560309 of unit cell:	Completed after 2 iterations at t[s]:  62334.02
	Linear fluid (dielectric constant: 78.4, screening length: 8.12261 Bohr) occupying 0.560309 of unit cell:	Completed after 0 iterations at t[s]:  62366.02
	FillingsUpdate:  mu: -0.183993536  nElectrons: 416.000000  magneticMoment: [ Abs: 0.00000  Tot: -0.00000 ]
	SubspaceRotationAdjust: set factor to 0.0431
ElecMinimize: Iter:  15  F: -2313.221661183314609  |grad|_K:  1.932e-08  alpha:  6.609e-01  linmin:  1.625e-04  t[s]:  62416.45
	Linear fluid (dielectric constant: 78.4, screening length: 8.12261 Bohr) occupying 0.560309 of unit cell:	Completed after 2 iterations at t[s]:  62460.81
	Linear fluid (dielectric constant: 78.4, screening length: 8.12261 Bohr) occupying 0.560309 of unit cell:	Completed after 0 iterations at t[s]:  62492.72
	FillingsUpdate:  mu: -0.183989039  nElectrons: 416.000000  magneticMoment: [ Abs: 0.00000  Tot: -0.00000 ]
	SubspaceRotationAdjust: set factor to 0.0469
ElecMinimize: Iter:  16  F: -2313.221661322835189  |grad|_K:  1.553e-08  alpha:  6.166e-01  linmin:  2.350e-04  t[s]:  62543.65
	Linear fluid (dielectric constant: 78.4, screening length: 8.12261 Bohr) occupying 0.560309 of unit cell:	Completed after 2 iterations at t[s]:  62587.92
	Linear fluid (dielectric constant: 78.4, screening length: 8.12261 Bohr) occupying 0.560309 of unit cell:	Completed after 0 iterations at t[s]:  62620.02
	FillingsUpdate:  mu: -0.183981166  nElectrons: 416.000000  magneticMoment: [ Abs: 0.00000  Tot: -0.00000 ]
	SubspaceRotationAdjust: set factor to 0.0509
ElecMinimize: Iter:  17  F: -2313.221661406349085  |grad|_K:  1.165e-08  alpha:  5.717e-01  linmin: -3.829e-04  t[s]:  62670.13
	Linear fluid (dielectric constant: 78.4, screening length: 8.12261 Bohr) occupying 0.560309 of unit cell:	Completed after 1 iterations at t[s]:  62714.30
	Linear fluid (dielectric constant: 78.4, screening length: 8.12261 Bohr) occupying 0.560309 of unit cell:	Completed after 0 iterations at t[s]:  62746.35
	FillingsUpdate:  mu: -0.183983019  nElectrons: 416.000000  magneticMoment: [ Abs: 0.00000  Tot: -0.00000 ]
	SubspaceRotationAdjust: set factor to 0.0549
ElecMinimize: Iter:  18  F: -2313.221661453652359  |grad|_K:  8.389e-09  alpha:  5.651e-01  linmin: -6.177e-04  t[s]:  62797.40
ElecMinimize: Converged (|Delta F|<1.000000e-07 for 2 iters).
Setting wave functions to eigenvectors of Hamiltonian
Converging empty states (this may take a while): |deigs|: 3.622e-09

Computing DFT-D3 correction:
# coordination-number Pt 7.049 9.404 8.602 9.512 9.539 9.462 9.568 9.555 9.419 8.635 5.276 9.422 5.971 9.419 9.457 9.414 9.553 9.571 9.408 9.540 9.515 8.604 5.276 8.634 7.050 5.971
# diagonal-C6 Pt 336.87 336.87 336.87 336.87 336.87 336.87 336.87 336.87 336.87 336.87 336.87 336.87 336.87 336.87 336.87 336.87 336.87 336.87 336.87 336.87 336.87 336.87 336.87 336.87 336.87 336.87
EvdW_6 =   -0.233291
EvdW_8 =   -0.376411

# Ionic positions in cartesian coordinates:
ion Pt   0.003166813160765  10.233948906312733  24.335432921070723 1
ion Pt   0.001770479865863   4.102262132732362  19.964953965339479 1
ion Pt   3.704673690708594   7.304296972084474  22.270364587084220 1
ion Pt   3.698416175268602   1.003214051121933  17.915986107662455 1
ion Pt  -0.001368026639956   8.213085441449339  13.883601865384762 1
ion Pt   0.001965378349098   2.051620194408854   9.729626003981705 1
ion Pt   3.697061788370152  11.268012002658791  15.907575254226913 1
ion Pt   3.700611109837745   5.129874031528435  11.793385551055634 1
ion Pt  -0.001269400772864  12.351042131933520   7.635515104373161 1
ion Pt  -0.001368197769946   6.112814127446169   3.509144613986915 1
ion Pt   0.004161408440490  -0.025117358052272  25.874782917511439 1
ion Pt   3.698182002115720   9.236496050337038   5.727216692905354 1
ion Pt   3.695464028459998   3.053112636020041   1.692327469858677 1
ion Pt   3.700969692814022  12.311335845757180  20.951726812181473 1
ion Pt   3.697564472485706   6.156455009251125  16.947398518304105 1
ion Pt   0.001211320029872   9.196493707088297  19.042809911924941 1
ion Pt  -0.001135207051576   3.078116036323299  14.883265370333339 1
ion Pt   3.702128945686057  10.279016064245145  10.769169818895639 1
ion Pt   3.697672852995827   4.105828129434445   6.713630462909428 1
ion Pt   0.001317326093520  13.333758381924721  12.793016842392730 1
ion Pt   0.001123060550591   7.204605582662298   8.761274154047141 1
ion Pt  -0.005078985832051   0.905006265512003   4.408572082750565 1
ion Pt   3.695558874113927   8.234667656704941   0.803728698111811 1
ion Pt   3.700975514413996   2.096760216453462  23.169791415691346 1
ion Pt  -0.002926730782172  11.314532028271451   2.343639389039310 1
ion Pt   0.004099615088014   5.156062756390189  24.986538468976708 1

# Forces in Cartesian coordinates:
force Pt   0.000022801956533   0.000058815097194  -0.000072635638670 1
force Pt   0.000002487998074   0.000059035822184  -0.000254403654422 1
force Pt   0.000018058020714   0.000022816352829  -0.000068256221854 1
force Pt   0.000020241874068   0.000112233291968  -0.000050907575430 1
force Pt  -0.000001669862177   0.000182221202642  -0.000002674225675 1
force Pt  -0.000016664629406   0.000085619549665  -0.000019105655506 1
force Pt   0.000003016121317   0.000045970652989  -0.000063551279417 1
force Pt   0.000005207287411   0.000061274206611  -0.000057719802504 1
force Pt  -0.000013580127841  -0.000005321578822  -0.000018467795638 1
force Pt  -0.000025994419965  -0.000076160597878   0.000081433875528 1
force Pt   0.000019556416322   0.000125145603077   0.000102732385774 1
force Pt  -0.000012720635121   0.000014158342905   0.000021123116698 1
force Pt  -0.000012802190316  -0.000094901595178  -0.000180701899221 1
force Pt   0.000011843764807  -0.000000408182737  -0.000166066084372 1
force Pt   0.000014657705519  -0.000068948951700   0.000122924633926 1
force Pt   0.000016085981466  -0.000014378222359  -0.000033343602706 1
force Pt  -0.000005386036926  -0.000048164063326   0.000199405230521 1
force Pt  -0.000003086417839  -0.000073252569191   0.000217847038949 1
force Pt  -0.000001044521267  -0.000039624786328   0.000142151785366 1
force Pt  -0.000000797906642  -0.000152115339718   0.000142854771413 1
force Pt  -0.000022567449976  -0.000101791710151   0.000122230009522 1
force Pt  -0.000018427429495  -0.000020478512777   0.000006666437058 1
force Pt  -0.000022126214178  -0.000100416325162  -0.000055114403252 1
force Pt   0.000025522394465   0.000072941390902  -0.000149368394871 1
force Pt  -0.000023987462630  -0.000058369877380   0.000016051096945 1
force Pt   0.000012573126351   0.000119283161050   0.000132430146467 1

# Energy components:
   A_diel =       -0.0060995757957355
   Eewald =    30692.4967049671467976
       EH =    32791.7214331520008272
     Eloc =   -66198.7465876270871377
      Enl =      -27.4181034682210445
     EvdW =       -0.6097017386017290
      Exc =     -739.7355440342379325
 Exc_core =      426.1759346436021474
       KE =      742.9047889356122596
-------------------------------------
     Etot =    -2313.2171747455822697
       TS =        0.0044867080700722
-------------------------------------
        F =    -2313.2216614536523593


Dumping 'jdft.fillings' ... done
Dumping 'jdft.wfns' ... done
Dumping 'jdft.fluidState' ... done
Dumping 'jdft.ionpos' ... done
Dumping 'jdft.lattice' ... done
Dumping 'jdft.eigenvals' ... done
Dumping 'jdft.eigStats' ... 
	eMin: -2.133758 at state 56 ( [ -0.444444 +0.000000 +0.000000 ] spin -1 )
	HOMO: -0.184044 at state 19 ( [ +0.444444 -0.250000 +0.000000 ] spin 1 )
	mu  : -0.183983
	LUMO: -0.183856 at state 69 ( [ -0.111111 +0.250000 +0.000000 ] spin -1 )
	eMax: +0.100660 at state 0 ( [ +0.000000 +0.000000 +0.000000 ] spin 1 )
	HOMO-LUMO gap: +0.000188
	Optical gap  : +0.000445 at state 56 ( [ -0.444444 +0.000000 +0.000000 ] spin -1 )
Dumping 'jdft.Ecomponents' ... done
IonicMinimize: Iter:  12  F: -2313.221661453652359  |grad|_K:  8.392e-05  alpha:  1.000e+00  linmin: -8.832e-02  t[s]:  62922.51
IonicMinimize: Converged (|grad|_K<1.000000e-04).

#--- Lowdin population analysis ---
# oxidation-state Pt -0.014 +0.008 -0.032 +0.009 +0.007 +0.006 +0.008 +0.012 +0.009 -0.058 +0.098 -0.003 +0.082 -0.003 +0.006 +0.009 +0.012 +0.007 +0.007 +0.007 +0.009 -0.032 +0.098 -0.057 -0.015 +0.082
# magnetic-moments Pt -0.000 -0.000 -0.000 -0.000 -0.000 -0.000 -0.000 -0.000 -0.000 -0.000 -0.000 -0.000 -0.000 -0.000 -0.000 -0.000 -0.000 -0.000 -0.000 -0.000 -0.000 -0.000 -0.000 -0.000 -0.000 -0.000


Dumping 'jdft.n_up' ... done
Dumping 'jdft.n_dn' ... done
Dumping 'jdft.tau_up' ... done
Dumping 'jdft.tau_dn' ... done
Dumping 'jdft.eigenvals' ... done
Dumping 'jdft.eigStats' ... 
	eMin: -2.133758 at state 56 ( [ -0.444444 +0.000000 +0.000000 ] spin -1 )
	HOMO: -0.184044 at state 19 ( [ +0.444444 -0.250000 +0.000000 ] spin 1 )
	mu  : -0.183983
	LUMO: -0.183856 at state 69 ( [ -0.111111 +0.250000 +0.000000 ] spin -1 )
	eMax: +0.100660 at state 0 ( [ +0.000000 +0.000000 +0.000000 ] spin 1 )
	HOMO-LUMO gap: +0.000188
	Optical gap  : +0.000445 at state 56 ( [ -0.444444 +0.000000 +0.000000 ] spin -1 )
Dumping 'jdft.kPts' ... done
Dumping 'jdft.dosUp' ... done.
Dumping 'jdft.dosDn' ... done.
End date and time: Tue Dec  7 10:05:26 2021  (Duration: 0-17:29:55.83)
Done!
