
*************** JDFTx 1.6.0  ***************

Start date and time: Mon Dec  6 17:24:24 2021
Executable /projects/musgravc/apps/jdftx-1.6.1/build/jdftx with command-line: -i in
Running on hosts (process indices):  shas0618.rc.int.colorado.edu (0-23)
Divided in process groups (process indices):  0 (0)  1 (1)  2 (2)  3 (3)  4 (4)  5 (5)  6 (6)  7 (7)  8 (8)  9 (9)  10 (10)  11 (11)  12 (12)  13 (13)  14 (14)  15 (15)  16 (16)  17 (17)  18 (18)  19 (19)  20 (20)  21 (21)  22 (22)  23 (23)
Resource initialization completed at t[s]:      0.00
Run totals: 24 processes, 24 threads, 0 GPUs


Input parsed successfully to the following command list (including defaults):

basis kpoint-dependent
converge-empty-states yes
coords-type Cartesian
core-overlap-check none
coulomb-interaction Periodic
davidson-band-ratio 1.1
density-of-states Etol 1.000000e-06 Esigma 1.000000e-03 \
		Complete \
	Total \
	OrthoOrbital Ag 1   s \
	OrthoOrbital Ag 1   p \
	OrthoOrbital Ag 1   px \
	OrthoOrbital Ag 1   py \
	OrthoOrbital Ag 1   pz \
	OrthoOrbital Ag 1   d \
	OrthoOrbital Ag 1   dxy \
	OrthoOrbital Ag 1   dyz \
	OrthoOrbital Ag 1   dz2 \
	OrthoOrbital Ag 1   dxz \
	OrthoOrbital Ag 1   dx2-y2 \
	OrthoOrbital Ag 2   s \
	OrthoOrbital Ag 2   p \
	OrthoOrbital Ag 2   px \
	OrthoOrbital Ag 2   py \
	OrthoOrbital Ag 2   pz \
	OrthoOrbital Ag 2   d \
	OrthoOrbital Ag 2   dxy \
	OrthoOrbital Ag 2   dyz \
	OrthoOrbital Ag 2   dz2 \
	OrthoOrbital Ag 2   dxz \
	OrthoOrbital Ag 2   dx2-y2 \
	OrthoOrbital Ag 3   s \
	OrthoOrbital Ag 3   p \
	OrthoOrbital Ag 3   px \
	OrthoOrbital Ag 3   py \
	OrthoOrbital Ag 3   pz \
	OrthoOrbital Ag 3   d \
	OrthoOrbital Ag 3   dxy \
	OrthoOrbital Ag 3   dyz \
	OrthoOrbital Ag 3   dz2 \
	OrthoOrbital Ag 3   dxz \
	OrthoOrbital Ag 3   dx2-y2 \
	OrthoOrbital Ag 4   s \
	OrthoOrbital Ag 4   p \
	OrthoOrbital Ag 4   px \
	OrthoOrbital Ag 4   py \
	OrthoOrbital Ag 4   pz \
	OrthoOrbital Ag 4   d \
	OrthoOrbital Ag 4   dxy \
	OrthoOrbital Ag 4   dyz \
	OrthoOrbital Ag 4   dz2 \
	OrthoOrbital Ag 4   dxz \
	OrthoOrbital Ag 4   dx2-y2 \
	OrthoOrbital Ag 5   s \
	OrthoOrbital Ag 5   p \
	OrthoOrbital Ag 5   px \
	OrthoOrbital Ag 5   py \
	OrthoOrbital Ag 5   pz \
	OrthoOrbital Ag 5   d \
	OrthoOrbital Ag 5   dxy \
	OrthoOrbital Ag 5   dyz \
	OrthoOrbital Ag 5   dz2 \
	OrthoOrbital Ag 5   dxz \
	OrthoOrbital Ag 5   dx2-y2 \
	OrthoOrbital Ag 6   s \
	OrthoOrbital Ag 6   p \
	OrthoOrbital Ag 6   px \
	OrthoOrbital Ag 6   py \
	OrthoOrbital Ag 6   pz \
	OrthoOrbital Ag 6   d \
	OrthoOrbital Ag 6   dxy \
	OrthoOrbital Ag 6   dyz \
	OrthoOrbital Ag 6   dz2 \
	OrthoOrbital Ag 6   dxz \
	OrthoOrbital Ag 6   dx2-y2 \
	OrthoOrbital Ag 7   s \
	OrthoOrbital Ag 7   p \
	OrthoOrbital Ag 7   px \
	OrthoOrbital Ag 7   py \
	OrthoOrbital Ag 7   pz \
	OrthoOrbital Ag 7   d \
	OrthoOrbital Ag 7   dxy \
	OrthoOrbital Ag 7   dyz \
	OrthoOrbital Ag 7   dz2 \
	OrthoOrbital Ag 7   dxz \
	OrthoOrbital Ag 7   dx2-y2 \
	OrthoOrbital Ag 8   s \
	OrthoOrbital Ag 8   p \
	OrthoOrbital Ag 8   px \
	OrthoOrbital Ag 8   py \
	OrthoOrbital Ag 8   pz \
	OrthoOrbital Ag 8   d \
	OrthoOrbital Ag 8   dxy \
	OrthoOrbital Ag 8   dyz \
	OrthoOrbital Ag 8   dz2 \
	OrthoOrbital Ag 8   dxz \
	OrthoOrbital Ag 8   dx2-y2 \
	OrthoOrbital Ag 9   s \
	OrthoOrbital Ag 9   p \
	OrthoOrbital Ag 9   px \
	OrthoOrbital Ag 9   py \
	OrthoOrbital Ag 9   pz \
	OrthoOrbital Ag 9   d \
	OrthoOrbital Ag 9   dxy \
	OrthoOrbital Ag 9   dyz \
	OrthoOrbital Ag 9   dz2 \
	OrthoOrbital Ag 9   dxz \
	OrthoOrbital Ag 9   dx2-y2 \
	OrthoOrbital Ag 10   s \
	OrthoOrbital Ag 10   p \
	OrthoOrbital Ag 10   px \
	OrthoOrbital Ag 10   py \
	OrthoOrbital Ag 10   pz \
	OrthoOrbital Ag 10   d \
	OrthoOrbital Ag 10   dxy \
	OrthoOrbital Ag 10   dyz \
	OrthoOrbital Ag 10   dz2 \
	OrthoOrbital Ag 10   dxz \
	OrthoOrbital Ag 10   dx2-y2
dump End ElecDensity KEdensity BandEigs EigStats RhoAtom DOS Kpoints
dump Ionic State IonicPositions Lattice EigStats Ecomponents
dump 
dump 
dump 
dump 
dump 
dump 
dump 
dump 
dump-name jdft.$VAR
elec-cutoff 20
elec-eigen-algo Davidson
elec-ex-corr gga-PBE
elec-initial-magnetization 0.000000 no
elec-n-bands 114
elec-smearing Fermi 0.001
electronic-minimize  \
	dirUpdateScheme      FletcherReeves \
	linminMethod         DirUpdateRecommended \
	nIterations          100 \
	history              15 \
	knormThreshold       0 \
	energyDiffThreshold  1e-07 \
	nEnergyDiff          2 \
	alphaTstart          1 \
	alphaTmin            1e-10 \
	updateTestStepSize   yes \
	alphaTreduceFactor   0.1 \
	alphaTincreaseFactor 3 \
	nAlphaAdjustMax      3 \
	wolfeEnergy          0.0001 \
	wolfeGradient        0.9 \
	fdTest               no
exchange-regularization WignerSeitzTruncated
fluid LinearPCM 298.000000 1.013250
fluid-anion F- 0.5 MeanFieldLJ \
	epsBulk 1 \
	pMol 0 \
	epsInf 1 \
	Pvap 0 \
	sigmaBulk 0 \
	Rvdw 2.24877 \
	Res 0 \
	tauNuc 343133
fluid-cation Na+ 0.5 MeanFieldLJ \
	epsBulk 1 \
	pMol 0 \
	epsInf 1 \
	Pvap 0 \
	sigmaBulk 0 \
	Rvdw 2.19208 \
	Res 0 \
	tauNuc 343133
fluid-ex-corr lda-TF lda-PZ
fluid-gummel-loop 10 1.000000e-05
fluid-minimize  \
	dirUpdateScheme      PolakRibiere \
	linminMethod         DirUpdateRecommended \
	nIterations          400 \
	history              15 \
	knormThreshold       1e-11 \
	energyDiffThreshold  0 \
	nEnergyDiff          2 \
	alphaTstart          1 \
	alphaTmin            1e-10 \
	updateTestStepSize   yes \
	alphaTreduceFactor   0.1 \
	alphaTincreaseFactor 3 \
	nAlphaAdjustMax      6 \
	wolfeEnergy          0.0001 \
	wolfeGradient        0.9 \
	fdTest               no
fluid-solvent H2O 55.338 ScalarEOS \
	epsBulk 78.4 \
	pMol 0.92466 \
	epsInf 1.77 \
	Pvap 1.06736e-10 \
	sigmaBulk 4.62e-05 \
	Rvdw 2.61727 \
	Res 1.42 \
	tauNuc 343133 \
	poleEl 15 7 1
forces-output-coords Positions
ion Ag   3.832834000000000   1.714096000000000  12.855717000000002 1
ion Ag  -0.000000000000000   3.428191000000000   9.427508000000000 1
ion Ag   3.832834000000001   5.142287000000000   5.999352000000000 1
ion Ag  -0.000001000000000   6.856383000000000   2.571143000000000 1
ion Ag   0.000000000000000   0.000000000000000  16.283925000000000 1
ion Ag   3.832833000000001   6.856383000000000  11.141638000000000 1
ion Ag   3.832834000000000   0.000000000000000   7.713430000000000 1
ion Ag   0.000000000000000   1.714096000000000   4.285222000000000 1
ion Ag   3.832834000000001   3.428191000000000   0.857065000000000 1
ion Ag  -0.000001000000000   5.142287000000000  14.569794999999997 1
ion-species /projects/musgravc/apps/jdftx-1.6.0/build/pseudopotentials/GBRV_v1.5/$ID_pbe_v1.uspp
ion-species /projects/musgravc/apps/jdftx-1.6.0/build/pseudopotentials/GBRV_v1.5/$ID_pbe_v1.2.uspp
ion-species /projects/musgravc/apps/jdftx-1.6.0/build/pseudopotentials/GBRV_v1.5/$ID_pbe_v1.4.uspp
ion-species /projects/musgravc/apps/jdftx-1.6.0/build/pseudopotentials/GBRV_v1.5/$ID_pbe_v1.5.uspp
ion-width Ecut
ionic-minimize  \
	dirUpdateScheme      L-BFGS \
	linminMethod         DirUpdateRecommended \
	nIterations          100 \
	history              15 \
	knormThreshold       0.0001 \
	energyDiffThreshold  1e-06 \
	nEnergyDiff          2 \
	alphaTstart          1 \
	alphaTmin            1e-10 \
	updateTestStepSize   yes \
	alphaTreduceFactor   0.1 \
	alphaTincreaseFactor 3 \
	nAlphaAdjustMax      3 \
	wolfeEnergy          0.0001 \
	wolfeGradient        0.9 \
	fdTest               no
kpoint   0.000000000000   0.000000000000   0.000000000000  1.00000000000000
kpoint-folding 9 7 1 
latt-move-scale 0 0 0
latt-scale 1 1 1 
lattice  \
	   7.665668000000000   -3.832835000000000    0.000000000000000  \
	   0.000000000000000    8.570479000000001    0.000000000000000  \
	   0.000000000000000    0.000000000000000   51.422865999999999 
lattice-minimize  \
	dirUpdateScheme      L-BFGS \
	linminMethod         DirUpdateRecommended \
	nIterations          0 \
	history              15 \
	knormThreshold       0 \
	energyDiffThreshold  1e-06 \
	nEnergyDiff          2 \
	alphaTstart          1 \
	alphaTmin            1e-10 \
	updateTestStepSize   yes \
	alphaTreduceFactor   0.1 \
	alphaTincreaseFactor 3 \
	nAlphaAdjustMax      3 \
	wolfeEnergy          0.0001 \
	wolfeGradient        0.9 \
	fdTest               no
lcao-params 30 1e-06 0.001
pcm-variant CANDLE
spintype z-spin
subspace-rotation-factor 1 yes
symmetries none
symmetry-threshold 0.0001
target-mu -0.1713 no

van-der-waals D3


Applied RMS atom displacement 0 bohrs to make symmetries exact.

---------- Initializing the Grid ----------
R = 
[      7.66567     -3.83284            0  ]
[            0      8.57048            0  ]
[            0            0      51.4229  ]
unit cell volume = 3378.4
G =
[   0.819653    0.36656         -0  ]
[          0    0.73312          0  ]
[          0         -0   0.122187  ]
Minimum fftbox size, Smin = [  32  40  208  ]
Chosen fftbox size, S = [  32  40  210  ]

---------- Exchange Correlation functional ----------
Initalized PBE GGA exchange.
Initalized PBE GGA correlation.

---------- Setting up pseudopotentials ----------
Width of ionic core gaussian charges (only for fluid interactions / plotting) set to 0.397384

Reading pseudopotential file '/projects/musgravc/apps/jdftx-1.6.0/build/pseudopotentials/GBRV_v1.5/ag_pbe_v1.4.uspp':
  Title: Ag.  Created by USPP 7.3.6 on 1-4-15
  Reference state energy: -147.606242.  19 valence electrons in orbitals:
    |400>  occupation: 2  eigenvalue: -3.637437
    |410>  occupation: 6  eigenvalue: -2.297267
    |420>  occupation: 10  eigenvalue: -0.417763
    |500>  occupation: 0.5  eigenvalue: -0.283525
    |510>  occupation: 0  eigenvalue: -0.122889
  lMax: 2  lLocal: 0  QijEcut: 5.5
  6 projectors sampled on a log grid with 717 points:
    l: 0  eig: -0.283528  rCut: 1.5
    l: 0  eig: -3.637440  rCut: 1.5
    l: 1  eig: -0.122892  rCut: 1.5
    l: 1  eig: -2.297267  rCut: 1.5
    l: 2  eig: -0.417762  rCut: 1.7
    l: 2  eig: -1.000000  rCut: 1.7
  Partial core density with radius 1.2
  Transforming core density to a uniform radial grid of dG=0.02 with 1382 points.
  Transforming local potential to a uniform radial grid of dG=0.02 with 1382 points.
  Transforming nonlocal projectors to a uniform radial grid of dG=0.02 with 432 points.
  Transforming density augmentations to a uniform radial grid of dG=0.02 with 1382 points.
  Transforming atomic orbitals to a uniform radial grid of dG=0.02 with 432 points.
  Core radius for overlap checks: 1.70 bohrs.

Initialized 1 species with 10 total atoms.

Folded 1 k-points by 9x7x1 to 63 k-points.

---------- Setting up k-points, bands, fillings ----------
No reducable k-points. 
Computing the number of bands and number of electrons
Calculating initial fillings.
nElectrons: 190.000000   nBands: 114   nStates: 126

----- Setting up reduced wavefunction bases (one per k-point) -----
average nbasis = 14428.778 , ideal nbasis = 14432.793

----- Initializing Supercell corresponding to k-point mesh -----
Lattice vector linear combinations in supercell:
[   9   0   0  ]
[   0   7   0  ]
[   0   0   1  ]
Supercell lattice vectors:
[  68.991  -26.8298  0  ]
[  0  59.9934  0  ]
[  0  0  51.4229  ]

Initializing DFT-D3 calculator:
	Parameters set for gga-PBE functional
	s6:  1.000  s_r6:  1.217
	s8:  0.722  s_r8:  1.000
	Per-atom parameters loaded for:
	Ag:  sqrtQ[a0]:  5.443  Rcov[a0]:  2.173  CN: [ 0.00 0.97 ]

Initializing DFT-D2 calculator for fluid / solvation:
	Ag:  C6:  427.91 Eh-a0^6  R0: 3.097 a0

---------- Setting up ewald sum ----------
Optimum gaussian width for ewald sums = 4.078313 bohr.
Real space sum over 975 unit cells with max indices [  7  6  2  ]
Reciprocal space sum over 4257 terms with max indices [  4  5  21  ]

Computing DFT-D3 correction:
# coordination-number Ag 8.415 9.200 9.175 6.890 4.631 9.175 9.200 8.415 4.631 6.890
# diagonal-C6 Ag 268.61 268.61 268.61 268.61 268.61 268.61 268.61 268.61 268.61 268.61
EvdW_6 =   -0.055088
EvdW_8 =   -0.079170

---------- Allocating electronic variables ----------
Initializing wave functions:  linear combination of atomic orbitals
Ag pseudo-atom occupations:   s ( 2 1 )  p ( 6 0 )  d ( 10 )
	FillingsUpdate:  mu: -0.171300000  nElectrons: 190.000000  magneticMoment: [ Abs: 0.00084  Tot: +0.00001 ]
LCAOMinimize: Iter:   0  G: -1443.3388304127167885  |grad|_K:  6.941e-04  alpha:  1.000e+00
	FillingsUpdate:  mu: -0.171300000  nElectrons: 190.000000  magneticMoment: [ Abs: 0.00064  Tot: -0.00003 ]
LCAOMinimize: Iter:   1  G: -1443.3813054202760213  |grad|_K:  7.339e-04  alpha:  2.532e-01  linmin:  7.423e-02  cgtest: -6.079e-01  t[s]:     50.83
	FillingsUpdate:  mu: -0.171300000  nElectrons: 190.000000  magneticMoment: [ Abs: 0.00053  Tot: -0.00002 ]
LCAOMinimize: Iter:   2  G: -1443.3949829470727764  |grad|_K:  7.344e-04  alpha:  1.045e-01  linmin:  1.801e-03  cgtest:  1.006e+00  t[s]:     71.19
LCAOMinimize: Encountered beta<0, resetting CG.
	FillingsUpdate:  mu: -0.171300000  nElectrons: 190.000000  magneticMoment: [ Abs: 0.00056  Tot: -0.00004 ]
LCAOMinimize: Iter:   3  G: -1443.4645130220840201  |grad|_K:  6.956e-05  alpha:  1.208e-01  linmin:  1.121e-01  cgtest: -5.639e-01  t[s]:     91.38
	FillingsUpdate:  mu: -0.171300000  nElectrons: 190.000000  magneticMoment: [ Abs: 0.00055  Tot: -0.00003 ]
LCAOMinimize: Iter:   4  G: -1443.4655979290944288  |grad|_K:  5.559e-05  alpha:  3.406e-01  linmin:  2.090e-03  cgtest:  6.438e-01  t[s]:    111.46
	FillingsUpdate:  mu: -0.171300000  nElectrons: 190.000000  magneticMoment: [ Abs: 0.00055  Tot: -0.00003 ]
LCAOMinimize: Iter:   5  G: -1443.4659986646904599  |grad|_K:  1.291e-05  alpha:  1.216e-01  linmin:  8.331e-03  cgtest: -5.166e-02  t[s]:    131.67
	FillingsUpdate:  mu: -0.171300000  nElectrons: 190.000000  magneticMoment: [ Abs: 0.00054  Tot: -0.00003 ]
LCAOMinimize: Iter:   6  G: -1443.4660643396064188  |grad|_K:  6.000e-06  alpha:  3.280e-01  linmin: -5.231e-02  cgtest:  4.452e-01  t[s]:    151.93
	FillingsUpdate:  mu: -0.171300000  nElectrons: 190.000000  magneticMoment: [ Abs: 0.00054  Tot: -0.00003 ]
LCAOMinimize: Iter:   7  G: -1443.4660676718262948  |grad|_K:  4.582e-06  alpha:  8.617e-02  linmin: -1.236e-03  cgtest: -3.198e-03  t[s]:    172.18
	FillingsUpdate:  mu: -0.171300000  nElectrons: 190.000000  magneticMoment: [ Abs: 0.00054  Tot: -0.00003 ]
LCAOMinimize: Iter:   8  G: -1443.4660733178286591  |grad|_K:  2.925e-06  alpha:  2.313e-01  linmin: -1.806e-02  cgtest:  1.707e-01  t[s]:    192.45
	FillingsUpdate:  mu: -0.171300000  nElectrons: 190.000000  magneticMoment: [ Abs: 0.00054  Tot: -0.00003 ]
LCAOMinimize: Iter:   9  G: -1443.4660748704077378  |grad|_K:  8.946e-07  alpha:  1.580e-01  linmin: -1.601e-02  cgtest: -1.859e-01  t[s]:    212.67
	FillingsUpdate:  mu: -0.171300000  nElectrons: 190.000000  magneticMoment: [ Abs: 0.00054  Tot: -0.00003 ]
LCAOMinimize: Iter:  10  G: -1443.4660749167810536  |grad|_K:  6.889e-07  alpha:  8.552e-02  linmin: -7.951e-02  cgtest:  5.936e-01  t[s]:    232.87
	FillingsUpdate:  mu: -0.171300000  nElectrons: 190.000000  magneticMoment: [ Abs: 0.00054  Tot: -0.00003 ]
LCAOMinimize: Iter:  11  G: -1443.4660749306522121  |grad|_K:  5.035e-07  alpha:  4.976e-02  linmin: -1.720e-01  cgtest:  9.234e-01  t[s]:    253.02
LCAOMinimize: Encountered beta<0, resetting CG.
LCAOMinimize: Converged (|Delta G|<1.000000e-06 for 2 iters).
----- createFluidSolver() ----- (Fluid-side solver setup)
   Initializing fluid molecule 'H2O'
     Initializing site 'O'
       Electron density: proportional to exp(-r/0.36935)*erfc((r-0.51523)/0.36823) with norm 6.826
       Charge density: gaussian nuclear width 0.478731 with net site charge 0.826
       Polarizability: cuspless exponential with width 0.32 and norm 3.73
       Hard sphere radius: 2.57003 bohrs
       Positions in reference frame:
         [ +0.000000 +0.000000 +0.000000 ]
     Initializing site 'H'
       Electron density: proportional to exp(-r/0.34641)*erfc((r-0)/0.390882) with norm 0.587
       Charge density: gaussian nuclear width 0.377945 with net site charge -0.413
       Polarizability: cuspless exponential with width 0.39 and norm 3.3
       Positions in reference frame:
         [ +0.000000 -1.441945 +1.122523 ]
         [ +0.000000 +1.441945 +1.122523 ]
     Net charge: 0   dipole magnitude: 0.927204
     Initializing spherical shell mfKernel with radius 2.61727 Bohr
     deltaS corrections:
       site 'O': -7.54299
       site 'H': -6.83917
   Initializing fluid molecule 'Na+'
     Initializing site 'Na'
       Electron density: proportional to exp(-r/0.19682)*erfc((r-0.71491)/0.41314) with norm 8.1383
       Charge density: gaussian nuclear width 0.365347 with net site charge -1
       Hard sphere radius: 1.86327 bohrs
       Positions in reference frame:
         [ +0.000000 +0.000000 +0.000000 ]
     Net charge: -1   dipole magnitude: 0
     Initializing gaussian mfKernel with width: 1.55004 Bohr
     deltaS corrections:
       site 'Na': -22.3555
   Initializing fluid molecule 'F-'
     Initializing site 'F'
       Electron density: proportional to exp(-r/0.38886)*erfc((r-0)/0.438782) with norm 8
       Charge density: gaussian nuclear width 0.374796 with net site charge 1
       Hard sphere radius: 2.39995 bohrs
       Positions in reference frame:
         [ +0.000000 +0.000000 +0.000000 ]
     Net charge: 1   dipole magnitude: 0
     Initializing gaussian mfKernel with width: 1.59012 Bohr
     deltaS corrections:
       site 'F': -9.04335

Correction to mu due to finite nuclear width = -0.055801
   Cavity determined by nc: 0.00142 and sigma: 0.707107
   Nonlocal vdW cavity from gaussian model electron density with norm = 8 and sigma = 0.993594 bohr
   Charge asymmetry in cavity with sensitivity pCavity = 36.5 e-bohr/Eh
   Electrostatic cavity expanded by eta = 1.46 bohrs
   Weighted density cavitation model constrained by Nbulk: 0.0049383 bohr^-3, Pvap: 3.14029 kPa, Rvdw: 2.61727 bohr and sigmaBulk: 4.62e-05 Eh/bohr^2 at T: 298 K.
   Weighted density dispersion model using vdW pair potentials with single solvent site with sqrtC6eff: 0.77 SI.


---- Citations for features of the code used in this run ----

   Software package:
      R. Sundararaman, K. Letchworth-Weaver, K.A. Schwarz, D. Gunceler, Y. Ozhabes and T.A. Arias, 'JDFTx: software for joint density-functional theory', SoftwareX 6, 278 (2017)

   gga-PBE exchange-correlation functional:
      J.P. Perdew, K. Burke and M. Ernzerhof, Phys. Rev. Lett. 77, 3865 (1996)

   Pseudopotentials:
      KF Garrity, JW Bennett, KM Rabe and D Vanderbilt, Comput. Mater. Sci. 81, 446 (2014)

   DFT-D3 dispersion correction:
      S. Grimme, J. Antony, S. Ehrlich and H. Krieg, J. Chem. Phys. 132, 154104 (2010)

   DFT-D2 dispersion correction:
      S. Grimme, J. Comput. Chem. 27, 1787 (2006)

   Charge-asymmetric nonlocally-determined local-electric (CANDLE) solvation model:
      R. Sundararaman and W.A. Goddard III, J. Chem. Phys. 142, 064107 (2015)

   Total energy minimization with Auxiliary Hamiltonian:
      C. Freysoldt, S. Boeck, and J. Neugebauer, Phys. Rev. B 79, 241103(R) (2009)

   Grand-canonical (fixed-potential) DFT:
      R. Sundararaman, W. A. Goddard III and T. A. Arias, J. Chem. Phys. 146, 114104 (2017)

   Linear-tetrahedron sampling for density of states:
      G. Lehmann and M. Taut, Phys. status solidi (b) 54, 469 (1972)

This list may not be complete. Please suggest additional citations or
report any other bugs at https://github.com/shankar1729/jdftx/issues

Initialization completed successfully at t[s]:    258.80


Computing DFT-D3 correction:
# coordination-number Ag 8.415 9.200 9.175 6.890 4.631 9.175 9.200 8.415 4.631 6.890
# diagonal-C6 Ag 268.61 268.61 268.61 268.61 268.61 268.61 268.61 268.61 268.61 268.61
EvdW_6 =   -0.055088
EvdW_8 =   -0.079170
Fluid solver invoked on fresh (random / LCAO) wavefunctions
Running a vacuum solve first:

-------- Initial electronic minimization -----------
	FillingsUpdate:  mu: +0.113531901  nElectrons: 190.000000  magneticMoment: [ Abs: 0.00054  Tot: -0.00003 ]
ElecMinimize: Iter:   0  G: -1443.466351150424089  |grad|_K:  2.118e-05  alpha:  1.000e+00
	FillingsUpdate:  mu: +0.120378029  nElectrons: 190.000000  magneticMoment: [ Abs: 0.00041  Tot: -0.00003 ]
	SubspaceRotationAdjust: set factor to 1
ElecMinimize: Iter:   1  G: -1443.507745614000441  |grad|_K:  1.486e-05  alpha:  4.446e-01  linmin:  3.936e-05  t[s]:    304.36
	FillingsUpdate:  mu: +0.110603885  nElectrons: 190.000000  magneticMoment: [ Abs: 0.00032  Tot: -0.00002 ]
	SubspaceRotationAdjust: set factor to 0.897
ElecMinimize: Iter:   2  G: -1443.520495908982639  |grad|_K:  7.277e-06  alpha:  2.770e-01  linmin: -2.699e-05  t[s]:    332.33
	FillingsUpdate:  mu: +0.123832144  nElectrons: 190.000000  magneticMoment: [ Abs: 0.00024  Tot: -0.00002 ]
	SubspaceRotationAdjust: set factor to 0.676
ElecMinimize: Iter:   3  G: -1443.524025349714066  |grad|_K:  5.797e-06  alpha:  3.199e-01  linmin: -3.892e-05  t[s]:    360.31
	FillingsUpdate:  mu: +0.114865136  nElectrons: 190.000000  magneticMoment: [ Abs: 0.00019  Tot: -0.00002 ]
	SubspaceRotationAdjust: set factor to 0.498
ElecMinimize: Iter:   4  G: -1443.525493308842215  |grad|_K:  3.482e-06  alpha:  2.082e-01  linmin: -9.100e-06  t[s]:    388.31
	FillingsUpdate:  mu: +0.113893726  nElectrons: 190.000000  magneticMoment: [ Abs: 0.00015  Tot: -0.00002 ]
	SubspaceRotationAdjust: set factor to 0.37
ElecMinimize: Iter:   5  G: -1443.526082102245027  |grad|_K:  3.387e-06  alpha:  2.333e-01  linmin:  2.067e-05  t[s]:    416.20
	FillingsUpdate:  mu: +0.116619097  nElectrons: 190.000000  magneticMoment: [ Abs: 0.00012  Tot: -0.00002 ]
	SubspaceRotationAdjust: set factor to 0.43
ElecMinimize: Iter:   6  G: -1443.526587761785322  |grad|_K:  1.815e-06  alpha:  2.121e-01  linmin: -2.053e-06  t[s]:    444.26
	FillingsUpdate:  mu: +0.118842914  nElectrons: 190.000000  magneticMoment: [ Abs: 0.00009  Tot: -0.00001 ]
	SubspaceRotationAdjust: set factor to 0.403
ElecMinimize: Iter:   7  G: -1443.526819478517382  |grad|_K:  1.487e-06  alpha:  3.378e-01  linmin: -2.697e-06  t[s]:    472.98
	FillingsUpdate:  mu: +0.118582624  nElectrons: 190.000000  magneticMoment: [ Abs: 0.00008  Tot: -0.00001 ]
	SubspaceRotationAdjust: set factor to 0.291
ElecMinimize: Iter:   8  G: -1443.526905859683211  |grad|_K:  9.843e-07  alpha:  1.876e-01  linmin: -8.218e-06  t[s]:    500.90
	FillingsUpdate:  mu: +0.117341479  nElectrons: 190.000000  magneticMoment: [ Abs: 0.00006  Tot: -0.00001 ]
	SubspaceRotationAdjust: set factor to 0.336
ElecMinimize: Iter:   9  G: -1443.526972447120443  |grad|_K:  7.116e-07  alpha:  3.308e-01  linmin:  4.108e-05  t[s]:    528.93
	FillingsUpdate:  mu: +0.117833703  nElectrons: 190.000000  magneticMoment: [ Abs: 0.00005  Tot: -0.00001 ]
	SubspaceRotationAdjust: set factor to 0.317
ElecMinimize: Iter:  10  G: -1443.527006562955421  |grad|_K:  5.714e-07  alpha:  3.252e-01  linmin:  6.865e-06  t[s]:    556.87
	FillingsUpdate:  mu: +0.118589922  nElectrons: 190.000000  magneticMoment: [ Abs: 0.00004  Tot: -0.00001 ]
	SubspaceRotationAdjust: set factor to 0.278
ElecMinimize: Iter:  11  G: -1443.527024481693843  |grad|_K:  3.826e-07  alpha:  2.638e-01  linmin:  1.060e-06  t[s]:    584.77
	FillingsUpdate:  mu: +0.118647915  nElectrons: 190.000000  magneticMoment: [ Abs: 0.00003  Tot: -0.00001 ]
	SubspaceRotationAdjust: set factor to 0.351
ElecMinimize: Iter:  12  G: -1443.527035593079745  |grad|_K:  2.881e-07  alpha:  3.653e-01  linmin:  1.357e-05  t[s]:    612.95
	FillingsUpdate:  mu: +0.118453462  nElectrons: 190.000000  magneticMoment: [ Abs: 0.00003  Tot: -0.00001 ]
	SubspaceRotationAdjust: set factor to 0.294
ElecMinimize: Iter:  13  G: -1443.527041182700941  |grad|_K:  2.322e-07  alpha:  3.245e-01  linmin:  3.977e-06  t[s]:    641.07
	FillingsUpdate:  mu: +0.118448682  nElectrons: 190.000000  magneticMoment: [ Abs: 0.00002  Tot: -0.00001 ]
	SubspaceRotationAdjust: set factor to 0.298
ElecMinimize: Iter:  14  G: -1443.527044616071407  |grad|_K:  1.593e-07  alpha:  3.062e-01  linmin:  3.435e-06  t[s]:    669.05
	FillingsUpdate:  mu: +0.118627807  nElectrons: 190.000000  magneticMoment: [ Abs: 0.00002  Tot: -0.00000 ]
	SubspaceRotationAdjust: set factor to 0.34
ElecMinimize: Iter:  15  G: -1443.527046725292394  |grad|_K:  1.221e-07  alpha:  4.004e-01  linmin:  4.687e-06  t[s]:    697.00
	FillingsUpdate:  mu: +0.118655153  nElectrons: 190.000000  magneticMoment: [ Abs: 0.00001  Tot: -0.00000 ]
	SubspaceRotationAdjust: set factor to 0.302
ElecMinimize: Iter:  16  G: -1443.527047813884565  |grad|_K:  9.880e-08  alpha:  3.515e-01  linmin:  1.949e-06  t[s]:    725.10
	FillingsUpdate:  mu: +0.118595348  nElectrons: 190.000000  magneticMoment: [ Abs: 0.00001  Tot: -0.00000 ]
	SubspaceRotationAdjust: set factor to 0.269
ElecMinimize: Iter:  17  G: -1443.527048390607661  |grad|_K:  6.516e-08  alpha:  2.841e-01  linmin:  9.058e-07  t[s]:    753.42
	FillingsUpdate:  mu: +0.118575762  nElectrons: 190.000000  magneticMoment: [ Abs: 0.00001  Tot: -0.00000 ]
	SubspaceRotationAdjust: set factor to 0.318
ElecMinimize: Iter:  18  G: -1443.527048742524812  |grad|_K:  4.732e-08  alpha:  3.990e-01  linmin:  2.459e-06  t[s]:    781.65
	FillingsUpdate:  mu: +0.118618977  nElectrons: 190.000000  magneticMoment: [ Abs: 0.00001  Tot: -0.00000 ]
	SubspaceRotationAdjust: set factor to 0.288
ElecMinimize: Iter:  19  G: -1443.527048912774035  |grad|_K:  3.677e-08  alpha:  3.661e-01  linmin: -3.162e-08  t[s]:    809.55
	FillingsUpdate:  mu: +0.118632853  nElectrons: 190.000000  magneticMoment: [ Abs: 0.00000  Tot: -0.00000 ]
	SubspaceRotationAdjust: set factor to 0.256
ElecMinimize: Iter:  20  G: -1443.527049001452497  |grad|_K:  2.671e-08  alpha:  3.154e-01  linmin:  4.102e-07  t[s]:    837.51
	FillingsUpdate:  mu: +0.118610972  nElectrons: 190.000000  magneticMoment: [ Abs: 0.00000  Tot: -0.00000 ]
	SubspaceRotationAdjust: set factor to 0.292
ElecMinimize: Iter:  21  G: -1443.527049059711317  |grad|_K:  1.886e-08  alpha:  3.932e-01  linmin:  1.239e-06  t[s]:    865.50
ElecMinimize: Converged (|Delta G|<1.000000e-07 for 2 iters).
Setting wave functions to eigenvectors of Hamiltonian
Converging empty states (this may take a while): |deigs|: 1.118e-02
Vacuum energy after initial minimize, F = -1443.527049059711317

Shifting auxilliary hamiltonian by -0.289911 to set nElectrons=190.000000

-------- Electronic minimization -----------
	Linear fluid (dielectric constant: 78.4, screening length: 8.12261 Bohr) occupying 0.495336 of unit cell:	Completed after 19 iterations at t[s]:    956.70
	FillingsUpdate:  mu: -0.171300000  nElectrons: 190.000000  magneticMoment: [ Abs: 0.00000  Tot: -0.00000 ]
ElecMinimize: Iter:   0  G: -1443.527558223900996  |grad|_K:  6.144e-06  alpha:  1.000e+00
	Linear fluid (dielectric constant: 78.4, screening length: 8.12261 Bohr) occupying 0.499267 of unit cell:	Completed after 18 iterations at t[s]:    980.81
	Linear fluid (dielectric constant: 78.4, screening length: 8.12261 Bohr) occupying 0.496066 of unit cell:	Completed after 17 iterations at t[s]:    989.58
	FillingsUpdate:  mu: -0.171300000  nElectrons: 189.921584  magneticMoment: [ Abs: 0.00000  Tot: -0.00000 ]
	SubspaceRotationAdjust: set factor to 0.193
ElecMinimize: Iter:   1  G: -1443.528430498298349  |grad|_K:  3.764e-06  alpha:  1.308e-01  linmin:  7.317e-03  t[s]:   1001.24
	Linear fluid (dielectric constant: 78.4, screening length: 8.12261 Bohr) occupying 0.496859 of unit cell:	Completed after 12 iterations at t[s]:   1011.61
ElecMinimize: 	Predicted alpha/alphaT>3.000000, increasing alphaT to 3.924772e-01.
	Linear fluid (dielectric constant: 78.4, screening length: 8.12261 Bohr) occupying 0.498370 of unit cell:	Completed after 14 iterations at t[s]:   1020.21
	Linear fluid (dielectric constant: 78.4, screening length: 8.12261 Bohr) occupying 0.499107 of unit cell:	Completed after 13 iterations at t[s]:   1028.74
	FillingsUpdate:  mu: -0.171300000  nElectrons: 189.867901  magneticMoment: [ Abs: 0.00000  Tot: -0.00000 ]
	SubspaceRotationAdjust: set factor to 0.154
ElecMinimize: Iter:   2  G: -1443.529773689981084  |grad|_K:  2.796e-06  alpha:  5.275e-01  linmin:  8.409e-04  t[s]:   1040.42
	Linear fluid (dielectric constant: 78.4, screening length: 8.12261 Bohr) occupying 0.501611 of unit cell:	Completed after 14 iterations at t[s]:   1050.88
	Linear fluid (dielectric constant: 78.4, screening length: 8.12261 Bohr) occupying 0.501309 of unit cell:	Completed after 12 iterations at t[s]:   1059.86
	FillingsUpdate:  mu: -0.171300000  nElectrons: 189.808810  magneticMoment: [ Abs: 0.00000  Tot: -0.00000 ]
	SubspaceRotationAdjust: set factor to 0.125
ElecMinimize: Iter:   3  G: -1443.530477786296160  |grad|_K:  2.061e-06  alpha:  4.575e-01  linmin: -2.035e-03  t[s]:   1071.47
	Linear fluid (dielectric constant: 78.4, screening length: 8.12261 Bohr) occupying 0.503043 of unit cell:	Completed after 14 iterations at t[s]:   1081.88
	Linear fluid (dielectric constant: 78.4, screening length: 8.12261 Bohr) occupying 0.503120 of unit cell:	Completed after 10 iterations at t[s]:   1090.19
	FillingsUpdate:  mu: -0.171300000  nElectrons: 189.813923  magneticMoment: [ Abs: 0.00000  Tot: -0.00000 ]
	SubspaceRotationAdjust: set factor to 0.102
ElecMinimize: Iter:   4  G: -1443.530928903869608  |grad|_K:  1.552e-06  alpha:  4.785e-01  linmin:  1.762e-04  t[s]:   1101.79
	Linear fluid (dielectric constant: 78.4, screening length: 8.12261 Bohr) occupying 0.504483 of unit cell:	Completed after 8 iterations at t[s]:   1111.83
	Linear fluid (dielectric constant: 78.4, screening length: 8.12261 Bohr) occupying 0.504556 of unit cell:	Completed after 4 iterations at t[s]:   1119.74
	FillingsUpdate:  mu: -0.171300000  nElectrons: 189.803300  magneticMoment: [ Abs: 0.00000  Tot: -0.00000 ]
	SubspaceRotationAdjust: set factor to 0.132
ElecMinimize: Iter:   5  G: -1443.531180104762143  |grad|_K:  1.248e-06  alpha:  5.048e-01  linmin: -1.608e-04  t[s]:   1131.33
	Linear fluid (dielectric constant: 78.4, screening length: 8.12261 Bohr) occupying 0.505666 of unit cell:	Completed after 14 iterations at t[s]:   1141.95
	Linear fluid (dielectric constant: 78.4, screening length: 8.12261 Bohr) occupying 0.505606 of unit cell:	Completed after 8 iterations at t[s]:   1150.18
	FillingsUpdate:  mu: -0.171300000  nElectrons: 189.791464  magneticMoment: [ Abs: 0.00000  Tot: -0.00000 ]
	SubspaceRotationAdjust: set factor to 0.15
ElecMinimize: Iter:   6  G: -1443.531335916343778  |grad|_K:  9.350e-07  alpha:  4.768e-01  linmin: -1.246e-04  t[s]:   1161.82
	Linear fluid (dielectric constant: 78.4, screening length: 8.12261 Bohr) occupying 0.506347 of unit cell:	Completed after 12 iterations at t[s]:   1172.25
	Linear fluid (dielectric constant: 78.4, screening length: 8.12261 Bohr) occupying 0.506533 of unit cell:	Completed after 10 iterations at t[s]:   1180.55
	FillingsUpdate:  mu: -0.171300000  nElectrons: 189.782595  magneticMoment: [ Abs: 0.00000  Tot: -0.00000 ]
	SubspaceRotationAdjust: set factor to 0.175
ElecMinimize: Iter:   7  G: -1443.531445925676280  |grad|_K:  8.066e-07  alpha:  6.002e-01  linmin: -6.415e-05  t[s]:   1192.38
	Linear fluid (dielectric constant: 78.4, screening length: 8.12261 Bohr) occupying 0.507324 of unit cell:	Completed after 11 iterations at t[s]:   1202.67
	Linear fluid (dielectric constant: 78.4, screening length: 8.12261 Bohr) occupying 0.507249 of unit cell:	Completed after 3 iterations at t[s]:   1210.57
	FillingsUpdate:  mu: -0.171300000  nElectrons: 189.774529  magneticMoment: [ Abs: 0.00000  Tot: -0.00000 ]
	SubspaceRotationAdjust: set factor to 0.202
ElecMinimize: Iter:   8  G: -1443.531519441620731  |grad|_K:  6.884e-07  alpha:  5.411e-01  linmin: -2.452e-05  t[s]:   1222.20
	Linear fluid (dielectric constant: 78.4, screening length: 8.12261 Bohr) occupying 0.507841 of unit cell:	Completed after 12 iterations at t[s]:   1232.54
	Linear fluid (dielectric constant: 78.4, screening length: 8.12261 Bohr) occupying 0.507836 of unit cell:	Completed after 2 iterations at t[s]:   1240.32
	FillingsUpdate:  mu: -0.171300000  nElectrons: 189.766537  magneticMoment: [ Abs: 0.00000  Tot: -0.00000 ]
	SubspaceRotationAdjust: set factor to 0.225
ElecMinimize: Iter:   9  G: -1443.531572352884496  |grad|_K:  5.552e-07  alpha:  5.357e-01  linmin:  2.502e-05  t[s]:   1252.00
	Linear fluid (dielectric constant: 78.4, screening length: 8.12261 Bohr) occupying 0.508304 of unit cell:	Completed after 13 iterations at t[s]:   1262.54
	Linear fluid (dielectric constant: 78.4, screening length: 8.12261 Bohr) occupying 0.508229 of unit cell:	Completed after 9 iterations at t[s]:   1270.75
	FillingsUpdate:  mu: -0.171300000  nElectrons: 189.766408  magneticMoment: [ Abs: 0.00000  Tot: -0.00000 ]
	SubspaceRotationAdjust: set factor to 0.196
ElecMinimize: Iter:  10  G: -1443.531600994188011  |grad|_K:  4.396e-07  alpha:  4.483e-01  linmin: -5.428e-05  t[s]:   1282.38
	Linear fluid (dielectric constant: 78.4, screening length: 8.12261 Bohr) occupying 0.508510 of unit cell:	Completed after 13 iterations at t[s]:   1292.81
	Linear fluid (dielectric constant: 78.4, screening length: 8.12261 Bohr) occupying 0.508476 of unit cell:	Completed after 10 iterations at t[s]:   1301.11
	FillingsUpdate:  mu: -0.171300000  nElectrons: 189.759719  magneticMoment: [ Abs: 0.00000  Tot: -0.00000 ]
	SubspaceRotationAdjust: set factor to 0.125
ElecMinimize: Iter:  11  G: -1443.531616888507415  |grad|_K:  3.051e-07  alpha:  3.927e-01  linmin:  1.951e-04  t[s]:   1312.73
	Linear fluid (dielectric constant: 78.4, screening length: 8.12261 Bohr) occupying 0.508637 of unit cell:	Completed after 11 iterations at t[s]:   1323.01
	Linear fluid (dielectric constant: 78.4, screening length: 8.12261 Bohr) occupying 0.508647 of unit cell:	Completed after 6 iterations at t[s]:   1331.12
	FillingsUpdate:  mu: -0.171300000  nElectrons: 189.760582  magneticMoment: [ Abs: 0.00000  Tot: -0.00000 ]
	SubspaceRotationAdjust: set factor to 0.0877
ElecMinimize: Iter:  12  G: -1443.531624898152813  |grad|_K:  1.897e-07  alpha:  4.172e-01  linmin: -6.773e-05  t[s]:   1342.79
	Linear fluid (dielectric constant: 78.4, screening length: 8.12261 Bohr) occupying 0.508723 of unit cell:	Completed after 10 iterations at t[s]:   1353.92
	Linear fluid (dielectric constant: 78.4, screening length: 8.12261 Bohr) occupying 0.508732 of unit cell:	Completed after 2 iterations at t[s]:   1361.85
	FillingsUpdate:  mu: -0.171300000  nElectrons: 189.759181  magneticMoment: [ Abs: 0.00000  Tot: -0.00000 ]
	SubspaceRotationAdjust: set factor to 0.103
ElecMinimize: Iter:  13  G: -1443.531628395317057  |grad|_K:  1.425e-07  alpha:  4.655e-01  linmin: -1.339e-05  t[s]:   1373.59
	Linear fluid (dielectric constant: 78.4, screening length: 8.12261 Bohr) occupying 0.508786 of unit cell:	Completed after 9 iterations at t[s]:   1383.84
	Linear fluid (dielectric constant: 78.4, screening length: 8.12261 Bohr) occupying 0.508774 of unit cell:	Completed after 7 iterations at t[s]:   1392.00
	FillingsUpdate:  mu: -0.171300000  nElectrons: 189.758251  magneticMoment: [ Abs: 0.00000  Tot: -0.00000 ]
	SubspaceRotationAdjust: set factor to 0.109
ElecMinimize: Iter:  14  G: -1443.531629920952582  |grad|_K:  9.100e-08  alpha:  3.617e-01  linmin: -5.289e-05  t[s]:   1403.60
	Linear fluid (dielectric constant: 78.4, screening length: 8.12261 Bohr) occupying 0.508798 of unit cell:	Completed after 9 iterations at t[s]:   1413.67
	Linear fluid (dielectric constant: 78.4, screening length: 8.12261 Bohr) occupying 0.508809 of unit cell:	Completed after 7 iterations at t[s]:   1421.78
	FillingsUpdate:  mu: -0.171300000  nElectrons: 189.758178  magneticMoment: [ Abs: 0.00000  Tot: -0.00000 ]
	SubspaceRotationAdjust: set factor to 0.112
ElecMinimize: Iter:  15  G: -1443.531630847663109  |grad|_K:  6.465e-08  alpha:  5.368e-01  linmin: -1.987e-05  t[s]:   1433.45
	Linear fluid (dielectric constant: 78.4, screening length: 8.12261 Bohr) occupying 0.508835 of unit cell:	Completed after 8 iterations at t[s]:   1443.60
	Linear fluid (dielectric constant: 78.4, screening length: 8.12261 Bohr) occupying 0.508836 of unit cell:	Completed after 1 iterations at t[s]:   1451.44
	FillingsUpdate:  mu: -0.171300000  nElectrons: 189.757563  magneticMoment: [ Abs: 0.00000  Tot: -0.00000 ]
	SubspaceRotationAdjust: set factor to 0.126
ElecMinimize: Iter:  16  G: -1443.531631334524945  |grad|_K:  5.732e-08  alpha:  5.599e-01  linmin: -3.862e-05  t[s]:   1463.06
	Linear fluid (dielectric constant: 78.4, screening length: 8.12261 Bohr) occupying 0.508866 of unit cell:	Completed after 3 iterations at t[s]:   1472.89
	Linear fluid (dielectric constant: 78.4, screening length: 8.12261 Bohr) occupying 0.508862 of unit cell:	Completed after 2 iterations at t[s]:   1480.74
	FillingsUpdate:  mu: -0.171300000  nElectrons: 189.757180  magneticMoment: [ Abs: 0.00000  Tot: -0.00000 ]
	SubspaceRotationAdjust: set factor to 0.152
ElecMinimize: Iter:  17  G: -1443.531631671234663  |grad|_K:  4.794e-08  alpha:  4.923e-01  linmin: -1.562e-05  t[s]:   1492.42
	Linear fluid (dielectric constant: 78.4, screening length: 8.12261 Bohr) occupying 0.508889 of unit cell:	Completed after 7 iterations at t[s]:   1502.45
	Linear fluid (dielectric constant: 78.4, screening length: 8.12261 Bohr) occupying 0.508896 of unit cell:	Completed after 2 iterations at t[s]:   1510.46
	FillingsUpdate:  mu: -0.171300000  nElectrons: 189.757064  magneticMoment: [ Abs: 0.00000  Tot: -0.00000 ]
	SubspaceRotationAdjust: set factor to 0.158
ElecMinimize: Iter:  18  G: -1443.531631966130590  |grad|_K:  4.286e-08  alpha:  6.183e-01  linmin:  4.227e-05  t[s]:   1522.22
	Linear fluid (dielectric constant: 78.4, screening length: 8.12261 Bohr) occupying 0.508931 of unit cell:	Completed after 7 iterations at t[s]:   1532.34
	Linear fluid (dielectric constant: 78.4, screening length: 8.12261 Bohr) occupying 0.508926 of unit cell:	Completed after 2 iterations at t[s]:   1540.29
	FillingsUpdate:  mu: -0.171300000  nElectrons: 189.756551  magneticMoment: [ Abs: 0.00000  Tot: -0.00000 ]
	SubspaceRotationAdjust: set factor to 0.161
ElecMinimize: Iter:  19  G: -1443.531632166878353  |grad|_K:  3.654e-08  alpha:  5.268e-01  linmin:  1.056e-04  t[s]:   1551.91
	Linear fluid (dielectric constant: 78.4, screening length: 8.12261 Bohr) occupying 0.508955 of unit cell:	Completed after 3 iterations at t[s]:   1561.79
	Linear fluid (dielectric constant: 78.4, screening length: 8.12261 Bohr) occupying 0.508951 of unit cell:	Completed after 2 iterations at t[s]:   1569.66
	FillingsUpdate:  mu: -0.171300000  nElectrons: 189.756397  magneticMoment: [ Abs: 0.00000  Tot: -0.00000 ]
	SubspaceRotationAdjust: set factor to 0.181
ElecMinimize: Iter:  20  G: -1443.531632288645824  |grad|_K:  2.782e-08  alpha:  4.451e-01  linmin: -2.813e-05  t[s]:   1581.34
	Linear fluid (dielectric constant: 78.4, screening length: 8.12261 Bohr) occupying 0.508969 of unit cell:	Completed after 5 iterations at t[s]:   1591.18
	Linear fluid (dielectric constant: 78.4, screening length: 8.12261 Bohr) occupying 0.508969 of unit cell:	Completed after 0 iterations at t[s]:   1598.92
	FillingsUpdate:  mu: -0.171300000  nElectrons: 189.756363  magneticMoment: [ Abs: 0.00000  Tot: -0.00000 ]
	SubspaceRotationAdjust: set factor to 0.186
ElecMinimize: Iter:  21  G: -1443.531632361057291  |grad|_K:  2.008e-08  alpha:  4.483e-01  linmin: -1.706e-04  t[s]:   1610.58
	Linear fluid (dielectric constant: 78.4, screening length: 8.12261 Bohr) occupying 0.508982 of unit cell:	Completed after 7 iterations at t[s]:   1620.73
	Linear fluid (dielectric constant: 78.4, screening length: 8.12261 Bohr) occupying 0.508981 of unit cell:	Completed after 0 iterations at t[s]:   1628.49
	FillingsUpdate:  mu: -0.171300000  nElectrons: 189.756118  magneticMoment: [ Abs: 0.00000  Tot: -0.00000 ]
	SubspaceRotationAdjust: set factor to 0.149
ElecMinimize: Iter:  22  G: -1443.531632396603754  |grad|_K:  1.598e-08  alpha:  4.180e-01  linmin:  1.472e-04  t[s]:   1640.20
ElecMinimize: Converged (|Delta G|<1.000000e-07 for 2 iters).
Setting wave functions to eigenvectors of Hamiltonian
Converging empty states (this may take a while): |deigs|: 4.485e-04
Single-point solvation energy estimate, DeltaG = -0.004583336892438

Computing DFT-D3 correction:
# coordination-number Ag 8.415 9.200 9.175 6.890 4.631 9.175 9.200 8.415 4.631 6.890
# diagonal-C6 Ag 268.61 268.61 268.61 268.61 268.61 268.61 268.61 268.61 268.61 268.61
EvdW_6 =   -0.055088
EvdW_8 =   -0.079170

# Ionic positions in cartesian coordinates:
ion Ag   3.832834000000000   1.714096000000000  12.855717000000002 1
ion Ag  -0.000000000000000   3.428191000000000   9.427508000000000 1
ion Ag   3.832834000000001   5.142287000000000   5.999352000000000 1
ion Ag  -0.000001000000000   6.856383000000000   2.571143000000000 1
ion Ag   0.000000000000000   0.000000000000000  16.283925000000000 1
ion Ag   3.832833000000001   6.856383000000000  11.141638000000000 1
ion Ag   3.832834000000000   0.000000000000000   7.713430000000000 1
ion Ag   0.000000000000000   1.714096000000000   4.285222000000000 1
ion Ag   3.832834000000001   3.428191000000000   0.857065000000000 1
ion Ag  -0.000001000000000   5.142287000000000  14.569794999999997 1

# Forces in Cartesian coordinates:
force Ag   0.000018111624107   0.001041400784702   0.006837419789890 1
force Ag  -0.000062682545287  -0.000444558336541  -0.000828288917209 1
force Ag  -0.000073879070526   0.000166971315016   0.000047348789780 1
force Ag   0.000098956037125   0.000932556155767  -0.004207343359366 1
force Ag   0.000098375621458  -0.000096054769366  -0.001998186672567 1
force Ag   0.000134444585545  -0.000162873535762  -0.000047890558903 1
force Ag   0.000036412661016   0.000441394089388   0.000829026399711 1
force Ag  -0.000097748400215  -0.001046171003510  -0.006840215526112 1
force Ag  -0.000127123294487   0.000089668212275   0.001983063610743 1
force Ag  -0.000033831875683  -0.000927319033641   0.004213884718571 1

# Energy components:
   A_diel =        0.0449597777928423
   Eewald =     5555.1132178514899351
       EH =     6883.0842235388581685
     Eloc =   -14146.2859350560138409
      Enl =       39.4894357505636293
     EvdW =       -0.1342582310330185
      Exc =     -144.8333252024639535
 Exc_core =        2.0817052734592942
       KE =      335.3896882119648808
  MuShift =        0.0136088625049903
-------------------------------------
     Etot =    -1476.0366792228787745
       TS =        0.0001761621025203
-------------------------------------
        F =    -1476.0368553849812088
      muN =      -32.5052229883774899
-------------------------------------
        G =    -1443.5316323966037544


Dumping 'jdft.fillings' ... done
Dumping 'jdft.wfns' ... done
Dumping 'jdft.fluidState' ... done
Dumping 'jdft.ionpos' ... done
Dumping 'jdft.lattice' ... done
Dumping 'jdft.eigenvals' ... done
Dumping 'jdft.eigStats' ... 
	eMin: -3.555469 at state 0 ( [ +0.000000 +0.000000 +0.000000 ] spin 1 )
	HOMO: -0.172754 at state 36 ( [ -0.444444 +0.142857 +0.000000 ] spin 1 )
	mu  : -0.171300
	LUMO: -0.170318 at state 116 ( [ -0.222222 -0.428571 +0.000000 ] spin -1 )
	eMax: +0.144291 at state 85 ( [ +0.333333 +0.142857 +0.000000 ] spin -1 )
	HOMO-LUMO gap: +0.002437
	Optical gap  : +0.002549 at state 116 ( [ -0.222222 -0.428571 +0.000000 ] spin -1 )
Dumping 'jdft.Ecomponents' ... done
IonicMinimize: Iter:   0  G: -1443.531632396603754  |grad|_K:  2.181e-03  t[s]:   1714.46

#--- Lowdin population analysis ---
# oxidation-state Ag -0.059 -0.001 -0.033 -0.001 +0.246 -0.033 -0.001 -0.059 +0.246 -0.001
# magnetic-moments Ag +0.000 -0.000 -0.000 -0.000 -0.000 -0.000 +0.000 +0.000 -0.000 +0.000


Computing DFT-D3 correction:
# coordination-number Ag 8.410 9.189 9.169 6.889 4.642 9.169 9.189 8.410 4.642 6.889
# diagonal-C6 Ag 268.61 268.61 268.61 268.61 268.61 268.61 268.61 268.61 268.61 268.61
EvdW_6 =   -0.055073
EvdW_8 =   -0.079139
Shifting auxilliary hamiltonian by 0.000044 to set nElectrons=189.756118

-------- Electronic minimization -----------
	Linear fluid (dielectric constant: 78.4, screening length: 8.12261 Bohr) occupying 0.509071 of unit cell:	Completed after 12 iterations at t[s]:   1726.00
	FillingsUpdate:  mu: -0.171300000  nElectrons: 189.756118  magneticMoment: [ Abs: 0.00000  Tot: -0.00000 ]
ElecMinimize: Iter:   0  G: -1443.531748696454088  |grad|_K:  1.975e-07  alpha:  1.000e+00
	Linear fluid (dielectric constant: 78.4, screening length: 8.12261 Bohr) occupying 0.509063 of unit cell:	Completed after 12 iterations at t[s]:   1749.80
	Linear fluid (dielectric constant: 78.4, screening length: 8.12261 Bohr) occupying 0.509067 of unit cell:	Completed after 11 iterations at t[s]:   1758.29
	FillingsUpdate:  mu: -0.171300000  nElectrons: 189.754835  magneticMoment: [ Abs: 0.00000  Tot: -0.00000 ]
	SubspaceRotationAdjust: set factor to 0.121
ElecMinimize: Iter:   1  G: -1443.531752790052451  |grad|_K:  1.830e-07  alpha:  5.040e-01  linmin: -3.853e-06  t[s]:   1769.91
	Linear fluid (dielectric constant: 78.4, screening length: 8.12261 Bohr) occupying 0.509068 of unit cell:	Completed after 11 iterations at t[s]:   1780.27
	Linear fluid (dielectric constant: 78.4, screening length: 8.12261 Bohr) occupying 0.509068 of unit cell:	Completed after 10 iterations at t[s]:   1788.72
	FillingsUpdate:  mu: -0.171300000  nElectrons: 189.756619  magneticMoment: [ Abs: 0.00000  Tot: -0.00000 ]
	SubspaceRotationAdjust: set factor to 0.129
ElecMinimize: Iter:   2  G: -1443.531757347688426  |grad|_K:  1.839e-07  alpha:  6.541e-01  linmin: -2.021e-05  t[s]:   1800.35
	Linear fluid (dielectric constant: 78.4, screening length: 8.12261 Bohr) occupying 0.509063 of unit cell:	Completed after 9 iterations at t[s]:   1810.46
	Linear fluid (dielectric constant: 78.4, screening length: 8.12261 Bohr) occupying 0.509061 of unit cell:	Completed after 3 iterations at t[s]:   1818.41
	FillingsUpdate:  mu: -0.171300000  nElectrons: 189.756578  magneticMoment: [ Abs: 0.00000  Tot: -0.00000 ]
	SubspaceRotationAdjust: set factor to 0.149
ElecMinimize: Iter:   3  G: -1443.531763395207008  |grad|_K:  1.839e-07  alpha:  8.587e-01  linmin: -8.980e-06  t[s]:   1830.05
	Linear fluid (dielectric constant: 78.4, screening length: 8.12261 Bohr) occupying 0.509047 of unit cell:	Completed after 10 iterations at t[s]:   1840.14
	Linear fluid (dielectric constant: 78.4, screening length: 8.12261 Bohr) occupying 0.509054 of unit cell:	Completed after 10 iterations at t[s]:   1848.50
	FillingsUpdate:  mu: -0.171300000  nElectrons: 189.756034  magneticMoment: [ Abs: 0.00000  Tot: -0.00000 ]
	SubspaceRotationAdjust: set factor to 0.152
ElecMinimize: Iter:   4  G: -1443.531766587049788  |grad|_K:  1.488e-07  alpha:  4.552e-01  linmin: -3.146e-06  t[s]:   1860.05
	Linear fluid (dielectric constant: 78.4, screening length: 8.12261 Bohr) occupying 0.509048 of unit cell:	Completed after 10 iterations at t[s]:   1870.22
	Linear fluid (dielectric constant: 78.4, screening length: 8.12261 Bohr) occupying 0.509048 of unit cell:	Completed after 2 iterations at t[s]:   1878.08
	FillingsUpdate:  mu: -0.171300000  nElectrons: 189.756469  magneticMoment: [ Abs: 0.00000  Tot: -0.00000 ]
	SubspaceRotationAdjust: set factor to 0.149
ElecMinimize: Iter:   5  G: -1443.531768481086374  |grad|_K:  9.020e-08  alpha:  4.107e-01  linmin:  4.579e-05  t[s]:   1889.78
	Linear fluid (dielectric constant: 78.4, screening length: 8.12261 Bohr) occupying 0.509043 of unit cell:	Completed after 6 iterations at t[s]:   1899.83
	Linear fluid (dielectric constant: 78.4, screening length: 8.12261 Bohr) occupying 0.509042 of unit cell:	Completed after 2 iterations at t[s]:   1907.67
	FillingsUpdate:  mu: -0.171300000  nElectrons: 189.756307  magneticMoment: [ Abs: 0.00000  Tot: -0.00000 ]
	SubspaceRotationAdjust: set factor to 0.157
ElecMinimize: Iter:   6  G: -1443.531769301049280  |grad|_K:  5.580e-08  alpha:  4.853e-01  linmin: -9.751e-05  t[s]:   1919.33
	Linear fluid (dielectric constant: 78.4, screening length: 8.12261 Bohr) occupying 0.509037 of unit cell:	Completed after 5 iterations at t[s]:   1929.22
	Linear fluid (dielectric constant: 78.4, screening length: 8.12261 Bohr) occupying 0.509038 of unit cell:	Completed after 0 iterations at t[s]:   1937.01
	FillingsUpdate:  mu: -0.171300000  nElectrons: 189.756180  magneticMoment: [ Abs: 0.00000  Tot: -0.00000 ]
	SubspaceRotationAdjust: set factor to 0.157
ElecMinimize: Iter:   7  G: -1443.531769572782196  |grad|_K:  3.581e-08  alpha:  4.182e-01  linmin:  1.234e-04  t[s]:   1948.62
	Linear fluid (dielectric constant: 78.4, screening length: 8.12261 Bohr) occupying 0.509035 of unit cell:	Completed after 2 iterations at t[s]:   1958.59
	Linear fluid (dielectric constant: 78.4, screening length: 8.12261 Bohr) occupying 0.509035 of unit cell:	Completed after 0 iterations at t[s]:   1966.33
	FillingsUpdate:  mu: -0.171300000  nElectrons: 189.756306  magneticMoment: [ Abs: 0.00000  Tot: -0.00000 ]
	SubspaceRotationAdjust: set factor to 0.166
ElecMinimize: Iter:   8  G: -1443.531769683519997  |grad|_K:  2.140e-08  alpha:  4.165e-01  linmin: -4.113e-04  t[s]:   1978.22
	Linear fluid (dielectric constant: 78.4, screening length: 8.12261 Bohr) occupying 0.509033 of unit cell:	Completed after 2 iterations at t[s]:   1987.90
	Linear fluid (dielectric constant: 78.4, screening length: 8.12261 Bohr) occupying 0.509033 of unit cell:	Completed after 0 iterations at t[s]:   1995.56
	FillingsUpdate:  mu: -0.171300000  nElectrons: 189.756375  magneticMoment: [ Abs: 0.00000  Tot: -0.00000 ]
	SubspaceRotationAdjust: set factor to 0.176
ElecMinimize: Iter:   9  G: -1443.531769718677424  |grad|_K:  1.568e-08  alpha:  3.678e-01  linmin: -3.843e-04  t[s]:   2007.45
	Linear fluid (dielectric constant: 78.4, screening length: 8.12261 Bohr) occupying 0.509032 of unit cell:	Completed after 1 iterations at t[s]:   2017.16
	Linear fluid (dielectric constant: 78.4, screening length: 8.12261 Bohr) occupying 0.509032 of unit cell:	Completed after 0 iterations at t[s]:   2024.91
	FillingsUpdate:  mu: -0.171300000  nElectrons: 189.756370  magneticMoment: [ Abs: 0.00000  Tot: -0.00000 ]
	SubspaceRotationAdjust: set factor to 0.196
ElecMinimize: Iter:  10  G: -1443.531769734494446  |grad|_K:  9.654e-09  alpha:  3.107e-01  linmin: -1.392e-03  t[s]:   2036.58
ElecMinimize: Converged (|Delta G|<1.000000e-07 for 2 iters).
Setting wave functions to eigenvectors of Hamiltonian
Converging empty states (this may take a while): |deigs|: 1.436e-08

Computing DFT-D3 correction:
# coordination-number Ag 8.410 9.189 9.169 6.889 4.642 9.169 9.189 8.410 4.642 6.889
# diagonal-C6 Ag 268.61 268.61 268.61 268.61 268.61 268.61 268.61 268.61 268.61 268.61
EvdW_6 =   -0.055073
EvdW_8 =   -0.079139
IonicMinimize: 	Wolfe criterion not satisfied: alpha: 1  (E-E0)/|gdotd0|: -0.962095  gdotd/gdotd0: 0.938676 (taking cubic step)

Computing DFT-D3 correction:
# coordination-number Ag 8.400 9.168 9.155 6.886 4.663 9.155 9.168 8.399 4.663 6.886
# diagonal-C6 Ag 268.61 268.61 268.61 268.61 268.61 268.61 268.61 268.61 268.61 268.61
EvdW_6 =   -0.055042
EvdW_8 =   -0.079080
Shifting auxilliary hamiltonian by -0.000002 to set nElectrons=189.756370

-------- Electronic minimization -----------
	Linear fluid (dielectric constant: 78.4, screening length: 8.12261 Bohr) occupying 0.509134 of unit cell:	Completed after 12 iterations at t[s]:   2075.97
	FillingsUpdate:  mu: -0.171300000  nElectrons: 189.756370  magneticMoment: [ Abs: 0.00000  Tot: -0.00000 ]
ElecMinimize: Iter:   0  G: -1443.531941307304805  |grad|_K:  3.929e-07  alpha:  1.000e+00
	Linear fluid (dielectric constant: 78.4, screening length: 8.12261 Bohr) occupying 0.509124 of unit cell:	Completed after 11 iterations at t[s]:   2099.47
	Linear fluid (dielectric constant: 78.4, screening length: 8.12261 Bohr) occupying 0.509127 of unit cell:	Completed after 10 iterations at t[s]:   2107.75
	FillingsUpdate:  mu: -0.171300000  nElectrons: 189.757446  magneticMoment: [ Abs: 0.00000  Tot: -0.00000 ]
	SubspaceRotationAdjust: set factor to 0.274
ElecMinimize: Iter:   1  G: -1443.531964081886827  |grad|_K:  3.993e-07  alpha:  7.088e-01  linmin:  7.010e-06  t[s]:   2119.53
	Linear fluid (dielectric constant: 78.4, screening length: 8.12261 Bohr) occupying 0.509107 of unit cell:	Completed after 11 iterations at t[s]:   2129.82
	Linear fluid (dielectric constant: 78.4, screening length: 8.12261 Bohr) occupying 0.509109 of unit cell:	Completed after 7 iterations at t[s]:   2138.13
	FillingsUpdate:  mu: -0.171300000  nElectrons: 189.756024  magneticMoment: [ Abs: 0.00000  Tot: -0.00000 ]
	SubspaceRotationAdjust: set factor to 0.311
ElecMinimize: Iter:   2  G: -1443.531985178505010  |grad|_K:  4.789e-07  alpha:  6.359e-01  linmin:  2.755e-06  t[s]:   2149.91
	Linear fluid (dielectric constant: 78.4, screening length: 8.12261 Bohr) occupying 0.509086 of unit cell:	Completed after 12 iterations at t[s]:   2160.12
	Linear fluid (dielectric constant: 78.4, screening length: 8.12261 Bohr) occupying 0.509092 of unit cell:	Completed after 10 iterations at t[s]:   2168.48
	FillingsUpdate:  mu: -0.171300000  nElectrons: 189.758269  magneticMoment: [ Abs: 0.00000  Tot: -0.00000 ]
	SubspaceRotationAdjust: set factor to 0.302
ElecMinimize: Iter:   3  G: -1443.532007706127843  |grad|_K:  3.803e-07  alpha:  4.727e-01  linmin: -7.335e-06  t[s]:   2180.36
	Linear fluid (dielectric constant: 78.4, screening length: 8.12261 Bohr) occupying 0.509064 of unit cell:	Completed after 12 iterations at t[s]:   2190.58
	Linear fluid (dielectric constant: 78.4, screening length: 8.12261 Bohr) occupying 0.509074 of unit cell:	Completed after 11 iterations at t[s]:   2198.96
	FillingsUpdate:  mu: -0.171300000  nElectrons: 189.755511  magneticMoment: [ Abs: 0.00000  Tot: -0.00000 ]
	SubspaceRotationAdjust: set factor to 0.216
ElecMinimize: Iter:   4  G: -1443.532016575057469  |grad|_K:  2.985e-07  alpha:  2.943e-01  linmin:  2.282e-06  t[s]:   2210.67
	Linear fluid (dielectric constant: 78.4, screening length: 8.12261 Bohr) occupying 0.509072 of unit cell:	Completed after 11 iterations at t[s]:   2221.02
	Linear fluid (dielectric constant: 78.4, screening length: 8.12261 Bohr) occupying 0.509072 of unit cell:	Completed after 8 iterations at t[s]:   2229.34
	FillingsUpdate:  mu: -0.171300000  nElectrons: 189.757601  magneticMoment: [ Abs: 0.00000  Tot: -0.00000 ]
	SubspaceRotationAdjust: set factor to 0.148
ElecMinimize: Iter:   5  G: -1443.532021451305354  |grad|_K:  1.555e-07  alpha:  2.632e-01  linmin: -1.942e-05  t[s]:   2241.02
	Linear fluid (dielectric constant: 78.4, screening length: 8.12261 Bohr) occupying 0.509069 of unit cell:	Completed after 7 iterations at t[s]:   2251.02
	Linear fluid (dielectric constant: 78.4, screening length: 8.12261 Bohr) occupying 0.509068 of unit cell:	Completed after 2 iterations at t[s]:   2260.27
	FillingsUpdate:  mu: -0.171300000  nElectrons: 189.757430  magneticMoment: [ Abs: 0.00000  Tot: -0.00000 ]
	SubspaceRotationAdjust: set factor to 0.168
ElecMinimize: Iter:   6  G: -1443.532023444767901  |grad|_K:  9.815e-08  alpha:  3.955e-01  linmin: -5.866e-05  t[s]:   2271.84
	Linear fluid (dielectric constant: 78.4, screening length: 8.12261 Bohr) occupying 0.509063 of unit cell:	Completed after 9 iterations at t[s]:   2281.97
	Linear fluid (dielectric constant: 78.4, screening length: 8.12261 Bohr) occupying 0.509063 of unit cell:	Completed after 0 iterations at t[s]:   2289.65
	FillingsUpdate:  mu: -0.171300000  nElectrons: 189.757015  magneticMoment: [ Abs: 0.00000  Tot: -0.00000 ]
	SubspaceRotationAdjust: set factor to 0.149
ElecMinimize: Iter:   7  G: -1443.532024184480179  |grad|_K:  6.093e-08  alpha:  3.687e-01  linmin:  4.030e-06  t[s]:   2301.28
	Linear fluid (dielectric constant: 78.4, screening length: 8.12261 Bohr) occupying 0.509061 of unit cell:	Completed after 9 iterations at t[s]:   2311.43
	Linear fluid (dielectric constant: 78.4, screening length: 8.12261 Bohr) occupying 0.509061 of unit cell:	Completed after 0 iterations at t[s]:   2319.25
	FillingsUpdate:  mu: -0.171300000  nElectrons: 189.757350  magneticMoment: [ Abs: 0.00000  Tot: -0.00000 ]
	SubspaceRotationAdjust: set factor to 0.121
ElecMinimize: Iter:   8  G: -1443.532024459192826  |grad|_K:  4.003e-08  alpha:  3.560e-01  linmin: -5.921e-04  t[s]:   2330.94
	Linear fluid (dielectric constant: 78.4, screening length: 8.12261 Bohr) occupying 0.509058 of unit cell:	Completed after 6 iterations at t[s]:   2340.90
	Linear fluid (dielectric constant: 78.4, screening length: 8.12261 Bohr) occupying 0.509058 of unit cell:	Completed after 0 iterations at t[s]:   2348.81
	FillingsUpdate:  mu: -0.171300000  nElectrons: 189.757268  magneticMoment: [ Abs: 0.00000  Tot: -0.00000 ]
	SubspaceRotationAdjust: set factor to 0.146
ElecMinimize: Iter:   9  G: -1443.532024587351543  |grad|_K:  2.437e-08  alpha:  3.803e-01  linmin: -1.227e-03  t[s]:   2360.54
	Linear fluid (dielectric constant: 78.4, screening length: 8.12261 Bohr) occupying 0.509056 of unit cell:	Completed after 6 iterations at t[s]:   2370.48
	Linear fluid (dielectric constant: 78.4, screening length: 8.12261 Bohr) occupying 0.509056 of unit cell:	Completed after 0 iterations at t[s]:   2378.20
	FillingsUpdate:  mu: -0.171300000  nElectrons: 189.757209  magneticMoment: [ Abs: 0.00000  Tot: -0.00000 ]
	SubspaceRotationAdjust: set factor to 0.157
ElecMinimize: Iter:  10  G: -1443.532024637295308  |grad|_K:  1.722e-08  alpha:  3.978e-01  linmin: -1.611e-03  t[s]:   2389.91
	Linear fluid (dielectric constant: 78.4, screening length: 8.12261 Bohr) occupying 0.509055 of unit cell:	Completed after 3 iterations at t[s]:   2399.66
	Linear fluid (dielectric constant: 78.4, screening length: 8.12261 Bohr) occupying 0.509055 of unit cell:	Completed after 0 iterations at t[s]:   2407.44
	FillingsUpdate:  mu: -0.171300000  nElectrons: 189.757348  magneticMoment: [ Abs: 0.00000  Tot: -0.00000 ]
	SubspaceRotationAdjust: set factor to 0.204
ElecMinimize: Iter:  11  G: -1443.532024666412781  |grad|_K:  1.311e-08  alpha:  4.599e-01  linmin: -9.547e-04  t[s]:   2419.10
ElecMinimize: Converged (|Delta G|<1.000000e-07 for 2 iters).
Setting wave functions to eigenvectors of Hamiltonian
Converging empty states (this may take a while): |deigs|: 6.378e-08

Computing DFT-D3 correction:
# coordination-number Ag 8.400 9.168 9.155 6.886 4.663 9.155 9.168 8.399 4.663 6.886
# diagonal-C6 Ag 268.61 268.61 268.61 268.61 268.61 268.61 268.61 268.61 268.61 268.61
EvdW_6 =   -0.055042
EvdW_8 =   -0.079080

# Ionic positions in cartesian coordinates:
ion Ag   3.832891024269405   1.717221698190607  12.876232613887309 1
ion Ag  -0.000185358238776   3.426858820826880   9.425026487766010 1
ion Ag   3.832615052185506   5.142789409781551   5.999497400886979 1
ion Ag   0.000298557508460   6.859182164303802   2.558524324439541 1
ion Ag   0.000297816261458  -0.000286668471596  16.277933794499937 1
ion Ag   3.833239023153721   6.855895875229215  11.141497682840930 1
ion Ag   3.832945927380132   0.001325678104665   7.715920433716773 1
ion Ag  -0.000290555803559   1.710958982825973   4.264704707939303 1
ion Ag   3.832455319513622   3.428461500473328   0.863017545349868 1
ion Ag  -0.000099806229966   5.139506538735577  14.582440008673348 1

# Forces in Cartesian coordinates:
force Ag   0.000029218443327   0.000975466683996   0.005705436439891 1
force Ag  -0.000060695324127  -0.000511502435724  -0.000693710923498 1
force Ag  -0.000050196242746   0.000203151015795   0.000086287519612 1
force Ag   0.000071138757779   0.000732526099549  -0.003578173263559 1
force Ag   0.000081976149902  -0.000253551158705  -0.001679441017022 1
force Ag   0.000097587645177  -0.000200994722335  -0.000088896625141 1
force Ag   0.000038997519936   0.000508562084991   0.000692988637289 1
force Ag  -0.000096213706435  -0.000977818794112  -0.005704452716578 1
force Ag  -0.000111047427781   0.000248493938170   0.001665519101059 1
force Ag  -0.000019438911021  -0.000730965826835   0.003578317590185 1

# Energy components:
   A_diel =        0.0447405563500371
   Eewald =     5548.6884779672027435
       EH =     6876.6766490133477419
     Eloc =   -14133.4516364919873013
      Enl =       39.4894602070762488
     EvdW =       -0.1341217790020103
      Exc =     -144.8320036913727904
 Exc_core =        2.0817052739360498
       KE =      335.3858988185348267
  MuShift =        0.0135402313372516
-------------------------------------
     Etot =    -1476.0372898945774978
       TS =        0.0001684468216009
-------------------------------------
        F =    -1476.0374583413990877
      muN =      -32.5054336749863992
-------------------------------------
        G =    -1443.5320246664127808


Dumping 'jdft.fillings' ... done
Dumping 'jdft.wfns' ... done
Dumping 'jdft.fluidState' ... done
Dumping 'jdft.ionpos' ... done
Dumping 'jdft.lattice' ... done
Dumping 'jdft.eigenvals' ... done
Dumping 'jdft.eigStats' ... 
	eMin: -3.555207 at state 63 ( [ +0.000000 +0.000000 +0.000000 ] spin -1 )
	HOMO: -0.172612 at state 36 ( [ -0.444444 +0.142857 +0.000000 ] spin 1 )
	mu  : -0.171300
	LUMO: -0.170089 at state 53 ( [ -0.222222 -0.428571 +0.000000 ] spin 1 )
	eMax: +0.144506 at state 111 ( [ -0.333333 -0.142857 +0.000000 ] spin -1 )
	HOMO-LUMO gap: +0.002522
	Optical gap  : +0.002976 at state 53 ( [ -0.222222 -0.428571 +0.000000 ] spin 1 )
Dumping 'jdft.Ecomponents' ... done
IonicMinimize: Iter:   1  G: -1443.532024666412781  |grad|_K:  1.835e-03  alpha:  3.000e+00  linmin: -9.993e-01  t[s]:   2447.53

#--- Lowdin population analysis ---
# oxidation-state Ag -0.060 -0.001 -0.032 -0.001 +0.244 -0.032 -0.001 -0.060 +0.244 -0.001
# magnetic-moments Ag +0.000 +0.000 -0.000 +0.000 -0.000 -0.000 +0.000 -0.000 -0.000 -0.000


Computing DFT-D3 correction:
# coordination-number Ag 8.301 9.011 9.049 6.852 4.805 9.049 9.011 8.301 4.804 6.853
# diagonal-C6 Ag 268.61 268.61 268.61 268.61 268.61 268.61 268.61 268.61 268.61 268.61
EvdW_6 =   -0.054814
EvdW_8 =   -0.078715
Shifting auxilliary hamiltonian by 0.000014 to set nElectrons=189.757348

-------- Electronic minimization -----------
	Linear fluid (dielectric constant: 78.4, screening length: 8.12261 Bohr) occupying 0.509048 of unit cell:	Completed after 19 iterations at t[s]:   2458.34
	FillingsUpdate:  mu: -0.171300000  nElectrons: 189.757348  magneticMoment: [ Abs: 0.00000  Tot: -0.00000 ]
ElecMinimize: Iter:   0  G: -1442.280274083450422  |grad|_K:  1.476e-04  alpha:  1.000e+00
	Linear fluid (dielectric constant: 78.4, screening length: 8.12261 Bohr) occupying 0.509728 of unit cell:	Completed after 23 iterations at t[s]:   2482.97
	Linear fluid (dielectric constant: 78.4, screening length: 8.12261 Bohr) occupying 0.509279 of unit cell:	Completed after 22 iterations at t[s]:   2492.05
	FillingsUpdate:  mu: -0.171300000  nElectrons: 189.163165  magneticMoment: [ Abs: 0.00000  Tot: +0.00000 ]
	SubspaceRotationAdjust: set factor to 0.135
ElecMinimize: Iter:   1  G: -1443.307930027693601  |grad|_K:  6.657e-05  alpha:  2.392e-01  linmin:  8.434e-03  t[s]:   2503.70
	Linear fluid (dielectric constant: 78.4, screening length: 8.12261 Bohr) occupying 0.509940 of unit cell:	Completed after 19 iterations at t[s]:   2514.35
	Linear fluid (dielectric constant: 78.4, screening length: 8.12261 Bohr) occupying 0.509586 of unit cell:	Completed after 16 iterations at t[s]:   2523.02
	FillingsUpdate:  mu: -0.171300000  nElectrons: 189.798230  magneticMoment: [ Abs: 0.00000  Tot: -0.00000 ]
	SubspaceRotationAdjust: set factor to 0.0863
ElecMinimize: Iter:   2  G: -1443.477142768539125  |grad|_K:  2.085e-05  alpha:  1.958e-01  linmin: -7.343e-04  t[s]:   2534.63
	Linear fluid (dielectric constant: 78.4, screening length: 8.12261 Bohr) occupying 0.509664 of unit cell:	Completed after 14 iterations at t[s]:   2545.04
	Linear fluid (dielectric constant: 78.4, screening length: 8.12261 Bohr) occupying 0.509687 of unit cell:	Completed after 12 iterations at t[s]:   2554.23
	FillingsUpdate:  mu: -0.171300000  nElectrons: 189.805979  magneticMoment: [ Abs: 0.00000  Tot: -0.00000 ]
	SubspaceRotationAdjust: set factor to 0.12
ElecMinimize: Iter:   3  G: -1443.500366838209629  |grad|_K:  9.300e-06  alpha:  2.539e-01  linmin:  5.964e-05  t[s]:   2565.81
	Linear fluid (dielectric constant: 78.4, screening length: 8.12261 Bohr) occupying 0.509617 of unit cell:	Completed after 14 iterations at t[s]:   2576.20
	Linear fluid (dielectric constant: 78.4, screening length: 8.12261 Bohr) occupying 0.509580 of unit cell:	Completed after 14 iterations at t[s]:   2584.87
	FillingsUpdate:  mu: -0.171300000  nElectrons: 189.774623  magneticMoment: [ Abs: 0.00000  Tot: -0.00000 ]
	SubspaceRotationAdjust: set factor to 0.146
ElecMinimize: Iter:   4  G: -1443.507254969127871  |grad|_K:  6.156e-06  alpha:  3.826e-01  linmin: -9.767e-05  t[s]:   2596.40
	Linear fluid (dielectric constant: 78.4, screening length: 8.12261 Bohr) occupying 0.509536 of unit cell:	Completed after 14 iterations at t[s]:   2606.88
	Linear fluid (dielectric constant: 78.4, screening length: 8.12261 Bohr) occupying 0.509493 of unit cell:	Completed after 13 iterations at t[s]:   2615.37
	FillingsUpdate:  mu: -0.171300000  nElectrons: 189.775299  magneticMoment: [ Abs: 0.00000  Tot: -0.00000 ]
	SubspaceRotationAdjust: set factor to 0.185
ElecMinimize: Iter:   5  G: -1443.512797426437601  |grad|_K:  7.220e-06  alpha:  7.004e-01  linmin: -6.755e-06  t[s]:   2626.97
	Linear fluid (dielectric constant: 78.4, screening length: 8.12261 Bohr) occupying 0.509336 of unit cell:	Completed after 15 iterations at t[s]:   2637.45
	Linear fluid (dielectric constant: 78.4, screening length: 8.12261 Bohr) occupying 0.509383 of unit cell:	Completed after 12 iterations at t[s]:   2645.95
	FillingsUpdate:  mu: -0.171300000  nElectrons: 189.783515  magneticMoment: [ Abs: 0.00000  Tot: -0.00000 ]
	SubspaceRotationAdjust: set factor to 0.221
ElecMinimize: Iter:   6  G: -1443.518543178570781  |grad|_K:  7.070e-06  alpha:  5.305e-01  linmin: -7.524e-06  t[s]:   2657.55
	Linear fluid (dielectric constant: 78.4, screening length: 8.12261 Bohr) occupying 0.509126 of unit cell:	Completed after 14 iterations at t[s]:   2667.98
	Linear fluid (dielectric constant: 78.4, screening length: 8.12261 Bohr) occupying 0.509089 of unit cell:	Completed after 12 iterations at t[s]:   2676.52
	FillingsUpdate:  mu: -0.171300000  nElectrons: 189.751016  magneticMoment: [ Abs: 0.00000  Tot: +0.00000 ]
	SubspaceRotationAdjust: set factor to 0.237
ElecMinimize: Iter:   7  G: -1443.524761273577724  |grad|_K:  6.906e-06  alpha:  5.968e-01  linmin: -2.578e-06  t[s]:   2688.05
	Linear fluid (dielectric constant: 78.4, screening length: 8.12261 Bohr) occupying 0.508938 of unit cell:	Completed after 14 iterations at t[s]:   2698.48
	Linear fluid (dielectric constant: 78.4, screening length: 8.12261 Bohr) occupying 0.508991 of unit cell:	Completed after 14 iterations at t[s]:   2707.22
	FillingsUpdate:  mu: -0.171300000  nElectrons: 189.767236  magneticMoment: [ Abs: 0.00000  Tot: +0.00000 ]
	SubspaceRotationAdjust: set factor to 0.238
ElecMinimize: Iter:   8  G: -1443.529143899045948  |grad|_K:  5.282e-06  alpha:  4.415e-01  linmin: -2.746e-06  t[s]:   2718.84
	Linear fluid (dielectric constant: 78.4, screening length: 8.12261 Bohr) occupying 0.508886 of unit cell:	Completed after 14 iterations at t[s]:   2729.28
	Linear fluid (dielectric constant: 78.4, screening length: 8.12261 Bohr) occupying 0.508901 of unit cell:	Completed after 10 iterations at t[s]:   2737.65
	FillingsUpdate:  mu: -0.171300000  nElectrons: 189.759005  magneticMoment: [ Abs: 0.00000  Tot: +0.00000 ]
	SubspaceRotationAdjust: set factor to 0.253
ElecMinimize: Iter:   9  G: -1443.531400687773385  |grad|_K:  3.335e-06  alpha:  3.883e-01  linmin:  4.725e-06  t[s]:   2749.38
	Linear fluid (dielectric constant: 78.4, screening length: 8.12261 Bohr) occupying 0.508888 of unit cell:	Completed after 14 iterations at t[s]:   2759.74
	Linear fluid (dielectric constant: 78.4, screening length: 8.12261 Bohr) occupying 0.508888 of unit cell:	Completed after 8 iterations at t[s]:   2767.94
	FillingsUpdate:  mu: -0.171300000  nElectrons: 189.752402  magneticMoment: [ Abs: 0.00000  Tot: +0.00000 ]
	SubspaceRotationAdjust: set factor to 0.251
ElecMinimize: Iter:  10  G: -1443.532319655020274  |grad|_K:  2.352e-06  alpha:  3.975e-01  linmin:  1.059e-05  t[s]:   2779.62
	Linear fluid (dielectric constant: 78.4, screening length: 8.12261 Bohr) occupying 0.508971 of unit cell:	Completed after 14 iterations at t[s]:   2789.99
	Linear fluid (dielectric constant: 78.4, screening length: 8.12261 Bohr) occupying 0.508960 of unit cell:	Completed after 11 iterations at t[s]:   2798.42
	FillingsUpdate:  mu: -0.171300000  nElectrons: 189.766196  magneticMoment: [ Abs: 0.00000  Tot: +0.00000 ]
	SubspaceRotationAdjust: set factor to 0.235
ElecMinimize: Iter:  11  G: -1443.532715933976533  |grad|_K:  1.465e-06  alpha:  3.451e-01  linmin: -2.836e-05  t[s]:   2810.34
	Linear fluid (dielectric constant: 78.4, screening length: 8.12261 Bohr) occupying 0.508988 of unit cell:	Completed after 12 iterations at t[s]:   2820.74
	Linear fluid (dielectric constant: 78.4, screening length: 8.12261 Bohr) occupying 0.508990 of unit cell:	Completed after 9 iterations at t[s]:   2829.20
	FillingsUpdate:  mu: -0.171300000  nElectrons: 189.763760  magneticMoment: [ Abs: 0.00000  Tot: +0.00000 ]
	SubspaceRotationAdjust: set factor to 0.249
ElecMinimize: Iter:  12  G: -1443.532882507523482  |grad|_K:  1.028e-06  alpha:  3.723e-01  linmin:  2.351e-06  t[s]:   2841.00
	Linear fluid (dielectric constant: 78.4, screening length: 8.12261 Bohr) occupying 0.509040 of unit cell:	Completed after 12 iterations at t[s]:   2851.33
	Linear fluid (dielectric constant: 78.4, screening length: 8.12261 Bohr) occupying 0.509042 of unit cell:	Completed after 2 iterations at t[s]:   2859.47
	FillingsUpdate:  mu: -0.171300000  nElectrons: 189.766788  magneticMoment: [ Abs: 0.00000  Tot: +0.00000 ]
	SubspaceRotationAdjust: set factor to 0.304
ElecMinimize: Iter:  13  G: -1443.532968130782592  |grad|_K:  7.716e-07  alpha:  3.895e-01  linmin: -1.385e-05  t[s]:   2871.08
	Linear fluid (dielectric constant: 78.4, screening length: 8.12261 Bohr) occupying 0.509087 of unit cell:	Completed after 8 iterations at t[s]:   2881.14
	Linear fluid (dielectric constant: 78.4, screening length: 8.12261 Bohr) occupying 0.509092 of unit cell:	Completed after 2 iterations at t[s]:   2889.13
	FillingsUpdate:  mu: -0.171300000  nElectrons: 189.767013  magneticMoment: [ Abs: 0.00000  Tot: +0.00000 ]
	SubspaceRotationAdjust: set factor to 0.405
ElecMinimize: Iter:  14  G: -1443.533022188086761  |grad|_K:  6.161e-07  alpha:  4.360e-01  linmin: -5.413e-06  t[s]:   2900.77
	Linear fluid (dielectric constant: 78.4, screening length: 8.12261 Bohr) occupying 0.509132 of unit cell:	Completed after 12 iterations at t[s]:   2911.04
	Linear fluid (dielectric constant: 78.4, screening length: 8.12261 Bohr) occupying 0.509136 of unit cell:	Completed after 7 iterations at t[s]:   2919.16
	FillingsUpdate:  mu: -0.171300000  nElectrons: 189.763687  magneticMoment: [ Abs: 0.00000  Tot: +0.00000 ]
	SubspaceRotationAdjust: set factor to 0.468
ElecMinimize: Iter:  15  G: -1443.533060326955137  |grad|_K:  6.160e-07  alpha:  4.827e-01  linmin:  4.282e-06  t[s]:   2930.91
	Linear fluid (dielectric constant: 78.4, screening length: 8.12261 Bohr) occupying 0.509226 of unit cell:	Completed after 13 iterations at t[s]:   2941.28
	Linear fluid (dielectric constant: 78.4, screening length: 8.12261 Bohr) occupying 0.509191 of unit cell:	Completed after 12 iterations at t[s]:   2949.87
	FillingsUpdate:  mu: -0.171300000  nElectrons: 189.766848  magneticMoment: [ Abs: 0.00000  Tot: +0.00000 ]
	SubspaceRotationAdjust: set factor to 0.422
ElecMinimize: Iter:  16  G: -1443.533083139607697  |grad|_K:  5.564e-07  alpha:  2.897e-01  linmin:  1.833e-06  t[s]:   2961.62
	Linear fluid (dielectric constant: 78.4, screening length: 8.12261 Bohr) occupying 0.509217 of unit cell:	Completed after 12 iterations at t[s]:   2971.98
	Linear fluid (dielectric constant: 78.4, screening length: 8.12261 Bohr) occupying 0.509212 of unit cell:	Completed after 10 iterations at t[s]:   2980.31
	FillingsUpdate:  mu: -0.171300000  nElectrons: 189.763107  magneticMoment: [ Abs: 0.00000  Tot: +0.00000 ]
	SubspaceRotationAdjust: set factor to 0.33
ElecMinimize: Iter:  17  G: -1443.533098521729244  |grad|_K:  4.062e-07  alpha:  2.388e-01  linmin:  1.834e-06  t[s]:   2992.01
	Linear fluid (dielectric constant: 78.4, screening length: 8.12261 Bohr) occupying 0.509237 of unit cell:	Completed after 10 iterations at t[s]:   3002.21
	Linear fluid (dielectric constant: 78.4, screening length: 8.12261 Bohr) occupying 0.509247 of unit cell:	Completed after 10 iterations at t[s]:   3010.67
	FillingsUpdate:  mu: -0.171300000  nElectrons: 189.764459  magneticMoment: [ Abs: 0.00000  Tot: -0.00000 ]
	SubspaceRotationAdjust: set factor to 0.299
ElecMinimize: Iter:  18  G: -1443.533110059497858  |grad|_K:  2.808e-07  alpha:  3.362e-01  linmin: -3.468e-06  t[s]:   3022.38
	Linear fluid (dielectric constant: 78.4, screening length: 8.12261 Bohr) occupying 0.509257 of unit cell:	Completed after 10 iterations at t[s]:   3032.57
	Linear fluid (dielectric constant: 78.4, screening length: 8.12261 Bohr) occupying 0.509259 of unit cell:	Completed after 2 iterations at t[s]:   3040.55
	FillingsUpdate:  mu: -0.171300000  nElectrons: 189.763849  magneticMoment: [ Abs: 0.00000  Tot: -0.00000 ]
	SubspaceRotationAdjust: set factor to 0.297
ElecMinimize: Iter:  19  G: -1443.533116137635943  |grad|_K:  2.032e-07  alpha:  3.702e-01  linmin: -3.843e-06  t[s]:   3052.19
	Linear fluid (dielectric constant: 78.4, screening length: 8.12261 Bohr) occupying 0.509262 of unit cell:	Completed after 2 iterations at t[s]:   3061.93
	Linear fluid (dielectric constant: 78.4, screening length: 8.12261 Bohr) occupying 0.509262 of unit cell:	Completed after 0 iterations at t[s]:   3069.64
	FillingsUpdate:  mu: -0.171300000  nElectrons: 189.763726  magneticMoment: [ Abs: 0.00000  Tot: -0.00000 ]
	SubspaceRotationAdjust: set factor to 0.319
ElecMinimize: Iter:  20  G: -1443.533119514384907  |grad|_K:  1.467e-07  alpha:  3.926e-01  linmin: -9.191e-06  t[s]:   3081.40
	Linear fluid (dielectric constant: 78.4, screening length: 8.12261 Bohr) occupying 0.509259 of unit cell:	Completed after 6 iterations at t[s]:   3091.42
	Linear fluid (dielectric constant: 78.4, screening length: 8.12261 Bohr) occupying 0.509259 of unit cell:	Completed after 0 iterations at t[s]:   3099.23
	FillingsUpdate:  mu: -0.171300000  nElectrons: 189.763872  magneticMoment: [ Abs: 0.00000  Tot: -0.00000 ]
	SubspaceRotationAdjust: set factor to 0.368
ElecMinimize: Iter:  21  G: -1443.533121278771887  |grad|_K:  1.113e-07  alpha:  3.939e-01  linmin: -2.996e-05  t[s]:   3110.93
	Linear fluid (dielectric constant: 78.4, screening length: 8.12261 Bohr) occupying 0.509252 of unit cell:	Completed after 9 iterations at t[s]:   3121.06
	Linear fluid (dielectric constant: 78.4, screening length: 8.12261 Bohr) occupying 0.509252 of unit cell:	Completed after 0 iterations at t[s]:   3128.71
	FillingsUpdate:  mu: -0.171300000  nElectrons: 189.763491  magneticMoment: [ Abs: 0.00000  Tot: -0.00000 ]
	SubspaceRotationAdjust: set factor to 0.436
ElecMinimize: Iter:  22  G: -1443.533122258340200  |grad|_K:  9.371e-08  alpha:  3.794e-01  linmin:  1.336e-04  t[s]:   3140.36
	Linear fluid (dielectric constant: 78.4, screening length: 8.12261 Bohr) occupying 0.509246 of unit cell:	Completed after 10 iterations at t[s]:   3150.53
	Linear fluid (dielectric constant: 78.4, screening length: 8.12261 Bohr) occupying 0.509247 of unit cell:	Completed after 2 iterations at t[s]:   3159.60
	FillingsUpdate:  mu: -0.171300000  nElectrons: 189.764082  magneticMoment: [ Abs: 0.00000  Tot: -0.00000 ]
	SubspaceRotationAdjust: set factor to 0.437
ElecMinimize: Iter:  23  G: -1443.533122886945876  |grad|_K:  8.800e-08  alpha:  3.465e-01  linmin: -1.056e-06  t[s]:   3171.31
	Linear fluid (dielectric constant: 78.4, screening length: 8.12261 Bohr) occupying 0.509236 of unit cell:	Completed after 9 iterations at t[s]:   3181.45
	Linear fluid (dielectric constant: 78.4, screening length: 8.12261 Bohr) occupying 0.509239 of unit cell:	Completed after 7 iterations at t[s]:   3189.74
	FillingsUpdate:  mu: -0.171300000  nElectrons: 189.763680  magneticMoment: [ Abs: 0.00000  Tot: -0.00000 ]
	SubspaceRotationAdjust: set factor to 0.418
ElecMinimize: Iter:  24  G: -1443.533123297263501  |grad|_K:  7.448e-08  alpha:  2.558e-01  linmin: -1.147e-05  t[s]:   3201.55
	Linear fluid (dielectric constant: 78.4, screening length: 8.12261 Bohr) occupying 0.509234 of unit cell:	Completed after 8 iterations at t[s]:   3211.65
	Linear fluid (dielectric constant: 78.4, screening length: 8.12261 Bohr) occupying 0.509233 of unit cell:	Completed after 2 iterations at t[s]:   3219.54
	FillingsUpdate:  mu: -0.171300000  nElectrons: 189.764166  magneticMoment: [ Abs: 0.00000  Tot: -0.00000 ]
	SubspaceRotationAdjust: set factor to 0.415
ElecMinimize: Iter:  25  G: -1443.533123646380318  |grad|_K:  5.571e-08  alpha:  3.014e-01  linmin: -6.202e-05  t[s]:   3231.27
	Linear fluid (dielectric constant: 78.4, screening length: 8.12261 Bohr) occupying 0.509228 of unit cell:	Completed after 2 iterations at t[s]:   3240.99
	Linear fluid (dielectric constant: 78.4, screening length: 8.12261 Bohr) occupying 0.509227 of unit cell:	Completed after 0 iterations at t[s]:   3248.70
	FillingsUpdate:  mu: -0.171300000  nElectrons: 189.764107  magneticMoment: [ Abs: 0.00000  Tot: -0.00000 ]
	SubspaceRotationAdjust: set factor to 0.471
ElecMinimize: Iter:  26  G: -1443.533123881150459  |grad|_K:  4.211e-08  alpha:  3.579e-01  linmin: -3.182e-05  t[s]:   3260.35
	Linear fluid (dielectric constant: 78.4, screening length: 8.12261 Bohr) occupying 0.509223 of unit cell:	Completed after 7 iterations at t[s]:   3270.39
	Linear fluid (dielectric constant: 78.4, screening length: 8.12261 Bohr) occupying 0.509224 of unit cell:	Completed after 0 iterations at t[s]:   3278.11
	FillingsUpdate:  mu: -0.171300000  nElectrons: 189.763932  magneticMoment: [ Abs: 0.00000  Tot: -0.00000 ]
	SubspaceRotationAdjust: set factor to 0.431
ElecMinimize: Iter:  27  G: -1443.533123997959819  |grad|_K:  4.787e-08  alpha:  3.170e-01  linmin: -8.877e-05  t[s]:   3289.86
	Linear fluid (dielectric constant: 78.4, screening length: 8.12261 Bohr) occupying 0.509222 of unit cell:	Completed after 10 iterations at t[s]:   3300.03
	Linear fluid (dielectric constant: 78.4, screening length: 8.12261 Bohr) occupying 0.509223 of unit cell:	Completed after 8 iterations at t[s]:   3308.37
	FillingsUpdate:  mu: -0.171300000  nElectrons: 189.764198  magneticMoment: [ Abs: 0.00000  Tot: +0.00000 ]
	SubspaceRotationAdjust: set factor to 0.32
ElecMinimize: Iter:  28  G: -1443.533124061081253  |grad|_K:  3.000e-08  alpha:  1.368e-01  linmin:  5.006e-05  t[s]:   3320.10
	Linear fluid (dielectric constant: 78.4, screening length: 8.12261 Bohr) occupying 0.509222 of unit cell:	Completed after 1 iterations at t[s]:   3329.81
	Linear fluid (dielectric constant: 78.4, screening length: 8.12261 Bohr) occupying 0.509222 of unit cell:	Completed after 2 iterations at t[s]:   3337.64
	FillingsUpdate:  mu: -0.171300000  nElectrons: 189.764250  magneticMoment: [ Abs: 0.00000  Tot: +0.00000 ]
	SubspaceRotationAdjust: set factor to 0.409
ElecMinimize: Iter:  29  G: -1443.533124121474657  |grad|_K:  2.390e-08  alpha:  3.234e-01  linmin: -9.566e-05  t[s]:   3349.35
ElecMinimize: Converged (|Delta G|<1.000000e-07 for 2 iters).
Setting wave functions to eigenvectors of Hamiltonian
Converging empty states (this may take a while): |deigs|: 5.684e-06

Computing DFT-D3 correction:
# coordination-number Ag 8.301 9.011 9.049 6.852 4.805 9.049 9.011 8.301 4.804 6.853
# diagonal-C6 Ag 268.61 268.61 268.61 268.61 268.61 268.61 268.61 268.61 268.61 268.61
EvdW_6 =   -0.054814
EvdW_8 =   -0.078715

[...]
	FillingsUpdate:  mu: -0.171300000  nElectrons: 189.759944  magneticMoment: [ Abs: 0.00000  Tot: -0.00000 ]
	SubspaceRotationAdjust: set factor to 0.239
ElecMinimize: Iter:   9  G: -1443.533433491414826  |grad|_K:  1.288e-08  alpha:  4.360e-01  linmin: -6.468e-04  t[s]:   5934.42
ElecMinimize: Converged (|Delta G|<1.000000e-07 for 2 iters).
Setting wave functions to eigenvectors of Hamiltonian
Converging empty states (this may take a while): |deigs|: 2.491e-08

Computing DFT-D3 correction:
# coordination-number Ag 8.166 8.795 8.876 6.766 4.802 8.876 8.795 8.165 4.803 6.766
# diagonal-C6 Ag 268.61 268.61 268.61 268.61 268.61 268.61 268.61 268.61 268.61 268.61
EvdW_6 =   -0.054347
EvdW_8 =   -0.078002

# Ionic positions in cartesian coordinates:
ion Ag   3.836710015179591   1.727217213896478  13.040615793997269 1
ion Ag  -0.000906149226896   3.402142443654445   9.426037253834631 1
ion Ag   3.830444425721776   5.162512194708519   5.967267221709904 1
ion Ag  -0.002593223668807   6.897512506076374   2.406043748834899 1
ion Ag   0.006522596156665  -0.065874357110245  16.311473300170263 1
ion Ag   3.836142959292545   6.835975223808159  11.174010778016010 1
ion Ag   3.833344885808487   0.025429877350591   7.714969504031152 1
ion Ag  -0.005198206866982   1.700891874273032   4.099959342991235 1
ion Ag   3.825939268418423   3.494914154095608   0.829639275841791 1
ion Ag   0.003760429185202   5.101192869247038  14.734778780572848 1

# Forces in Cartesian coordinates:
force Ag   0.000023374307688   0.000023800166852  -0.000018183771923 1
force Ag  -0.000008854374647   0.000278460144163  -0.000028787595567 1
force Ag   0.000004293767630   0.000316925312014   0.000297111476031 1
force Ag  -0.000011577370896   0.000311176781218   0.000079665620526 1
force Ag   0.000001522674443  -0.000094004888126   0.000000346080703 1
force Ag  -0.000002687652213  -0.000310817454613  -0.000296427334517 1
force Ag   0.000005451824021  -0.000281834988710   0.000018160812381 1
force Ag  -0.000021277040568  -0.000029135021515   0.000025244861381 1
force Ag  -0.000000144260505   0.000097020513804  -0.000001309654155 1
force Ag   0.000007726205871  -0.000308863127560  -0.000077788840915 1

# Energy components:
   A_diel =        0.0443241276423072
   Eewald =     5444.7780701994242918
       EH =     6772.9813150928684991
     Eloc =   -13925.8221211349282385
      Enl =       39.4974907257111383
     EvdW =       -0.1323496411152246
      Exc =     -144.8055424958599815
 Exc_core =        2.0817049231383011
       KE =      335.3245597802934412
  MuShift =        0.0133953678365004
-------------------------------------
     Etot =    -1476.0391530549891286
       TS =        0.0001588189803814
-------------------------------------
        F =    -1476.0393118739696092
      muN =      -32.5058783825548900
-------------------------------------
        G =    -1443.5334334914148258


Dumping 'jdft.fillings' ... done
Dumping 'jdft.wfns' ... done
Dumping 'jdft.fluidState' ... done
Dumping 'jdft.ionpos' ... done
Dumping 'jdft.lattice' ... done
Dumping 'jdft.eigenvals' ... done
Dumping 'jdft.eigStats' ... 
	eMin: -3.553503 at state 63 ( [ +0.000000 +0.000000 +0.000000 ] spin -1 )
	HOMO: -0.171420 at state 99 ( [ -0.444444 +0.142857 +0.000000 ] spin -1 )
	mu  : -0.171300
	LUMO: -0.169445 at state 46 ( [ -0.333333 -0.428571 +0.000000 ] spin 1 )
	eMax: +0.143482 at state 22 ( [ +0.333333 +0.142857 +0.000000 ] spin 1 )
	HOMO-LUMO gap: +0.001975
	Optical gap  : +0.005797 at state 36 ( [ -0.444444 +0.142857 +0.000000 ] spin 1 )
Dumping 'jdft.Ecomponents' ... done
IonicMinimize: Iter:   7  G: -1443.533433491414826  |grad|_K:  1.589e-04  alpha:  1.000e+00  linmin:  1.204e-01  t[s]:   5963.02

#--- Lowdin population analysis ---
# oxidation-state Ag -0.059 +0.002 -0.029 +0.004 +0.232 -0.029 +0.002 -0.059 +0.232 +0.004
# magnetic-moments Ag -0.000 -0.000 -0.000 -0.000 -0.000 +0.000 -0.000 +0.000 +0.000 -0.000


Computing DFT-D3 correction:
# coordination-number Ag 8.165 8.798 8.877 6.766 4.799 8.878 8.798 8.164 4.799 6.766
# diagonal-C6 Ag 268.61 268.61 268.61 268.61 268.61 268.61 268.61 268.61 268.61 268.61
EvdW_6 =   -0.054349
EvdW_8 =   -0.078008
Shifting auxilliary hamiltonian by -0.000001 to set nElectrons=189.759944

-------- Electronic minimization -----------
	Linear fluid (dielectric constant: 78.4, screening length: 8.12261 Bohr) occupying 0.506861 of unit cell:	Completed after 10 iterations at t[s]:   5974.49
	FillingsUpdate:  mu: -0.171300000  nElectrons: 189.759944  magneticMoment: [ Abs: 0.00000  Tot: +0.00000 ]
ElecMinimize: Iter:   0  G: -1443.533431270062920  |grad|_K:  1.475e-07  alpha:  1.000e+00
	Linear fluid (dielectric constant: 78.4, screening length: 8.12261 Bohr) occupying 0.506867 of unit cell:	Completed after 3 iterations at t[s]:   5997.62
	Linear fluid (dielectric constant: 78.4, screening length: 8.12261 Bohr) occupying 0.506864 of unit cell:	Completed after 2 iterations at t[s]:   6005.52
	FillingsUpdate:  mu: -0.171300000  nElectrons: 189.759963  magneticMoment: [ Abs: 0.00000  Tot: +0.00000 ]
	SubspaceRotationAdjust: set factor to 0.303
ElecMinimize: Iter:   1  G: -1443.533434080944744  |grad|_K:  1.187e-07  alpha:  6.205e-01  linmin:  3.759e-06  t[s]:   6017.24
	Linear fluid (dielectric constant: 78.4, screening length: 8.12261 Bohr) occupying 0.506870 of unit cell:	Completed after 2 iterations at t[s]:   6026.96
	Linear fluid (dielectric constant: 78.4, screening length: 8.12261 Bohr) occupying 0.506871 of unit cell:	Completed after 2 iterations at t[s]:   6034.87
	FillingsUpdate:  mu: -0.171300000  nElectrons: 189.760030  magneticMoment: [ Abs: 0.00000  Tot: +0.00000 ]
	SubspaceRotationAdjust: set factor to 0.37
ElecMinimize: Iter:   2  G: -1443.533436224770867  |grad|_K:  1.374e-07  alpha:  7.316e-01  linmin:  2.607e-06  t[s]:   6046.50
	Linear fluid (dielectric constant: 78.4, screening length: 8.12261 Bohr) occupying 0.506882 of unit cell:	Completed after 2 iterations at t[s]:   6056.22
	Linear fluid (dielectric constant: 78.4, screening length: 8.12261 Bohr) occupying 0.506878 of unit cell:	Completed after 2 iterations at t[s]:   6064.16
	FillingsUpdate:  mu: -0.171300000  nElectrons: 189.760076  magneticMoment: [ Abs: 0.00000  Tot: +0.00000 ]
	SubspaceRotationAdjust: set factor to 0.422
ElecMinimize: Iter:   3  G: -1443.533438208002735  |grad|_K:  1.022e-07  alpha:  5.053e-01  linmin:  6.762e-07  t[s]:   6075.72
	Linear fluid (dielectric constant: 78.4, screening length: 8.12261 Bohr) occupying 0.506883 of unit cell:	Completed after 2 iterations at t[s]:   6085.37
	Linear fluid (dielectric constant: 78.4, screening length: 8.12261 Bohr) occupying 0.506883 of unit cell:	Completed after 1 iterations at t[s]:   6093.19
	FillingsUpdate:  mu: -0.171300000  nElectrons: 189.760027  magneticMoment: [ Abs: 0.00000  Tot: +0.00000 ]
	SubspaceRotationAdjust: set factor to 0.447
ElecMinimize: Iter:   4  G: -1443.533439096418533  |grad|_K:  5.893e-08  alpha:  4.091e-01  linmin:  1.153e-05  t[s]:   6104.90
	Linear fluid (dielectric constant: 78.4, screening length: 8.12261 Bohr) occupying 0.506884 of unit cell:	Completed after 6 iterations at t[s]:   6114.76
	Linear fluid (dielectric constant: 78.4, screening length: 8.12261 Bohr) occupying 0.506883 of unit cell:	Completed after 2 iterations at t[s]:   6122.69
	FillingsUpdate:  mu: -0.171300000  nElectrons: 189.759841  magneticMoment: [ Abs: 0.00000  Tot: +0.00000 ]
	SubspaceRotationAdjust: set factor to 0.42
ElecMinimize: Iter:   5  G: -1443.533439339267261  |grad|_K:  3.611e-08  alpha:  3.363e-01  linmin:  9.459e-05  t[s]:   6134.35
	Linear fluid (dielectric constant: 78.4, screening length: 8.12261 Bohr) occupying 0.506885 of unit cell:	Completed after 9 iterations at t[s]:   6144.43
	Linear fluid (dielectric constant: 78.4, screening length: 8.12261 Bohr) occupying 0.506885 of unit cell:	Completed after 5 iterations at t[s]:   6152.54
	FillingsUpdate:  mu: -0.171300000  nElectrons: 189.760092  magneticMoment: [ Abs: 0.00000  Tot: +0.00000 ]
	SubspaceRotationAdjust: set factor to 0.293
ElecMinimize: Iter:   6  G: -1443.533439402991917  |grad|_K:  3.473e-08  alpha:  2.362e-01  linmin:  3.901e-04  t[s]:   6164.37
	Linear fluid (dielectric constant: 78.4, screening length: 8.12261 Bohr) occupying 0.506885 of unit cell:	Completed after 8 iterations at t[s]:   6174.42
	Linear fluid (dielectric constant: 78.4, screening length: 8.12261 Bohr) occupying 0.506885 of unit cell:	Completed after 2 iterations at t[s]:   6182.27
	FillingsUpdate:  mu: -0.171300000  nElectrons: 189.759881  magneticMoment: [ Abs: 0.00000  Tot: +0.00000 ]
	SubspaceRotationAdjust: set factor to 0.185
ElecMinimize: Iter:   7  G: -1443.533439445077420  |grad|_K:  1.524e-08  alpha:  1.725e-01  linmin:  7.834e-04  t[s]:   6193.95
ElecMinimize: Converged (|Delta G|<1.000000e-07 for 2 iters).
Setting wave functions to eigenvectors of Hamiltonian
Converging empty states (this may take a while): |deigs|: 1.611e-08

Computing DFT-D3 correction:
# coordination-number Ag 8.165 8.798 8.877 6.766 4.799 8.878 8.798 8.164 4.799 6.766
# diagonal-C6 Ag 268.61 268.61 268.61 268.61 268.61 268.61 268.61 268.61 268.61 268.61
EvdW_6 =   -0.054349
EvdW_8 =   -0.078008
IonicMinimize: 	Wolfe criterion not satisfied: alpha: 1  (E-E0)/|gdotd0|: -0.910387  gdotd/gdotd0: 0.941636 (taking cubic step)

Computing DFT-D3 correction:
# coordination-number Ag 8.164 8.803 8.880 6.765 4.791 8.881 8.803 8.163 4.792 6.766
# diagonal-C6 Ag 268.61 268.61 268.61 268.61 268.61 268.61 268.61 268.61 268.61 268.61
EvdW_6 =   -0.054354
EvdW_8 =   -0.078019
Shifting auxilliary hamiltonian by 0.000020 to set nElectrons=189.759881

-------- Electronic minimization -----------
	Linear fluid (dielectric constant: 78.4, screening length: 8.12261 Bohr) occupying 0.506786 of unit cell:	Completed after 7 iterations at t[s]:   6233.12
	FillingsUpdate:  mu: -0.171300000  nElectrons: 189.759881  magneticMoment: [ Abs: 0.00000  Tot: +0.00000 ]
ElecMinimize: Iter:   0  G: -1443.533413227262145  |grad|_K:  2.861e-07  alpha:  1.000e+00
	Linear fluid (dielectric constant: 78.4, screening length: 8.12261 Bohr) occupying 0.506791 of unit cell:	Completed after 12 iterations at t[s]:   6256.98
	Linear fluid (dielectric constant: 78.4, screening length: 8.12261 Bohr) occupying 0.506789 of unit cell:	Completed after 10 iterations at t[s]:   6265.29
	FillingsUpdate:  mu: -0.171300000  nElectrons: 189.759091  magneticMoment: [ Abs: 0.00000  Tot: +0.00000 ]
	SubspaceRotationAdjust: set factor to 0.192
ElecMinimize: Iter:   1  G: -1443.533422798594302  |grad|_K:  2.208e-07  alpha:  5.622e-01  linmin:  6.576e-07  t[s]:   6276.99
	Linear fluid (dielectric constant: 78.4, screening length: 8.12261 Bohr) occupying 0.506801 of unit cell:	Completed after 11 iterations at t[s]:   6287.37
	Linear fluid (dielectric constant: 78.4, screening length: 8.12261 Bohr) occupying 0.506803 of unit cell:	Completed after 8 iterations at t[s]:   6295.63
	FillingsUpdate:  mu: -0.171300000  nElectrons: 189.760799  magneticMoment: [ Abs: 0.00000  Tot: +0.00000 ]
	SubspaceRotationAdjust: set factor to 0.216
ElecMinimize: Iter:   2  G: -1443.533429332061360  |grad|_K:  2.581e-07  alpha:  6.445e-01  linmin:  1.731e-05  t[s]:   6307.31
	Linear fluid (dielectric constant: 78.4, screening length: 8.12261 Bohr) occupying 0.506814 of unit cell:	Completed after 11 iterations at t[s]:   6317.56
	Linear fluid (dielectric constant: 78.4, screening length: 8.12261 Bohr) occupying 0.506813 of unit cell:	Completed after 6 iterations at t[s]:   6325.67
	FillingsUpdate:  mu: -0.171300000  nElectrons: 189.759475  magneticMoment: [ Abs: 0.00000  Tot: +0.00000 ]
	SubspaceRotationAdjust: set factor to 0.213
ElecMinimize: Iter:   3  G: -1443.533437640005559  |grad|_K:  2.315e-07  alpha:  5.999e-01  linmin:  4.705e-06  t[s]:   6337.33
	Linear fluid (dielectric constant: 78.4, screening length: 8.12261 Bohr) occupying 0.506829 of unit cell:	Completed after 11 iterations at t[s]:   6347.54
	Linear fluid (dielectric constant: 78.4, screening length: 8.12261 Bohr) occupying 0.506826 of unit cell:	Completed after 8 iterations at t[s]:   6355.84
	FillingsUpdate:  mu: -0.171300000  nElectrons: 189.760386  magneticMoment: [ Abs: 0.00000  Tot: +0.00000 ]
	SubspaceRotationAdjust: set factor to 0.205
ElecMinimize: Iter:   4  G: -1443.533442988491515  |grad|_K:  1.608e-07  alpha:  4.799e-01  linmin: -3.246e-06  t[s]:   6367.51
	Linear fluid (dielectric constant: 78.4, screening length: 8.12261 Bohr) occupying 0.506828 of unit cell:	Completed after 9 iterations at t[s]:   6377.57
	Linear fluid (dielectric constant: 78.4, screening length: 8.12261 Bohr) occupying 0.506827 of unit cell:	Completed after 8 iterations at t[s]:   6385.81
	FillingsUpdate:  mu: -0.171300000  nElectrons: 189.759799  magneticMoment: [ Abs: 0.00000  Tot: +0.00000 ]
	SubspaceRotationAdjust: set factor to 0.196
ElecMinimize: Iter:   5  G: -1443.533444990080397  |grad|_K:  9.373e-08  alpha:  3.721e-01  linmin:  2.469e-06  t[s]:   6397.49
	Linear fluid (dielectric constant: 78.4, screening length: 8.12261 Bohr) occupying 0.506829 of unit cell:	Completed after 7 iterations at t[s]:   6407.46
	Linear fluid (dielectric constant: 78.4, screening length: 8.12261 Bohr) occupying 0.506830 of unit cell:	Completed after 2 iterations at t[s]:   6415.33
	FillingsUpdate:  mu: -0.171300000  nElectrons: 189.759907  magneticMoment: [ Abs: 0.00000  Tot: +0.00000 ]
	SubspaceRotationAdjust: set factor to 0.192
ElecMinimize: Iter:   6  G: -1443.533445794395902  |grad|_K:  5.274e-08  alpha:  4.401e-01  linmin: -6.033e-05  t[s]:   6426.96
	Linear fluid (dielectric constant: 78.4, screening length: 8.12261 Bohr) occupying 0.506830 of unit cell:	Completed after 2 iterations at t[s]:   6436.65
	Linear fluid (dielectric constant: 78.4, screening length: 8.12261 Bohr) occupying 0.506830 of unit cell:	Completed after 0 iterations at t[s]:   6444.33
	FillingsUpdate:  mu: -0.171300000  nElectrons: 189.759741  magneticMoment: [ Abs: 0.00000  Tot: +0.00000 ]
	SubspaceRotationAdjust: set factor to 0.194
ElecMinimize: Iter:   7  G: -1443.533446037054546  |grad|_K:  3.434e-08  alpha:  4.184e-01  linmin:  2.820e-04  t[s]:   6456.12
	Linear fluid (dielectric constant: 78.4, screening length: 8.12261 Bohr) occupying 0.506831 of unit cell:	Completed after 2 iterations at t[s]:   6466.70
	Linear fluid (dielectric constant: 78.4, screening length: 8.12261 Bohr) occupying 0.506831 of unit cell:	Completed after 2 iterations at t[s]:   6474.60
	FillingsUpdate:  mu: -0.171300000  nElectrons: 189.759663  magneticMoment: [ Abs: 0.00000  Tot: +0.00000 ]
	SubspaceRotationAdjust: set factor to 0.203
ElecMinimize: Iter:   8  G: -1443.533446122913347  |grad|_K:  1.975e-08  alpha:  3.575e-01  linmin: -1.514e-03  t[s]:   6486.31
	Linear fluid (dielectric constant: 78.4, screening length: 8.12261 Bohr) occupying 0.506832 of unit cell:	Completed after 2 iterations at t[s]:   6495.96
	Linear fluid (dielectric constant: 78.4, screening length: 8.12261 Bohr) occupying 0.506833 of unit cell:	Completed after 0 iterations at t[s]:   6503.69
	FillingsUpdate:  mu: -0.171300000  nElectrons: 189.759679  magneticMoment: [ Abs: 0.00000  Tot: +0.00000 ]
	SubspaceRotationAdjust: set factor to 0.215
ElecMinimize: Iter:   9  G: -1443.533446158712195  |grad|_K:  1.159e-08  alpha:  4.305e-01  linmin: -1.014e-03  t[s]:   6515.43
ElecMinimize: Converged (|Delta G|<1.000000e-07 for 2 iters).
Setting wave functions to eigenvectors of Hamiltonian
Converging empty states (this may take a while): |deigs|: 6.400e-08

Computing DFT-D3 correction:
# coordination-number Ag 8.164 8.803 8.880 6.765 4.791 8.881 8.803 8.163 4.792 6.766
# diagonal-C6 Ag 268.61 268.61 268.61 268.61 268.61 268.61 268.61 268.61 268.61 268.61
EvdW_6 =   -0.054354
EvdW_8 =   -0.078019

# Ionic positions in cartesian coordinates:
ion Ag   3.837514171822193   1.716113459534890  13.037678486800218 1
ion Ag  -0.001002277931182   3.403179504852448   9.425459412597807 1
ion Ag   3.830182378857391   5.173324280974907   5.969972848565736 1
ion Ag  -0.003262590016982   6.911731260390338   2.408512076393919 1
ion Ag   0.007418017404238  -0.075524102723763  16.315025269166881 1
ion Ag   3.836376962501458   6.825249217328221  11.171507773412131 1
ion Ag   3.833399304861289   0.024342524949416   7.715484628649951 1
ion Ag  -0.006083127899588   1.711874883337008   4.102864669224492 1
ion Ag   3.825248750252172   3.504700511024901   0.826171675827425 1
ion Ag   0.004375410149015   5.086922460331633  14.732118159361436 1

# Forces in Cartesian coordinates:
force Ag   0.000003351934852  -0.000041623442850   0.000119730631281 1
force Ag   0.000003871909940  -0.000078907150013  -0.000033615212922 1
force Ag  -0.000000499582374  -0.000044113000579  -0.000010740457849 1
force Ag  -0.000017564401133   0.000084246043422  -0.000020438241340 1
force Ag   0.000000178132831  -0.000193699366445  -0.000200350732943 1
force Ag  -0.000002440499768   0.000048186995830   0.000001619489262 1
force Ag  -0.000006866583512   0.000078371374107   0.000026299986263 1
force Ag   0.000002880745101   0.000041896324083  -0.000112262332955 1
force Ag   0.000000004428011   0.000195397113979   0.000197352629040 1
force Ag   0.000003911179741  -0.000081187504493   0.000028101318103 1

# Energy components:
   A_diel =        0.0443713224447222
   Eewald =     5445.3145434088191905
       EH =     6773.5245189474626386
     Eloc =   -13926.9019122792888083
      Enl =       39.4979498071191699
     EvdW =       -0.1323721758571850
      Exc =     -144.8053190162291628
 Exc_core =        2.0817048461184173
       KE =      335.3239845618535355
  MuShift =        0.0134101659347501
-------------------------------------
     Etot =    -1476.0391204116233439
       TS =        0.0001587018703487
-------------------------------------
        F =    -1476.0392791134936488
      muN =      -32.5058329547814608
-------------------------------------
        G =    -1443.5334461587121950


Dumping 'jdft.fillings' ... done
Dumping 'jdft.wfns' ... done
Dumping 'jdft.fluidState' ... done
Dumping 'jdft.ionpos' ... done
Dumping 'jdft.lattice' ... done
Dumping 'jdft.eigenvals' ... done
Dumping 'jdft.eigStats' ... 
	eMin: -3.553547 at state 0 ( [ +0.000000 +0.000000 +0.000000 ] spin 1 )
	HOMO: -0.171402 at state 36 ( [ -0.444444 +0.142857 +0.000000 ] spin 1 )
	mu  : -0.171300
	LUMO: -0.169413 at state 24 ( [ +0.333333 +0.428571 +0.000000 ] spin 1 )
	eMax: +0.143371 at state 22 ( [ +0.333333 +0.142857 +0.000000 ] spin 1 )
	HOMO-LUMO gap: +0.001989
	Optical gap  : +0.005767 at state 97 ( [ +0.444444 -0.142857 +0.000000 ] spin -1 )
Dumping 'jdft.Ecomponents' ... done
IonicMinimize: Iter:   8  G: -1443.533446158712195  |grad|_K:  8.545e-05  alpha:  3.000e+00  linmin: -2.344e-01  t[s]:   6543.86
IonicMinimize: Converged (|grad|_K<1.000000e-04).

#--- Lowdin population analysis ---
# oxidation-state Ag -0.059 +0.002 -0.029 +0.003 +0.233 -0.029 +0.002 -0.059 +0.232 +0.003
# magnetic-moments Ag -0.000 -0.000 +0.000 +0.000 +0.000 -0.000 -0.000 -0.000 -0.000 -0.000


Dumping 'jdft.n_up' ... done
Dumping 'jdft.n_dn' ... done
Dumping 'jdft.tau_up' ... done
Dumping 'jdft.tau_dn' ... done
Dumping 'jdft.eigenvals' ... done
Dumping 'jdft.eigStats' ... 
	eMin: -3.553547 at state 0 ( [ +0.000000 +0.000000 +0.000000 ] spin 1 )
	HOMO: -0.171402 at state 36 ( [ -0.444444 +0.142857 +0.000000 ] spin 1 )
	mu  : -0.171300
	LUMO: -0.169413 at state 24 ( [ +0.333333 +0.428571 +0.000000 ] spin 1 )
	eMax: +0.143371 at state 22 ( [ +0.333333 +0.142857 +0.000000 ] spin 1 )
	HOMO-LUMO gap: +0.001989
	Optical gap  : +0.005767 at state 97 ( [ +0.444444 -0.142857 +0.000000 ] spin -1 )
Dumping 'jdft.kPts' ... done
Dumping 'jdft.dosUp' ... done.
Dumping 'jdft.dosDn' ... done.
End date and time: Mon Dec  6 19:13:48 2021  (Duration: 0-1:49:23.91)
Done!
