
*************** JDFTx 1.6.0  ***************

Start date and time: Mon Dec  6 17:07:56 2021
Executable /projects/musgravc/apps/jdftx-1.6.1/build/jdftx with command-line: -i in
Running on hosts (process indices):  shas0515.rc.int.colorado.edu (0-23)
Divided in process groups (process indices):  0 (0)  1 (1)  2 (2)  3 (3)  4 (4)  5 (5)  6 (6)  7 (7)  8 (8)  9 (9)  10 (10)  11 (11)  12 (12)  13 (13)  14 (14)  15 (15)  16 (16)  17 (17)  18 (18)  19 (19)  20 (20)  21 (21)  22 (22)  23 (23)
Resource initialization completed at t[s]:      0.01
Run totals: 24 processes, 24 threads, 0 GPUs


Input parsed successfully to the following command list (including defaults):

basis kpoint-dependent
converge-empty-states yes
coords-type Cartesian
core-overlap-check none
coulomb-interaction Periodic
davidson-band-ratio 1.1
density-of-states Etol 1.000000e-06 Esigma 1.000000e-03 \
		Complete \
	Total \
	OrthoOrbital Ag 1   s \
	OrthoOrbital Ag 1   p \
	OrthoOrbital Ag 1   px \
	OrthoOrbital Ag 1   py \
	OrthoOrbital Ag 1   pz \
	OrthoOrbital Ag 1   d \
	OrthoOrbital Ag 1   dxy \
	OrthoOrbital Ag 1   dyz \
	OrthoOrbital Ag 1   dz2 \
	OrthoOrbital Ag 1   dxz \
	OrthoOrbital Ag 1   dx2-y2 \
	OrthoOrbital Ag 2   s \
	OrthoOrbital Ag 2   p \
	OrthoOrbital Ag 2   px \
	OrthoOrbital Ag 2   py \
	OrthoOrbital Ag 2   pz \
	OrthoOrbital Ag 2   d \
	OrthoOrbital Ag 2   dxy \
	OrthoOrbital Ag 2   dyz \
	OrthoOrbital Ag 2   dz2 \
	OrthoOrbital Ag 2   dxz \
	OrthoOrbital Ag 2   dx2-y2 \
	OrthoOrbital Ag 3   s \
	OrthoOrbital Ag 3   p \
	OrthoOrbital Ag 3   px \
	OrthoOrbital Ag 3   py \
	OrthoOrbital Ag 3   pz \
	OrthoOrbital Ag 3   d \
	OrthoOrbital Ag 3   dxy \
	OrthoOrbital Ag 3   dyz \
	OrthoOrbital Ag 3   dz2 \
	OrthoOrbital Ag 3   dxz \
	OrthoOrbital Ag 3   dx2-y2 \
	OrthoOrbital Ag 4   s \
	OrthoOrbital Ag 4   p \
	OrthoOrbital Ag 4   px \
	OrthoOrbital Ag 4   py \
	OrthoOrbital Ag 4   pz \
	OrthoOrbital Ag 4   d \
	OrthoOrbital Ag 4   dxy \
	OrthoOrbital Ag 4   dyz \
	OrthoOrbital Ag 4   dz2 \
	OrthoOrbital Ag 4   dxz \
	OrthoOrbital Ag 4   dx2-y2 \
	OrthoOrbital Ag 5   s \
	OrthoOrbital Ag 5   p \
	OrthoOrbital Ag 5   px \
	OrthoOrbital Ag 5   py \
	OrthoOrbital Ag 5   pz \
	OrthoOrbital Ag 5   d \
	OrthoOrbital Ag 5   dxy \
	OrthoOrbital Ag 5   dyz \
	OrthoOrbital Ag 5   dz2 \
	OrthoOrbital Ag 5   dxz \
	OrthoOrbital Ag 5   dx2-y2 \
	OrthoOrbital Ag 6   s \
	OrthoOrbital Ag 6   p \
	OrthoOrbital Ag 6   px \
	OrthoOrbital Ag 6   py \
	OrthoOrbital Ag 6   pz \
	OrthoOrbital Ag 6   d \
	OrthoOrbital Ag 6   dxy \
	OrthoOrbital Ag 6   dyz \
	OrthoOrbital Ag 6   dz2 \
	OrthoOrbital Ag 6   dxz \
	OrthoOrbital Ag 6   dx2-y2 \
	OrthoOrbital Ag 7   s \
	OrthoOrbital Ag 7   p \
	OrthoOrbital Ag 7   px \
	OrthoOrbital Ag 7   py \
	OrthoOrbital Ag 7   pz \
	OrthoOrbital Ag 7   d \
	OrthoOrbital Ag 7   dxy \
	OrthoOrbital Ag 7   dyz \
	OrthoOrbital Ag 7   dz2 \
	OrthoOrbital Ag 7   dxz \
	OrthoOrbital Ag 7   dx2-y2 \
	OrthoOrbital Ag 8   s \
	OrthoOrbital Ag 8   p \
	OrthoOrbital Ag 8   px \
	OrthoOrbital Ag 8   py \
	OrthoOrbital Ag 8   pz \
	OrthoOrbital Ag 8   d \
	OrthoOrbital Ag 8   dxy \
	OrthoOrbital Ag 8   dyz \
	OrthoOrbital Ag 8   dz2 \
	OrthoOrbital Ag 8   dxz \
	OrthoOrbital Ag 8   dx2-y2 \
	OrthoOrbital Ag 9   s \
	OrthoOrbital Ag 9   p \
	OrthoOrbital Ag 9   px \
	OrthoOrbital Ag 9   py \
	OrthoOrbital Ag 9   pz \
	OrthoOrbital Ag 9   d \
	OrthoOrbital Ag 9   dxy \
	OrthoOrbital Ag 9   dyz \
	OrthoOrbital Ag 9   dz2 \
	OrthoOrbital Ag 9   dxz \
	OrthoOrbital Ag 9   dx2-y2 \
	OrthoOrbital Ag 10   s \
	OrthoOrbital Ag 10   p \
	OrthoOrbital Ag 10   px \
	OrthoOrbital Ag 10   py \
	OrthoOrbital Ag 10   pz \
	OrthoOrbital Ag 10   d \
	OrthoOrbital Ag 10   dxy \
	OrthoOrbital Ag 10   dyz \
	OrthoOrbital Ag 10   dz2 \
	OrthoOrbital Ag 10   dxz \
	OrthoOrbital Ag 10   dx2-y2
dump End ElecDensity KEdensity BandEigs EigStats RhoAtom DOS Kpoints
dump Ionic State IonicPositions Lattice EigStats Ecomponents
dump 
dump 
dump 
dump 
dump 
dump 
dump 
dump 
dump-name jdft.$VAR
elec-cutoff 20
elec-eigen-algo Davidson
elec-ex-corr gga-PBE
elec-initial-magnetization 0.000000 no
elec-n-bands 114
elec-smearing Fermi 0.001
electronic-minimize  \
	dirUpdateScheme      FletcherReeves \
	linminMethod         DirUpdateRecommended \
	nIterations          100 \
	history              15 \
	knormThreshold       0 \
	energyDiffThreshold  1e-07 \
	nEnergyDiff          2 \
	alphaTstart          1 \
	alphaTmin            1e-10 \
	updateTestStepSize   yes \
	alphaTreduceFactor   0.1 \
	alphaTincreaseFactor 3 \
	nAlphaAdjustMax      3 \
	wolfeEnergy          0.0001 \
	wolfeGradient        0.9 \
	fdTest               no
exchange-regularization WignerSeitzTruncated
fluid None
fluid-ex-corr lda-TF lda-PZ
fluid-gummel-loop 10 1.000000e-05
fluid-minimize  \
	dirUpdateScheme      PolakRibiere \
	linminMethod         DirUpdateRecommended \
	nIterations          100 \
	history              15 \
	knormThreshold       0 \
	energyDiffThreshold  0 \
	nEnergyDiff          2 \
	alphaTstart          1 \
	alphaTmin            1e-10 \
	updateTestStepSize   yes \
	alphaTreduceFactor   0.1 \
	alphaTincreaseFactor 3 \
	nAlphaAdjustMax      3 \
	wolfeEnergy          0.0001 \
	wolfeGradient        0.9 \
	fdTest               no
fluid-solvent H2O 55.338 ScalarEOS \
	epsBulk 78.4 \
	pMol 0.92466 \
	epsInf 1.77 \
	Pvap 1.06736e-10 \
	sigmaBulk 4.62e-05 \
	Rvdw 2.61727 \
	Res 1.42 \
	tauNuc 343133 \
	poleEl 15 7 1
forces-output-coords Positions
ion Ag   3.832834000000000   1.714096000000000  12.855717000000002 1
ion Ag  -0.000000000000000   3.428191000000000   9.427508000000000 1
ion Ag   3.832834000000001   5.142287000000000   5.999352000000000 1
ion Ag  -0.000001000000000   6.856383000000000   2.571143000000000 1
ion Ag   0.000000000000000   0.000000000000000  16.283925000000000 1
ion Ag   3.832833000000001   6.856383000000000  11.141638000000000 1
ion Ag   3.832834000000000   0.000000000000000   7.713430000000000 1
ion Ag   0.000000000000000   1.714096000000000   4.285222000000000 1
ion Ag   3.832834000000001   3.428191000000000   0.857065000000000 1
ion Ag  -0.000001000000000   5.142287000000000  14.569794999999997 1
ion-species /projects/musgravc/apps/jdftx-1.6.0/build/pseudopotentials/GBRV_v1.5/$ID_pbe_v1.uspp
ion-species /projects/musgravc/apps/jdftx-1.6.0/build/pseudopotentials/GBRV_v1.5/$ID_pbe_v1.2.uspp
ion-species /projects/musgravc/apps/jdftx-1.6.0/build/pseudopotentials/GBRV_v1.5/$ID_pbe_v1.4.uspp
ion-species /projects/musgravc/apps/jdftx-1.6.0/build/pseudopotentials/GBRV_v1.5/$ID_pbe_v1.5.uspp
ion-width 0
ionic-minimize  \
	dirUpdateScheme      L-BFGS \
	linminMethod         DirUpdateRecommended \
	nIterations          100 \
	history              15 \
	knormThreshold       0.0001 \
	energyDiffThreshold  1e-06 \
	nEnergyDiff          2 \
	alphaTstart          1 \
	alphaTmin            1e-10 \
	updateTestStepSize   yes \
	alphaTreduceFactor   0.1 \
	alphaTincreaseFactor 3 \
	nAlphaAdjustMax      3 \
	wolfeEnergy          0.0001 \
	wolfeGradient        0.9 \
	fdTest               no
kpoint   0.000000000000   0.000000000000   0.000000000000  1.00000000000000
kpoint-folding 9 7 1 
latt-move-scale 0 0 0
latt-scale 1 1 1 
lattice  \
	   7.665668000000000   -3.832835000000000    0.000000000000000  \
	   0.000000000000000    8.570479000000001    0.000000000000000  \
	   0.000000000000000    0.000000000000000   51.422865999999999 
lattice-minimize  \
	dirUpdateScheme      L-BFGS \
	linminMethod         DirUpdateRecommended \
	nIterations          0 \
	history              15 \
	knormThreshold       0 \
	energyDiffThreshold  1e-06 \
	nEnergyDiff          2 \
	alphaTstart          1 \
	alphaTmin            1e-10 \
	updateTestStepSize   yes \
	alphaTreduceFactor   0.1 \
	alphaTincreaseFactor 3 \
	nAlphaAdjustMax      3 \
	wolfeEnergy          0.0001 \
	wolfeGradient        0.9 \
	fdTest               no
lcao-params 30 1e-06 0.001
pcm-variant GLSSA13
spintype z-spin
subspace-rotation-factor 1 yes
symmetries none
symmetry-threshold 0.0001
van-der-waals D3


Applied RMS atom displacement 0 bohrs to make symmetries exact.

---------- Initializing the Grid ----------
R = 
[      7.66567     -3.83284            0  ]
[            0      8.57048            0  ]
[            0            0      51.4229  ]
unit cell volume = 3378.4
G =
[   0.819653    0.36656         -0  ]
[          0    0.73312          0  ]
[          0         -0   0.122187  ]
Minimum fftbox size, Smin = [  32  40  208  ]
Chosen fftbox size, S = [  32  40  210  ]

---------- Exchange Correlation functional ----------
Initalized PBE GGA exchange.
Initalized PBE GGA correlation.

---------- Setting up pseudopotentials ----------
Width of ionic core gaussian charges (only for fluid interactions / plotting) set to 0

Reading pseudopotential file '/projects/musgravc/apps/jdftx-1.6.0/build/pseudopotentials/GBRV_v1.5/ag_pbe_v1.4.uspp':
  Title: Ag.  Created by USPP 7.3.6 on 1-4-15
  Reference state energy: -147.606242.  19 valence electrons in orbitals:
    |400>  occupation: 2  eigenvalue: -3.637437
    |410>  occupation: 6  eigenvalue: -2.297267
    |420>  occupation: 10  eigenvalue: -0.417763
    |500>  occupation: 0.5  eigenvalue: -0.283525
    |510>  occupation: 0  eigenvalue: -0.122889
  lMax: 2  lLocal: 0  QijEcut: 5.5
  6 projectors sampled on a log grid with 717 points:
    l: 0  eig: -0.283528  rCut: 1.5
    l: 0  eig: -3.637440  rCut: 1.5
    l: 1  eig: -0.122892  rCut: 1.5
    l: 1  eig: -2.297267  rCut: 1.5
    l: 2  eig: -0.417762  rCut: 1.7
    l: 2  eig: -1.000000  rCut: 1.7
  Partial core density with radius 1.2
  Transforming core density to a uniform radial grid of dG=0.02 with 1382 points.
  Transforming local potential to a uniform radial grid of dG=0.02 with 1382 points.
  Transforming nonlocal projectors to a uniform radial grid of dG=0.02 with 432 points.
  Transforming density augmentations to a uniform radial grid of dG=0.02 with 1382 points.
  Transforming atomic orbitals to a uniform radial grid of dG=0.02 with 432 points.
  Core radius for overlap checks: 1.70 bohrs.

Initialized 1 species with 10 total atoms.

Folded 1 k-points by 9x7x1 to 63 k-points.

---------- Setting up k-points, bands, fillings ----------
No reducable k-points. 
Computing the number of bands and number of electrons
Calculating initial fillings.
nElectrons: 190.000000   nBands: 114   nStates: 126

----- Setting up reduced wavefunction bases (one per k-point) -----
average nbasis = 14428.778 , ideal nbasis = 14432.793

----- Initializing Supercell corresponding to k-point mesh -----
Lattice vector linear combinations in supercell:
[   9   0   0  ]
[   0   7   0  ]
[   0   0   1  ]
Supercell lattice vectors:
[  68.991  -26.8298  0  ]
[  0  59.9934  0  ]
[  0  0  51.4229  ]

Initializing DFT-D3 calculator:
	Parameters set for gga-PBE functional
	s6:  1.000  s_r6:  1.217
	s8:  0.722  s_r8:  1.000
	Per-atom parameters loaded for:
	Ag:  sqrtQ[a0]:  5.443  Rcov[a0]:  2.173  CN: [ 0.00 0.97 ]

---------- Setting up ewald sum ----------
Optimum gaussian width for ewald sums = 4.078313 bohr.
Real space sum over 975 unit cells with max indices [  7  6  2  ]
Reciprocal space sum over 4257 terms with max indices [  4  5  21  ]

Computing DFT-D3 correction:
# coordination-number Ag 8.415 9.200 9.175 6.890 4.631 9.175 9.200 8.415 4.631 6.890
# diagonal-C6 Ag 268.61 268.61 268.61 268.61 268.61 268.61 268.61 268.61 268.61 268.61
EvdW_6 =   -0.055088
EvdW_8 =   -0.079170

---------- Allocating electronic variables ----------
Initializing wave functions:  linear combination of atomic orbitals
Ag pseudo-atom occupations:   s ( 2 1 )  p ( 6 0 )  d ( 10 )
	FillingsUpdate:  mu: +0.018020720  nElectrons: 190.000000  magneticMoment: [ Abs: 0.00084  Tot: +0.00001 ]
LCAOMinimize: Iter:   0  F: -1475.8861126146273364  |grad|_K:  6.941e-04  alpha:  1.000e+00
	FillingsUpdate:  mu: +0.201407098  nElectrons: 190.000000  magneticMoment: [ Abs: 0.00064  Tot: -0.00003 ]
LCAOMinimize: Iter:   1  F: -1475.9285501353051586  |grad|_K:  7.339e-04  alpha:  2.532e-01  linmin:  7.423e-02  cgtest: -6.079e-01  t[s]:     49.28
	FillingsUpdate:  mu: +0.230481308  nElectrons: 190.000000  magneticMoment: [ Abs: 0.00053  Tot: -0.00002 ]
LCAOMinimize: Iter:   2  F: -1475.9421711404893358  |grad|_K:  7.344e-04  alpha:  1.045e-01  linmin:  1.799e-03  cgtest:  1.006e+00  t[s]:     69.66
LCAOMinimize: Encountered beta<0, resetting CG.
	FillingsUpdate:  mu: +0.111111617  nElectrons: 190.000000  magneticMoment: [ Abs: 0.00056  Tot: -0.00004 ]
LCAOMinimize: Iter:   3  F: -1476.0117830708891233  |grad|_K:  7.048e-05  alpha:  1.210e-01  linmin:  1.143e-01  cgtest: -5.764e-01  t[s]:     90.03
	FillingsUpdate:  mu: +0.105324561  nElectrons: 190.000000  magneticMoment: [ Abs: 0.00055  Tot: -0.00003 ]
LCAOMinimize: Iter:   4  F: -1476.0128452841715898  |grad|_K:  5.714e-05  alpha:  3.302e-01  linmin: -4.543e-04  cgtest:  6.755e-01  t[s]:    110.35
	FillingsUpdate:  mu: +0.113649607  nElectrons: 190.000000  magneticMoment: [ Abs: 0.00055  Tot: -0.00003 ]
LCAOMinimize: Iter:   5  F: -1476.0132672466986605  |grad|_K:  1.282e-05  alpha:  1.212e-01  linmin:  8.790e-03  cgtest: -6.264e-02  t[s]:    130.58
LCAOMinimize: 	Predicted alpha/alphaT>3.000000, increasing alphaT to 3.635052e-01.
	FillingsUpdate:  mu: +0.113906083  nElectrons: 190.000000  magneticMoment: [ Abs: 0.00054  Tot: -0.00003 ]
LCAOMinimize: Iter:   6  F: -1476.0133433484438683  |grad|_K:  6.783e-06  alpha:  4.328e-01  linmin: -1.171e-03  cgtest:  3.398e-02  t[s]:    156.19
	FillingsUpdate:  mu: +0.113765485  nElectrons: 190.000000  magneticMoment: [ Abs: 0.00054  Tot: -0.00003 ]
LCAOMinimize: Iter:   7  F: -1476.0133468343412915  |grad|_K:  3.729e-06  alpha:  6.972e-02  linmin: -3.312e-05  cgtest: -1.018e-02  t[s]:    176.54
LCAOMinimize: 	Predicted alpha/alphaT>3.000000, increasing alphaT to 2.091529e-01.
	FillingsUpdate:  mu: +0.113321254  nElectrons: 190.000000  magneticMoment: [ Abs: 0.00054  Tot: -0.00003 ]
LCAOMinimize: Iter:   8  F: -1476.0133507945622569  |grad|_K:  1.549e-06  alpha:  2.634e-01  linmin: -6.707e-05  cgtest:  1.488e-02  t[s]:    202.36
	FillingsUpdate:  mu: +0.113517594  nElectrons: 190.000000  magneticMoment: [ Abs: 0.00054  Tot: -0.00003 ]
LCAOMinimize: Iter:   9  F: -1476.0133511460371665  |grad|_K:  4.937e-07  alpha:  1.354e-01  linmin:  1.320e-04  cgtest: -2.918e-03  t[s]:    222.62
LCAOMinimize: 	Predicted alpha/alphaT>3.000000, increasing alphaT to 4.062000e-01.
	FillingsUpdate:  mu: +0.113540153  nElectrons: 190.000000  magneticMoment: [ Abs: 0.00054  Tot: -0.00003 ]
LCAOMinimize: Iter:  10  F: -1476.0133513226371633  |grad|_K:  3.325e-07  alpha:  6.707e-01  linmin:  4.581e-05  cgtest: -1.135e-04  t[s]:    248.33
LCAOMinimize: Converged (|Delta F|<1.000000e-06 for 2 iters).


---- Citations for features of the code used in this run ----

   Software package:
      R. Sundararaman, K. Letchworth-Weaver, K.A. Schwarz, D. Gunceler, Y. Ozhabes and T.A. Arias, 'JDFTx: software for joint density-functional theory', SoftwareX 6, 278 (2017)

   gga-PBE exchange-correlation functional:
      J.P. Perdew, K. Burke and M. Ernzerhof, Phys. Rev. Lett. 77, 3865 (1996)

   Pseudopotentials:
      KF Garrity, JW Bennett, KM Rabe and D Vanderbilt, Comput. Mater. Sci. 81, 446 (2014)

   DFT-D3 dispersion correction:
      S. Grimme, J. Antony, S. Ehrlich and H. Krieg, J. Chem. Phys. 132, 154104 (2010)

   Total energy minimization with Auxiliary Hamiltonian:
      C. Freysoldt, S. Boeck, and J. Neugebauer, Phys. Rev. B 79, 241103(R) (2009)

   Linear-tetrahedron sampling for density of states:
      G. Lehmann and M. Taut, Phys. status solidi (b) 54, 469 (1972)

This list may not be complete. Please suggest additional citations or
report any other bugs at https://github.com/shankar1729/jdftx/issues

Initialization completed successfully at t[s]:    251.41


Computing DFT-D3 correction:
# coordination-number Ag 8.415 9.200 9.175 6.890 4.631 9.175 9.200 8.415 4.631 6.890
# diagonal-C6 Ag 268.61 268.61 268.61 268.61 268.61 268.61 268.61 268.61 268.61 268.61
EvdW_6 =   -0.055088
EvdW_8 =   -0.079170

-------- Electronic minimization -----------
	FillingsUpdate:  mu: +0.113540153  nElectrons: 190.000000  magneticMoment: [ Abs: 0.00054  Tot: -0.00003 ]
ElecMinimize: Iter:   0  F: -1476.013351322635344  |grad|_K:  2.118e-05  alpha:  1.000e+00
	FillingsUpdate:  mu: +0.120429783  nElectrons: 190.000000  magneticMoment: [ Abs: 0.00041  Tot: -0.00003 ]
	SubspaceRotationAdjust: set factor to 1
ElecMinimize: Iter:   1  F: -1476.054761741249877  |grad|_K:  1.486e-05  alpha:  4.450e-01  linmin:  3.941e-05  t[s]:    297.36
	FillingsUpdate:  mu: +0.110508853  nElectrons: 190.000000  magneticMoment: [ Abs: 0.00032  Tot: -0.00002 ]
	SubspaceRotationAdjust: set factor to 0.894
ElecMinimize: Iter:   2  F: -1476.067486767477476  |grad|_K:  7.327e-06  alpha:  2.765e-01  linmin: -2.843e-05  t[s]:    326.07
	FillingsUpdate:  mu: +0.122993877  nElectrons: 190.000000  magneticMoment: [ Abs: 0.00024  Tot: -0.00002 ]
	SubspaceRotationAdjust: set factor to 0.659
ElecMinimize: Iter:   3  F: -1476.070848883851568  |grad|_K:  6.626e-06  alpha:  3.007e-01  linmin: -4.028e-05  t[s]:    354.52
	FillingsUpdate:  mu: +0.119341794  nElectrons: 190.000000  magneticMoment: [ Abs: 0.00020  Tot: -0.00002 ]
	SubspaceRotationAdjust: set factor to 0.502
ElecMinimize: Iter:   4  F: -1476.072066421311774  |grad|_K:  4.769e-06  alpha:  1.320e-01  linmin: -7.723e-05  t[s]:    382.92
	FillingsUpdate:  mu: +0.113266281  nElectrons: 190.000000  magneticMoment: [ Abs: 0.00017  Tot: -0.00002 ]
	SubspaceRotationAdjust: set factor to 0.355
ElecMinimize: Iter:   5  F: -1476.072885658432597  |grad|_K:  2.916e-06  alpha:  1.728e-01  linmin:  1.158e-04  t[s]:    411.47
	FillingsUpdate:  mu: +0.115485722  nElectrons: 190.000000  magneticMoment: [ Abs: 0.00012  Tot: -0.00002 ]
	SubspaceRotationAdjust: set factor to 0.492
ElecMinimize: Iter:   6  F: -1476.073510559467195  |grad|_K:  2.187e-06  alpha:  3.559e-01  linmin:  1.786e-05  t[s]:    439.73
	FillingsUpdate:  mu: +0.118139297  nElectrons: 190.000000  magneticMoment: [ Abs: 0.00010  Tot: -0.00002 ]
	SubspaceRotationAdjust: set factor to 0.354
ElecMinimize: Iter:   7  F: -1476.073753883001928  |grad|_K:  1.627e-06  alpha:  2.449e-01  linmin: -3.559e-06  t[s]:    468.04
	FillingsUpdate:  mu: +0.118737468  nElectrons: 190.000000  magneticMoment: [ Abs: 0.00008  Tot: -0.00001 ]
	SubspaceRotationAdjust: set factor to 0.278
ElecMinimize: Iter:   8  F: -1476.073891622335623  |grad|_K:  9.856e-07  alpha:  2.501e-01  linmin:  9.294e-06  t[s]:    496.36
	FillingsUpdate:  mu: +0.117493253  nElectrons: 190.000000  magneticMoment: [ Abs: 0.00006  Tot: -0.00001 ]
	SubspaceRotationAdjust: set factor to 0.269
ElecMinimize: Iter:   9  F: -1476.073968910548729  |grad|_K:  6.781e-07  alpha:  3.833e-01  linmin:  4.296e-05  t[s]:    524.67
	FillingsUpdate:  mu: +0.118030214  nElectrons: 190.000000  magneticMoment: [ Abs: 0.00005  Tot: -0.00001 ]
	SubspaceRotationAdjust: set factor to 0.303
ElecMinimize: Iter:  10  F: -1476.074010766709534  |grad|_K:  4.664e-07  alpha:  4.394e-01  linmin:  1.541e-05  t[s]:    553.30
	FillingsUpdate:  mu: +0.118608873  nElectrons: 190.000000  magneticMoment: [ Abs: 0.00004  Tot: -0.00001 ]
	SubspaceRotationAdjust: set factor to 0.275
ElecMinimize: Iter:  11  F: -1476.074027817053093  |grad|_K:  3.538e-07  alpha:  3.773e-01  linmin:  2.849e-06  t[s]:    581.51
	FillingsUpdate:  mu: +0.118557787  nElectrons: 190.000000  magneticMoment: [ Abs: 0.00003  Tot: -0.00001 ]
	SubspaceRotationAdjust: set factor to 0.272
ElecMinimize: Iter:  12  F: -1476.074037101937392  |grad|_K:  2.479e-07  alpha:  3.566e-01  linmin:  6.609e-06  t[s]:    609.92
	FillingsUpdate:  mu: +0.118377383  nElectrons: 190.000000  magneticMoment: [ Abs: 0.00003  Tot: -0.00001 ]
	SubspaceRotationAdjust: set factor to 0.295
ElecMinimize: Iter:  13  F: -1476.074042759337090  |grad|_K:  1.788e-07  alpha:  4.434e-01  linmin:  1.059e-05  t[s]:    638.06
	FillingsUpdate:  mu: +0.118550161  nElectrons: 190.000000  magneticMoment: [ Abs: 0.00002  Tot: -0.00000 ]
	SubspaceRotationAdjust: set factor to 0.335
ElecMinimize: Iter:  14  F: -1476.074045593935807  |grad|_K:  1.421e-07  alpha:  4.276e-01  linmin:  3.039e-06  t[s]:    666.31
	FillingsUpdate:  mu: +0.118661525  nElectrons: 190.000000  magneticMoment: [ Abs: 0.00001  Tot: -0.00000 ]
	SubspaceRotationAdjust: set factor to 0.343
ElecMinimize: Iter:  15  F: -1476.074047244019084  |grad|_K:  1.086e-07  alpha:  3.933e-01  linmin:  2.881e-06  t[s]:    694.59
	FillingsUpdate:  mu: +0.118592465  nElectrons: 190.000000  magneticMoment: [ Abs: 0.00001  Tot: -0.00000 ]
	SubspaceRotationAdjust: set factor to 0.318
ElecMinimize: Iter:  16  F: -1476.074048139259958  |grad|_K:  7.934e-08  alpha:  3.651e-01  linmin:  2.675e-06  t[s]:    722.85
	FillingsUpdate:  mu: +0.118568778  nElectrons: 190.000000  magneticMoment: [ Abs: 0.00001  Tot: -0.00000 ]
	SubspaceRotationAdjust: set factor to 0.29
ElecMinimize: Iter:  17  F: -1476.074048574150083  |grad|_K:  5.945e-08  alpha:  3.326e-01  linmin:  1.272e-06  t[s]:    751.01
	FillingsUpdate:  mu: +0.118617432  nElectrons: 190.000000  magneticMoment: [ Abs: 0.00001  Tot: -0.00000 ]
	SubspaceRotationAdjust: set factor to 0.302
ElecMinimize: Iter:  18  F: -1476.074048846561482  |grad|_K:  3.861e-08  alpha:  3.710e-01  linmin:  1.510e-06  t[s]:    779.13
	FillingsUpdate:  mu: +0.118634990  nElectrons: 190.000000  magneticMoment: [ Abs: 0.00000  Tot: -0.00000 ]
	SubspaceRotationAdjust: set factor to 0.328
ElecMinimize: Iter:  19  F: -1476.074048980462294  |grad|_K:  2.896e-08  alpha:  4.324e-01  linmin:  9.941e-08  t[s]:    807.54
	FillingsUpdate:  mu: +0.118615675  nElectrons: 190.000000  magneticMoment: [ Abs: 0.00000  Tot: -0.00000 ]
	SubspaceRotationAdjust: set factor to 0.32
ElecMinimize: Iter:  20  F: -1476.074049042754496  |grad|_K:  2.203e-08  alpha:  3.565e-01  linmin:  2.610e-07  t[s]:    835.83
	FillingsUpdate:  mu: +0.118609402  nElectrons: 190.000000  magneticMoment: [ Abs: 0.00000  Tot: -0.00000 ]
	SubspaceRotationAdjust: set factor to 0.305
ElecMinimize: Iter:  21  F: -1476.074049078845292  |grad|_K:  1.625e-08  alpha:  3.574e-01  linmin: -4.745e-07  t[s]:    864.22
ElecMinimize: Converged (|Delta F|<1.000000e-07 for 2 iters).
Setting wave functions to eigenvectors of Hamiltonian
Converging empty states (this may take a while): |deigs|: 1.102e-02

Computing DFT-D3 correction:
# coordination-number Ag 8.415 9.200 9.175 6.890 4.631 9.175 9.200 8.415 4.631 6.890
# diagonal-C6 Ag 268.61 268.61 268.61 268.61 268.61 268.61 268.61 268.61 268.61 268.61
EvdW_6 =   -0.055088
EvdW_8 =   -0.079170

# Ionic positions in cartesian coordinates:
ion Ag   3.832834000000000   1.714096000000000  12.855717000000002 1
ion Ag  -0.000000000000000   3.428191000000000   9.427508000000000 1
ion Ag   3.832834000000001   5.142287000000000   5.999352000000000 1
ion Ag  -0.000001000000000   6.856383000000000   2.571143000000000 1
ion Ag   0.000000000000000   0.000000000000000  16.283925000000000 1
ion Ag   3.832833000000001   6.856383000000000  11.141638000000000 1
ion Ag   3.832834000000000   0.000000000000000   7.713430000000000 1
ion Ag   0.000000000000000   1.714096000000000   4.285222000000000 1
ion Ag   3.832834000000001   3.428191000000000   0.857065000000000 1
ion Ag  -0.000001000000000   5.142287000000000  14.569794999999997 1

# Forces in Cartesian coordinates:
force Ag   0.000048189133574   0.000716283977159   0.006638009868839 1
force Ag  -0.000067517759136  -0.000352979738934  -0.001167443578227 1
force Ag   0.000001317594877   0.000184975909069   0.000407271098547 1
force Ag   0.000111021455127   0.000663802673043  -0.005220450671170 1
force Ag   0.000041340002295  -0.000187706425720  -0.002526575616290 1
force Ag   0.000061499802871  -0.000176327841930  -0.000534119407778 1
force Ag   0.000038400198878   0.000351573655701   0.001021028751206 1
force Ag  -0.000131209735633  -0.000725563032928  -0.006730821450639 1
force Ag  -0.000067935159118   0.000181437489996   0.002469959810523 1
force Ag  -0.000044969250688  -0.000664668646336   0.005151048374211 1

# Energy components:
   Eewald =     5555.1132178514899351
       EH =     6887.4792778927921972
     Eloc =   -14150.6126424293361197
      Enl =       39.4625212922970761
     EvdW =       -0.1342582310330185
      Exc =     -144.8722955091009794
 Exc_core =        2.0817052734592942
       KE =      335.4086904468599641
-------------------------------------
     Etot =    -1476.0737834125718564
       TS =        0.0002656662735338
-------------------------------------
        F =    -1476.0740490788452917


Dumping 'jdft.fillings' ... done
Dumping 'jdft.wfns' ... done
Dumping 'jdft.ionpos' ... done
Dumping 'jdft.lattice' ... done
Dumping 'jdft.eigenvals' ... done
Dumping 'jdft.eigStats' ... 
	eMin: -3.266298 at state 63 ( [ +0.000000 +0.000000 +0.000000 ] spin -1 )
	HOMO: +0.118197 at state 53 ( [ -0.222222 -0.428571 +0.000000 ] spin 1 )
	mu  : +0.118609
	LUMO: +0.119657 at state 87 ( [ +0.333333 +0.428571 +0.000000 ] spin -1 )
	eMax: +0.413797 at state 17 ( [ +0.222222 +0.428571 +0.000000 ] spin 1 )
	HOMO-LUMO gap: +0.001460
	Optical gap  : +0.006669 at state 99 ( [ -0.444444 +0.142857 +0.000000 ] spin -1 )
Dumping 'jdft.Ecomponents' ... done
IonicMinimize: Iter:   0  F: -1476.074049078845292  |grad|_K:  2.315e-03  t[s]:    950.99

#--- Lowdin population analysis ---
# oxidation-state Ag -0.067 -0.002 -0.035 -0.031 +0.161 -0.035 -0.002 -0.066 +0.161 -0.032
# magnetic-moments Ag -0.000 -0.000 -0.000 -0.000 -0.000 -0.000 -0.000 -0.000 -0.000 -0.000


Computing DFT-D3 correction:
# coordination-number Ag 8.410 9.189 9.169 6.888 4.643 9.169 9.189 8.410 4.643 6.887
# diagonal-C6 Ag 268.61 268.61 268.61 268.61 268.61 268.61 268.61 268.61 268.61 268.61
EvdW_6 =   -0.055073
EvdW_8 =   -0.079139

-------- Electronic minimization -----------
	FillingsUpdate:  mu: +0.118704348  nElectrons: 190.000000  magneticMoment: [ Abs: 0.00000  Tot: -0.00000 ]
ElecMinimize: Iter:   0  F: -1476.074179783044201  |grad|_K:  2.664e-07  alpha:  1.000e+00
	FillingsUpdate:  mu: +0.118559475  nElectrons: 190.000000  magneticMoment: [ Abs: 0.00000  Tot: -0.00000 ]
	SubspaceRotationAdjust: set factor to 0.189
ElecMinimize: Iter:   1  F: -1476.074185761156286  |grad|_K:  2.898e-07  alpha:  4.048e-01  linmin: -2.216e-06  t[s]:   1002.43
	FillingsUpdate:  mu: +0.118459885  nElectrons: 190.000000  magneticMoment: [ Abs: 0.00000  Tot: -0.00000 ]
	SubspaceRotationAdjust: set factor to 0.193
ElecMinimize: Iter:   2  F: -1476.074194417540866  |grad|_K:  2.298e-07  alpha:  4.953e-01  linmin:  4.426e-07  t[s]:   1030.61
	FillingsUpdate:  mu: +0.118646558  nElectrons: 190.000000  magneticMoment: [ Abs: 0.00000  Tot: -0.00000 ]
	SubspaceRotationAdjust: set factor to 0.226
ElecMinimize: Iter:   3  F: -1476.074200919910709  |grad|_K:  1.750e-07  alpha:  5.919e-01  linmin: -3.938e-07  t[s]:   1058.73
	FillingsUpdate:  mu: +0.118604980  nElectrons: 190.000000  magneticMoment: [ Abs: 0.00000  Tot: -0.00000 ]
	SubspaceRotationAdjust: set factor to 0.218
ElecMinimize: Iter:   4  F: -1476.074203208806466  |grad|_K:  1.048e-07  alpha:  3.591e-01  linmin: -3.040e-07  t[s]:   1086.90
	FillingsUpdate:  mu: +0.118542641  nElectrons: 190.000000  magneticMoment: [ Abs: 0.00000  Tot: -0.00000 ]
	SubspaceRotationAdjust: set factor to 0.217
ElecMinimize: Iter:   5  F: -1476.074204062010040  |grad|_K:  5.584e-08  alpha:  3.733e-01  linmin:  8.323e-07  t[s]:   1114.89
	FillingsUpdate:  mu: +0.118591630  nElectrons: 190.000000  magneticMoment: [ Abs: 0.00000  Tot: -0.00000 ]
	SubspaceRotationAdjust: set factor to 0.241
ElecMinimize: Iter:   6  F: -1476.074204337675837  |grad|_K:  3.485e-08  alpha:  4.249e-01  linmin:  7.034e-06  t[s]:   1143.06
	FillingsUpdate:  mu: +0.118595257  nElectrons: 190.000000  magneticMoment: [ Abs: 0.00000  Tot: -0.00000 ]
	SubspaceRotationAdjust: set factor to 0.275
ElecMinimize: Iter:   7  F: -1476.074204436050195  |grad|_K:  2.222e-08  alpha:  3.892e-01  linmin: -3.020e-05  t[s]:   1171.21
	FillingsUpdate:  mu: +0.118578289  nElectrons: 190.000000  magneticMoment: [ Abs: 0.00000  Tot: -0.00000 ]
	SubspaceRotationAdjust: set factor to 0.307
ElecMinimize: Iter:   8  F: -1476.074204482406230  |grad|_K:  1.532e-08  alpha:  4.508e-01  linmin:  3.940e-05  t[s]:   1199.46
ElecMinimize: Converged (|Delta F|<1.000000e-07 for 2 iters).
Setting wave functions to eigenvectors of Hamiltonian
Converging empty states (this may take a while): |deigs|: 1.982e-08

Computing DFT-D3 correction:
# coordination-number Ag 8.410 9.189 9.169 6.888 4.643 9.169 9.189 8.410 4.643 6.887
# diagonal-C6 Ag 268.61 268.61 268.61 268.61 268.61 268.61 268.61 268.61 268.61 268.61
EvdW_6 =   -0.055073
EvdW_8 =   -0.079139
IonicMinimize: 	Wolfe criterion not satisfied: alpha: 1  (E-E0)/|gdotd0|: -0.966297  gdotd/gdotd0: 0.95341 (taking cubic step)

Computing DFT-D3 correction:
# coordination-number Ag 8.398 9.168 9.156 6.882 4.667 9.156 9.168 8.398 4.667 6.881
# diagonal-C6 Ag 268.61 268.61 268.61 268.61 268.61 268.61 268.61 268.61 268.61 268.61
EvdW_6 =   -0.055042
EvdW_8 =   -0.079080

-------- Electronic minimization -----------
	FillingsUpdate:  mu: +0.118627641  nElectrons: 190.000000  magneticMoment: [ Abs: 0.00000  Tot: -0.00000 ]
ElecMinimize: Iter:   0  F: -1476.074395335673671  |grad|_K:  4.785e-07  alpha:  1.000e+00
	FillingsUpdate:  mu: +0.118490417  nElectrons: 190.000000  magneticMoment: [ Abs: 0.00000  Tot: -0.00000 ]
	SubspaceRotationAdjust: set factor to 0.307
ElecMinimize: Iter:   1  F: -1476.074430562015323  |grad|_K:  5.610e-07  alpha:  7.393e-01  linmin: -1.822e-08  t[s]:   1279.27
	FillingsUpdate:  mu: +0.118508396  nElectrons: 190.000000  magneticMoment: [ Abs: 0.00000  Tot: -0.00000 ]
	SubspaceRotationAdjust: set factor to 0.268
ElecMinimize: Iter:   2  F: -1476.074457798574485  |grad|_K:  5.198e-07  alpha:  4.159e-01  linmin:  4.224e-07  t[s]:   1307.44
	FillingsUpdate:  mu: +0.118618926  nElectrons: 190.000000  magneticMoment: [ Abs: 0.00000  Tot: +0.00000 ]
	SubspaceRotationAdjust: set factor to 0.219
ElecMinimize: Iter:   3  F: -1476.074481708845951  |grad|_K:  3.232e-07  alpha:  4.254e-01  linmin: -6.514e-07  t[s]:   1335.40
	FillingsUpdate:  mu: +0.118522355  nElectrons: 190.000000  magneticMoment: [ Abs: 0.00000  Tot: +0.00000 ]
	SubspaceRotationAdjust: set factor to 0.222
ElecMinimize: Iter:   4  F: -1476.074489123462172  |grad|_K:  1.847e-07  alpha:  3.410e-01  linmin:  2.202e-07  t[s]:   1363.48
	FillingsUpdate:  mu: +0.118480742  nElectrons: 190.000000  magneticMoment: [ Abs: 0.00000  Tot: +0.00000 ]
	SubspaceRotationAdjust: set factor to 0.235
ElecMinimize: Iter:   5  F: -1476.074491528893077  |grad|_K:  9.863e-08  alpha:  3.390e-01  linmin: -6.312e-07  t[s]:   1391.56
	FillingsUpdate:  mu: +0.118540289  nElectrons: 190.000000  magneticMoment: [ Abs: 0.00000  Tot: +0.00000 ]
	SubspaceRotationAdjust: set factor to 0.215
ElecMinimize: Iter:   6  F: -1476.074492289711316  |grad|_K:  5.812e-08  alpha:  3.759e-01  linmin:  6.173e-06  t[s]:   1419.69
	FillingsUpdate:  mu: +0.118538489  nElectrons: 190.000000  magneticMoment: [ Abs: 0.00000  Tot: +0.00000 ]
	SubspaceRotationAdjust: set factor to 0.197
ElecMinimize: Iter:   7  F: -1476.074492553766277  |grad|_K:  3.340e-08  alpha:  3.756e-01  linmin: -1.385e-06  t[s]:   1448.09
	FillingsUpdate:  mu: +0.118521815  nElectrons: 190.000000  magneticMoment: [ Abs: 0.00000  Tot: +0.00000 ]
	SubspaceRotationAdjust: set factor to 0.196
ElecMinimize: Iter:   8  F: -1476.074492649039030  |grad|_K:  2.160e-08  alpha:  4.105e-01  linmin:  1.963e-05  t[s]:   1476.19
	FillingsUpdate:  mu: +0.118523506  nElectrons: 190.000000  magneticMoment: [ Abs: 0.00000  Tot: +0.00000 ]
	SubspaceRotationAdjust: set factor to 0.215
ElecMinimize: Iter:   9  F: -1476.074492683074141  |grad|_K:  1.363e-08  alpha:  3.500e-01  linmin:  1.608e-05  t[s]:   1504.46
ElecMinimize: Converged (|Delta F|<1.000000e-07 for 2 iters).
Setting wave functions to eigenvectors of Hamiltonian
Converging empty states (this may take a while): |deigs|: 6.714e-08

Computing DFT-D3 correction:
# coordination-number Ag 8.398 9.168 9.156 6.882 4.667 9.156 9.168 8.398 4.667 6.881
# diagonal-C6 Ag 268.61 268.61 268.61 268.61 268.61 268.61 268.61 268.61 268.61 268.61
EvdW_6 =   -0.055042
EvdW_8 =   -0.079080

# Ionic positions in cartesian coordinates:
ion Ag   3.832981526515808   1.716247603525742  12.875778657452752 1
ion Ag  -0.000199594162322   3.427134812377463   9.424153297111550 1
ion Ag   3.832840911899718   5.142844679321470   6.000721441141875 1
ion Ag   0.000335023480468   6.858377159613392   2.555629275832723 1
ion Ag   0.000126979121972  -0.000560367682895  16.276492900997361 1
ion Ag   3.833020458523700   6.855856768068474  11.140183269622900 1
ion Ag   3.832952159711718   0.001057472561368   7.716640714099852 1
ion Ag  -0.000390670091813   1.711922062495480   4.265177163494317 1
ion Ag   3.832633153637733   3.428738064064252   0.864622507277803 1
ion Ag  -0.000132948636979   5.140295745655255  14.585395772968864 1

# Forces in Cartesian coordinates:
force Ag   0.000038707403222   0.000760729806484   0.005672904384332 1
force Ag  -0.000053919904859  -0.000443757909234  -0.000743223683714 1
force Ag   0.000004474498884   0.000256411953488   0.000303918957797 1
force Ag   0.000085029782662   0.000554080615589  -0.004503097386305 1
force Ag   0.000034142474239  -0.000326646666986  -0.002015425502538 1
force Ag   0.000043125842180  -0.000254765398590  -0.000244788255482 1
force Ag   0.000031389121710   0.000438656270922   0.000816628564879 1
force Ag  -0.000109530959167  -0.000764812283602  -0.005635021899351 1
force Ag  -0.000063318890975   0.000321561185116   0.002009032042518 1
force Ag  -0.000030009220515  -0.000549662032857   0.004518261149069 1

# Energy components:
   Eewald =     5548.6576500934452270
       EH =     6881.0173196417144936
     Eloc =   -14137.6932039250696107
      Enl =       39.4627702422301923
     EvdW =       -0.1341218898175786
      Exc =     -144.8707019340713771
 Exc_core =        2.0817052714061459
       KE =      335.4043603594348042
-------------------------------------
     Etot =    -1476.0742221407285797
       TS =        0.0002705423456740
-------------------------------------
        F =    -1476.0744926830741406


Dumping 'jdft.fillings' ... done
Dumping 'jdft.wfns' ... done
Dumping 'jdft.ionpos' ... done
Dumping 'jdft.lattice' ... done
Dumping 'jdft.eigenvals' ... done
Dumping 'jdft.eigStats' ... 
	eMin: -3.266183 at state 0 ( [ +0.000000 +0.000000 +0.000000 ] spin 1 )
	HOMO: +0.118274 at state 116 ( [ -0.222222 -0.428571 +0.000000 ] spin -1 )
	mu  : +0.118524
	LUMO: +0.119386 at state 24 ( [ +0.333333 +0.428571 +0.000000 ] spin 1 )
	eMax: +0.413795 at state 53 ( [ -0.222222 -0.428571 +0.000000 ] spin 1 )
	HOMO-LUMO gap: +0.001112
	Optical gap  : +0.006664 at state 36 ( [ -0.444444 +0.142857 +0.000000 ] spin 1 )
Dumping 'jdft.Ecomponents' ... done
IonicMinimize: Iter:   1  F: -1476.074492683074141  |grad|_K:  1.972e-03  alpha:  3.000e+00  linmin: -9.987e-01  t[s]:   1533.20

#--- Lowdin population analysis ---
# oxidation-state Ag -0.067 -0.001 -0.034 -0.030 +0.159 -0.034 -0.001 -0.067 +0.159 -0.030
# magnetic-moments Ag -0.000 -0.000 -0.000 -0.000 -0.000 +0.000 +0.000 +0.000 +0.000 +0.000


Computing DFT-D3 correction:
# coordination-number Ag 8.303 8.982 9.014 6.821 4.825 9.033 8.974 8.283 4.812 6.839
# diagonal-C6 Ag 268.61 268.61 268.61 268.61 268.61 268.61 268.61 268.61 268.61 268.61
EvdW_6 =   -0.054750
EvdW_8 =   -0.078597

-------- Electronic minimization -----------
	FillingsUpdate:  mu: +0.301820952  nElectrons: 190.000000  magneticMoment: [ Abs: 0.00000  Tot: +0.00000 ]
ElecMinimize: Iter:   0  F: -1474.550895449293876  |grad|_K:  1.624e-04  alpha:  1.000e+00
	FillingsUpdate:  mu: +0.069530630  nElectrons: 190.000000  magneticMoment: [ Abs: 0.00000  Tot: -0.00000 ]
	SubspaceRotationAdjust: set factor to 0.186
ElecMinimize: Iter:   1  F: -1475.914931427232432  |grad|_K:  4.717e-05  alpha:  2.708e-01  linmin:  1.144e-02  t[s]:   1584.16
	FillingsUpdate:  mu: +0.083312827  nElectrons: 190.000000  magneticMoment: [ Abs: 0.00000  Tot: -0.00000 ]
	SubspaceRotationAdjust: set factor to 0.276
ElecMinimize: Iter:   2  F: -1476.026900025812893  |grad|_K:  1.585e-05  alpha:  2.617e-01  linmin: -1.194e-04  t[s]:   1612.51
	FillingsUpdate:  mu: +0.113014075  nElectrons: 190.000000  magneticMoment: [ Abs: 0.00000  Tot: +0.00000 ]
	SubspaceRotationAdjust: set factor to 0.346
ElecMinimize: Iter:   3  F: -1476.044938712019757  |grad|_K:  9.611e-06  alpha:  3.442e-01  linmin: -1.483e-04  t[s]:   1640.62
	FillingsUpdate:  mu: +0.124278610  nElectrons: 190.000000  magneticMoment: [ Abs: 0.00000  Tot: +0.00000 ]
	SubspaceRotationAdjust: set factor to 0.44
ElecMinimize: Iter:   4  F: -1476.055409568172990  |grad|_K:  9.942e-06  alpha:  5.411e-01  linmin: -1.650e-05  t[s]:   1669.00
	FillingsUpdate:  mu: +0.120261395  nElectrons: 190.000000  magneticMoment: [ Abs: 0.00000  Tot: +0.00000 ]
	SubspaceRotationAdjust: set factor to 0.566
ElecMinimize: Iter:   5  F: -1476.066100837939530  |grad|_K:  7.646e-06  alpha:  5.187e-01  linmin: -3.447e-05  t[s]:   1697.38
	FillingsUpdate:  mu: +0.121986645  nElectrons: 190.000000  magneticMoment: [ Abs: 0.00000  Tot: +0.00000 ]
	SubspaceRotationAdjust: set factor to 0.64
ElecMinimize: Iter:   6  F: -1476.071922688897303  |grad|_K:  5.884e-06  alpha:  4.752e-01  linmin:  1.729e-06  t[s]:   1725.67
	FillingsUpdate:  mu: +0.118830651  nElectrons: 190.000000  magneticMoment: [ Abs: 0.00000  Tot: +0.00000 ]
	SubspaceRotationAdjust: set factor to 0.592
ElecMinimize: Iter:   7  F: -1476.074219036848945  |grad|_K:  4.207e-06  alpha:  3.176e-01  linmin: -8.011e-07  t[s]:   1754.01
	FillingsUpdate:  mu: +0.117705814  nElectrons: 190.000000  magneticMoment: [ Abs: 0.00000  Tot: +0.00000 ]
	SubspaceRotationAdjust: set factor to 0.386
ElecMinimize: Iter:   8  F: -1476.074855021651274  |grad|_K:  3.457e-06  alpha:  1.725e-01  linmin: -1.970e-06  t[s]:   1782.06
	FillingsUpdate:  mu: +0.117561166  nElectrons: 190.000000  magneticMoment: [ Abs: 0.00000  Tot: +0.00000 ]
	SubspaceRotationAdjust: set factor to 0.354
ElecMinimize: Iter:   9  F: -1476.075369091943230  |grad|_K:  1.695e-06  alpha:  2.067e-01  linmin: -2.767e-06  t[s]:   1810.53
	FillingsUpdate:  mu: +0.118169735  nElectrons: 190.000000  magneticMoment: [ Abs: 0.00000  Tot: +0.00000 ]
	SubspaceRotationAdjust: set factor to 0.395
ElecMinimize: Iter:  10  F: -1476.075578982554589  |grad|_K:  1.218e-06  alpha:  3.511e-01  linmin:  5.440e-06  t[s]:   1838.99
	FillingsUpdate:  mu: +0.118081925  nElectrons: 190.000000  magneticMoment: [ Abs: 0.00000  Tot: +0.00000 ]
	SubspaceRotationAdjust: set factor to 0.343
ElecMinimize: Iter:  11  F: -1476.075663549773481  |grad|_K:  9.465e-07  alpha:  2.741e-01  linmin:  2.555e-06  t[s]:   1867.32
	FillingsUpdate:  mu: +0.117834468  nElectrons: 190.000000  magneticMoment: [ Abs: 0.00000  Tot: +0.00000 ]
	SubspaceRotationAdjust: set factor to 0.385
ElecMinimize: Iter:  12  F: -1476.075715590685604  |grad|_K:  6.349e-07  alpha:  2.792e-01  linmin:  3.298e-07  t[s]:   1895.64
	FillingsUpdate:  mu: +0.117911744  nElectrons: 190.000000  magneticMoment: [ Abs: 0.00000  Tot: +0.00000 ]
	SubspaceRotationAdjust: set factor to 0.524
ElecMinimize: Iter:  13  F: -1476.075750981657166  |grad|_K:  4.947e-07  alpha:  4.219e-01  linmin: -2.284e-06  t[s]:   1924.00
	FillingsUpdate:  mu: +0.117984075  nElectrons: 190.000000  magneticMoment: [ Abs: 0.00000  Tot: +0.00000 ]
	SubspaceRotationAdjust: set factor to 0.458
ElecMinimize: Iter:  14  F: -1476.075768573763071  |grad|_K:  5.108e-07  alpha:  3.454e-01  linmin: -5.868e-08  t[s]:   1952.30
	FillingsUpdate:  mu: +0.118022879  nElectrons: 190.000000  magneticMoment: [ Abs: 0.00000  Tot: +0.00000 ]
	SubspaceRotationAdjust: set factor to 0.362
ElecMinimize: Iter:  15  F: -1476.075779850240679  |grad|_K:  3.521e-07  alpha:  2.077e-01  linmin:  8.579e-08  t[s]:   1980.67
	FillingsUpdate:  mu: +0.118032318  nElectrons: 190.000000  magneticMoment: [ Abs: 0.00000  Tot: +0.00000 ]
	SubspaceRotationAdjust: set factor to 0.398
ElecMinimize: Iter:  16  F: -1476.075788797857740  |grad|_K:  2.408e-07  alpha:  3.468e-01  linmin: -1.789e-06  t[s]:   2009.22
	FillingsUpdate:  mu: +0.118066031  nElectrons: 190.000000  magneticMoment: [ Abs: 0.00000  Tot: +0.00000 ]
	SubspaceRotationAdjust: set factor to 0.392
ElecMinimize: Iter:  17  F: -1476.075792938190261  |grad|_K:  1.663e-07  alpha:  3.430e-01  linmin:  8.396e-08  t[s]:   2037.78
	FillingsUpdate:  mu: +0.118095442  nElectrons: 190.000000  magneticMoment: [ Abs: 0.00000  Tot: +0.00000 ]
	SubspaceRotationAdjust: set factor to 0.296
ElecMinimize: Iter:  18  F: -1476.075794579721332  |grad|_K:  1.358e-07  alpha:  2.852e-01  linmin:  8.195e-08  t[s]:   2066.85
	FillingsUpdate:  mu: +0.118094494  nElectrons: 190.000000  magneticMoment: [ Abs: 0.00000  Tot: +0.00000 ]
	SubspaceRotationAdjust: set factor to 0.263
ElecMinimize: Iter:  19  F: -1476.075795565861881  |grad|_K:  7.889e-08  alpha:  2.569e-01  linmin: -5.379e-07  t[s]:   2095.25
	FillingsUpdate:  mu: +0.118063693  nElectrons: 190.000000  magneticMoment: [ Abs: 0.00000  Tot: +0.00000 ]
	SubspaceRotationAdjust: set factor to 0.316
ElecMinimize: Iter:  20  F: -1476.075796059904633  |grad|_K:  5.664e-08  alpha:  3.816e-01  linmin:  1.393e-05  t[s]:   2123.50
	FillingsUpdate:  mu: +0.118052305  nElectrons: 190.000000  magneticMoment: [ Abs: 0.00000  Tot: +0.00000 ]
	SubspaceRotationAdjust: set factor to 0.313
ElecMinimize: Iter:  21  F: -1476.075796281561225  |grad|_K:  4.395e-08  alpha:  3.321e-01  linmin:  3.038e-06  t[s]:   2151.70
	FillingsUpdate:  mu: +0.118058685  nElectrons: 190.000000  magneticMoment: [ Abs: 0.00000  Tot: +0.00000 ]
	SubspaceRotationAdjust: set factor to 0.36
ElecMinimize: Iter:  22  F: -1476.075796423257088  |grad|_K:  3.352e-08  alpha:  3.529e-01  linmin: -1.448e-06  t[s]:   2180.08
	FillingsUpdate:  mu: +0.118061136  nElectrons: 190.000000  magneticMoment: [ Abs: 0.00000  Tot: +0.00000 ]
	SubspaceRotationAdjust: set factor to 0.468
ElecMinimize: Iter:  23  F: -1476.075796521738084  |grad|_K:  2.707e-08  alpha:  4.209e-01  linmin: -1.863e-06  t[s]:   2208.46
	FillingsUpdate:  mu: +0.118051579  nElectrons: 190.000000  magneticMoment: [ Abs: 0.00000  Tot: +0.00000 ]
	SubspaceRotationAdjust: set factor to 0.499
ElecMinimize: Iter:  24  F: -1476.075796581378199  |grad|_K:  2.511e-08  alpha:  3.911e-01  linmin:  1.583e-06  t[s]:   2236.82
ElecMinimize: Converged (|Delta F|<1.000000e-07 for 2 iters).
Setting wave functions to eigenvectors of Hamiltonian
Converging empty states (this may take a while): |deigs|: 1.379e-05

Computing DFT-D3 correction:
# coordination-number Ag 8.303 8.982 9.014 6.821 4.825 9.033 8.974 8.283 4.812 6.839
# diagonal-C6 Ag 268.61 268.61 268.61 268.61 268.61 268.61 268.61 268.61 268.61 268.61
EvdW_6 =   -0.054750
EvdW_8 =   -0.078597

# Ionic positions in cartesian coordinates:
ion Ag   3.833602869744362   1.742028586553985  12.972270393158428 1
ion Ag  -0.000728367741284   3.407601532273141   9.426379007406835 1
ion Ag   3.833323737330297   5.155483067962686   5.997353557237708 1
ion Ag   0.001185090820961   6.867250675287528   2.466281610013880 1
ion Ag   0.000771612097823  -0.019963231033840  16.246878955142993 1
ion Ag   3.833153335779290   6.842814574155224  11.147852001530255 1
ion Ag   3.833527766315627   0.020216445044869   7.721500998390039 1
ion Ag  -0.002012697408041   1.686417229404652   4.168497938650535 1
ion Ag   3.831198030715095   3.448107339648240   0.887118174997172 1
ion Ag   0.000145622345873   5.131957780703516  14.670662363472154 1

# Forces in Cartesian coordinates:
force Ag  -0.000004225457573  -0.000171034980392   0.001367128135417 1
force Ag  -0.000006736533581   0.000297121185385  -0.000622852668009 1
force Ag   0.000009501786336   0.000046123140044  -0.000147127312236 1
force Ag  -0.000026193690772   0.000044096114348  -0.001786596281215 1
force Ag   0.000012550811659  -0.000529270202335   0.000423398914216 1
force Ag   0.000012640295064  -0.000046957405394  -0.000322553296206 1
force Ag  -0.000017786205491  -0.000316595571604  -0.000014936640040 1
force Ag  -0.000013776981844   0.000180666722319  -0.001450587704706 1
force Ag  -0.000008896596346   0.000564771978365  -0.000135041980168 1
force Ag   0.000030438632419  -0.000083883172518   0.001886621183708 1

# Energy components:
   Eewald =     5507.3737391917993591
       EH =     6839.7248992780387198
     Eloc =   -14055.1062349130752409
      Enl =       39.4631442524504621
     EvdW =       -0.1333475839798951
      Exc =     -144.8611493563144563
 Exc_core =        2.0817048030914829
       KE =      335.3817357778847281
-------------------------------------
     Etot =    -1476.0755085501054964
       TS =        0.0002880312727040
-------------------------------------
        F =    -1476.0757965813781993


Dumping 'jdft.fillings' ... done
Dumping 'jdft.wfns' ... done
Dumping 'jdft.ionpos' ... done
Dumping 'jdft.lattice' ... done
Dumping 'jdft.eigenvals' ... done
Dumping 'jdft.eigStats' ... 
	eMin: -3.265599 at state 63 ( [ +0.000000 +0.000000 +0.000000 ] spin -1 )
	HOMO: +0.118012 at state 109 ( [ -0.333333 -0.428571 +0.000000 ] spin -1 )
	mu  : +0.118052
	LUMO: +0.118125 at state 47 ( [ -0.333333 -0.285714 +0.000000 ] spin 1 )
	eMax: +0.413785 at state 53 ( [ -0.222222 -0.428571 +0.000000 ] spin 1 )
	HOMO-LUMO gap: +0.000113
	Optical gap  : +0.006018 at state 97 ( [ +0.444444 -0.142857 +0.000000 ] spin -1 )
Dumping 'jdft.Ecomponents' ... done
IonicMinimize: Iter:   2  F: -1476.075796581378199  |grad|_K:  6.387e-04  alpha:  8.022e-01  linmin: -8.353e-01  t[s]:   2292.10

#--- Lowdin population analysis ---
# oxidation-state Ag -0.067 +0.001 -0.032 -0.026 +0.151 -0.033 +0.001 -0.066 +0.152 -0.026
# magnetic-moments Ag -0.000 +0.000 +0.000 -0.000 +0.000 -0.000 -0.000 +0.000 +0.000 +0.000


Computing DFT-D3 correction:
# coordination-number Ag 8.194 8.872 8.954 6.763 4.846 8.938 8.878 8.211 4.853 6.751
# diagonal-C6 Ag 268.61 268.61 268.61 268.61 268.61 268.61 268.61 268.61 268.61 268.61
EvdW_6 =   -0.054536
EvdW_8 =   -0.078289

-------- Electronic minimization -----------
	FillingsUpdate:  mu: +0.227608307  nElectrons: 190.000000  magneticMoment: [ Abs: 0.00000  Tot: +0.00000 ]
ElecMinimize: Iter:   0  F: -1475.582426006697233  |grad|_K:  9.781e-05  alpha:  1.000e+00
	FillingsUpdate:  mu: +0.063895002  nElectrons: 190.000000  magneticMoment: [ Abs: 0.00000  Tot: +0.00000 ]
	SubspaceRotationAdjust: set factor to 0.268
ElecMinimize: Iter:   1  F: -1476.006555847485515  |grad|_K:  3.025e-05  alpha:  2.101e-01  linmin: -7.814e-04  t[s]:   2342.88
	FillingsUpdate:  mu: +0.105008410  nElectrons: 190.000000  magneticMoment: [ Abs: 0.00000  Tot: -0.00000 ]
	SubspaceRotationAdjust: set factor to 0.246
ElecMinimize: Iter:   2  F: -1476.059057198932351  |grad|_K:  1.351e-05  alpha:  2.730e-01  linmin: -1.531e-04  t[s]:   2371.24
	FillingsUpdate:  mu: +0.115637758  nElectrons: 190.000000  magneticMoment: [ Abs: 0.00000  Tot: -0.00000 ]
	SubspaceRotationAdjust: set factor to 0.191
ElecMinimize: Iter:   3  F: -1476.067700345593948  |grad|_K:  5.943e-06  alpha:  2.269e-01  linmin: -8.659e-05  t[s]:   2399.66
	FillingsUpdate:  mu: +0.114496220  nElectrons: 190.000000  magneticMoment: [ Abs: 0.00000  Tot: -0.00000 ]
	SubspaceRotationAdjust: set factor to 0.258
ElecMinimize: Iter:   4  F: -1476.071104656589341  |grad|_K:  4.148e-06  alpha:  4.618e-01  linmin: -1.280e-05  t[s]:   2427.79
	FillingsUpdate:  mu: +0.116507700  nElectrons: 190.000000  magneticMoment: [ Abs: 0.00000  Tot: -0.00000 ]
	SubspaceRotationAdjust: set factor to 0.31
ElecMinimize: Iter:   5  F: -1476.072874853923167  |grad|_K:  3.958e-06  alpha:  4.940e-01  linmin:  2.032e-07  t[s]:   2456.02
	FillingsUpdate:  mu: +0.119310932  nElectrons: 190.000000  magneticMoment: [ Abs: 0.00000  Tot: -0.00000 ]
	SubspaceRotationAdjust: set factor to 0.372
ElecMinimize: Iter:   6  F: -1476.074232036871081  |grad|_K:  2.925e-06  alpha:  4.165e-01  linmin: -3.781e-06  t[s]:   2484.39
	FillingsUpdate:  mu: +0.119371468  nElectrons: 190.000000  magneticMoment: [ Abs: 0.00000  Tot: +0.00000 ]
	SubspaceRotationAdjust: set factor to 0.397
ElecMinimize: Iter:   7  F: -1476.075167624462892  |grad|_K:  2.672e-06  alpha:  5.249e-01  linmin: -4.227e-06  t[s]:   2512.74
	FillingsUpdate:  mu: +0.118616036  nElectrons: 190.000000  magneticMoment: [ Abs: 0.00000  Tot: +0.00000 ]
	SubspaceRotationAdjust: set factor to 0.345
ElecMinimize: Iter:   8  F: -1476.075617021261223  |grad|_K:  1.945e-06  alpha:  3.019e-01  linmin: -2.291e-06  t[s]:   2540.93
	FillingsUpdate:  mu: +0.118071191  nElectrons: 190.000000  magneticMoment: [ Abs: 0.00000  Tot: +0.00000 ]
	SubspaceRotationAdjust: set factor to 0.259
ElecMinimize: Iter:   9  F: -1476.075855140824615  |grad|_K:  1.201e-06  alpha:  3.024e-01  linmin:  1.840e-07  t[s]:   2569.06
	FillingsUpdate:  mu: +0.118041909  nElectrons: 190.000000  magneticMoment: [ Abs: 0.00000  Tot: +0.00000 ]
	SubspaceRotationAdjust: set factor to 0.223
ElecMinimize: Iter:  10  F: -1476.075949052229362  |grad|_K:  7.623e-07  alpha:  3.130e-01  linmin:  6.709e-07  t[s]:   2597.20
	FillingsUpdate:  mu: +0.118017413  nElectrons: 190.000000  magneticMoment: [ Abs: 0.00000  Tot: +0.00000 ]
	SubspaceRotationAdjust: set factor to 0.25
ElecMinimize: Iter:  11  F: -1476.075992921025318  |grad|_K:  4.698e-07  alpha:  3.629e-01  linmin:  1.140e-06  t[s]:   2625.36
	FillingsUpdate:  mu: +0.117835475  nElectrons: 190.000000  magneticMoment: [ Abs: 0.00000  Tot: +0.00000 ]
	SubspaceRotationAdjust: set factor to 0.241
ElecMinimize: Iter:  12  F: -1476.076008962719015  |grad|_K:  2.896e-07  alpha:  3.494e-01  linmin:  4.004e-07  t[s]:   2653.56
	FillingsUpdate:  mu: +0.117715538  nElectrons: 190.000000  magneticMoment: [ Abs: 0.00000  Tot: +0.00000 ]
	SubspaceRotationAdjust: set factor to 0.222
ElecMinimize: Iter:  13  F: -1476.076015411904564  |grad|_K:  1.903e-07  alpha:  3.695e-01  linmin:  8.039e-07  t[s]:   2681.68
	FillingsUpdate:  mu: +0.117708689  nElectrons: 190.000000  magneticMoment: [ Abs: 0.00000  Tot: +0.00000 ]
	SubspaceRotationAdjust: set factor to 0.253
ElecMinimize: Iter:  14  F: -1476.076018186397732  |grad|_K:  1.255e-07  alpha:  3.683e-01  linmin:  1.227e-06  t[s]:   2709.72
	FillingsUpdate:  mu: +0.117700371  nElectrons: 190.000000  magneticMoment: [ Abs: 0.00000  Tot: +0.00000 ]
	SubspaceRotationAdjust: set factor to 0.295
ElecMinimize: Iter:  15  F: -1476.076019458181690  |grad|_K:  9.013e-08  alpha:  3.880e-01  linmin: -2.728e-07  t[s]:   2737.88
	FillingsUpdate:  mu: +0.117669793  nElectrons: 190.000000  magneticMoment: [ Abs: 0.00000  Tot: -0.00000 ]
	SubspaceRotationAdjust: set factor to 0.313
ElecMinimize: Iter:  16  F: -1476.076020160516919  |grad|_K:  7.089e-08  alpha:  4.155e-01  linmin: -1.277e-06  t[s]:   2766.03
	FillingsUpdate:  mu: +0.117655920  nElectrons: 190.000000  magneticMoment: [ Abs: 0.00000  Tot: -0.00000 ]
	SubspaceRotationAdjust: set factor to 0.353
ElecMinimize: Iter:  17  F: -1476.076020564748205  |grad|_K:  5.615e-08  alpha:  3.866e-01  linmin:  1.332e-06  t[s]:   2794.30
	FillingsUpdate:  mu: +0.117669573  nElectrons: 190.000000  magneticMoment: [ Abs: 0.00000  Tot: -0.00000 ]
	SubspaceRotationAdjust: set factor to 0.426
ElecMinimize: Iter:  18  F: -1476.076020861578627  |grad|_K:  4.360e-08  alpha:  4.526e-01  linmin:  9.954e-08  t[s]:   2822.60
	FillingsUpdate:  mu: +0.117682436  nElectrons: 190.000000  magneticMoment: [ Abs: 0.00000  Tot: -0.00000 ]
	SubspaceRotationAdjust: set factor to 0.49
ElecMinimize: Iter:  19  F: -1476.076021021298402  |grad|_K:  3.246e-08  alpha:  4.039e-01  linmin: -2.989e-07  t[s]:   2850.76
	FillingsUpdate:  mu: +0.117676426  nElectrons: 190.000000  magneticMoment: [ Abs: 0.00000  Tot: -0.00000 ]
	SubspaceRotationAdjust: set factor to 0.497
ElecMinimize: Iter:  20  F: -1476.076021111248110  |grad|_K:  2.409e-08  alpha:  4.102e-01  linmin: -3.303e-06  t[s]:   2878.84
	FillingsUpdate:  mu: +0.117680707  nElectrons: 190.000000  magneticMoment: [ Abs: 0.00000  Tot: +0.00000 ]
	SubspaceRotationAdjust: set factor to 0.38
ElecMinimize: Iter:  21  F: -1476.076021146135872  |grad|_K:  2.144e-08  alpha:  2.883e-01  linmin: -6.779e-06  t[s]:   2906.91
ElecMinimize: Converged (|Delta F|<1.000000e-07 for 2 iters).
Setting wave functions to eigenvectors of Hamiltonian
Converging empty states (this may take a while): |deigs|: 1.480e-06

Computing DFT-D3 correction:
# coordination-number Ag 8.194 8.872 8.954 6.763 4.846 8.938 8.878 8.211 4.853 6.751
# diagonal-C6 Ag 268.61 268.61 268.61 268.61 268.61 268.61 268.61 268.61 268.61 268.61
EvdW_6 =   -0.054536
EvdW_8 =   -0.078289

# Ionic positions in cartesian coordinates:
ion Ag   3.833446100015146   1.741717650805425  13.013933063434328 1
ion Ag  -0.000706421316738   3.412123051051175   9.416446087424742 1
ion Ag   3.833823548269658   5.160431607893874   5.991391607689709 1
ion Ag   0.000050511731567   6.868021144721594   2.410197893253711 1
ion Ag   0.001194398435513  -0.042538690256954  16.266587447185316 1
ion Ag   3.833279573675721   6.837729564700513  11.145717215676738 1
ion Ag   3.832981536131744   0.015036442116967   7.719117949897012 1
ion Ag  -0.002236052037615   1.687269911323597   4.129177534866967 1
ion Ag   3.830830186275591   3.471916302237745   0.878849536343364 1
ion Ag   0.001503618819414   5.130207015406067  14.733376664228109 1

# Forces in Cartesian coordinates:
force Ag   0.000038924900280   0.000042142914069   0.000120655150367 1
force Ag  -0.000021172271623  -0.000443336578872   0.000468812603460 1
force Ag  -0.000017042468908  -0.000023436719417  -0.000716867310814 1
force Ag  -0.000004772039913   0.000814825218766  -0.000616157745365 1
force Ag   0.000006794146554  -0.000057072848446   0.000263570535566 1
force Ag  -0.000008635792465   0.000083297754772   0.000725754296521 1
force Ag   0.000034333603704   0.000456397758556  -0.000387194102111 1
force Ag  -0.000022182190598  -0.000131454635623  -0.000422121162245 1
force Ag   0.000008525290419  -0.000003253874702  -0.000608671041804 1
force Ag  -0.000003365198463  -0.000736407159742   0.000328288386872 1

# Energy components:
   Eewald =     5473.6790386762086200
       EH =     6806.0629170026504653
     Eloc =   -13987.7432668859382829
      Enl =       39.4665815761367185
     EvdW =       -0.1328246107811772
      Exc =     -144.8524733502791264
 Exc_core =        2.0817048957187483
       KE =      335.3625803788874009
-------------------------------------
     Etot =    -1476.0757423173963616
       TS =        0.0002788287396074
-------------------------------------
        F =    -1476.0760211461358722


Dumping 'jdft.fillings' ... done
Dumping 'jdft.wfns' ... done
Dumping 'jdft.ionpos' ... done
Dumping 'jdft.lattice' ... done
Dumping 'jdft.eigenvals' ... done
Dumping 'jdft.eigStats' ... 
	eMin: -3.265286 at state 0 ( [ +0.000000 +0.000000 +0.000000 ] spin 1 )
	HOMO: +0.117599 at state 87 ( [ +0.333333 +0.428571 +0.000000 ] spin -1 )
	mu  : +0.117681
	LUMO: +0.119347 at state 17 ( [ +0.222222 +0.428571 +0.000000 ] spin 1 )
	eMax: +0.413504 at state 80 ( [ +0.222222 +0.428571 +0.000000 ] spin -1 )
	HOMO-LUMO gap: +0.001748
	Optical gap  : +0.005901 at state 99 ( [ -0.444444 +0.142857 +0.000000 ] spin -1 )
Dumping 'jdft.Ecomponents' ... done
IonicMinimize: Iter:   3  F: -1476.076021146135872  |grad|_K:  3.699e-04  alpha:  1.000e+00  linmin: -3.733e-01  t[s]:   2953.17

#--- Lowdin population analysis ---
# oxidation-state Ag -0.066 +0.002 -0.031 -0.024 +0.147 -0.031 +0.002 -0.065 +0.148 -0.025
# magnetic-moments Ag +0.000 -0.000 +0.000 -0.000 -0.000 +0.000 -0.000 +0.000 -0.000 +0.000


Computing DFT-D3 correction:
# coordination-number Ag 8.153 8.766 8.853 6.718 4.861 8.845 8.772 8.162 4.868 6.708
# diagonal-C6 Ag 268.61 268.61 268.61 268.61 268.61 268.61 268.61 268.61 268.61 268.61
EvdW_6 =   -0.054322
EvdW_8 =   -0.077990

-------- Electronic minimization -----------
	FillingsUpdate:  mu: +0.224114897  nElectrons: 190.000000  magneticMoment: [ Abs: 0.00000  Tot: +0.00000 ]
ElecMinimize: Iter:   0  F: -1475.680455634438204  |grad|_K:  8.667e-05  alpha:  1.000e+00
	FillingsUpdate:  mu: +0.078698112  nElectrons: 190.000000  magneticMoment: [ Abs: 0.00000  Tot: -0.00000 ]
	SubspaceRotationAdjust: set factor to 0.204
ElecMinimize: Iter:   1  F: -1476.032637003452919  |grad|_K:  2.146e-05  alpha:  2.233e-01  linmin: -3.625e-04  t[s]:   3003.95
	FillingsUpdate:  mu: +0.108595525  nElectrons: 190.000000  magneticMoment: [ Abs: 0.00000  Tot: -0.00000 ]
	SubspaceRotationAdjust: set factor to 0.354
ElecMinimize: Iter:   2  F: -1476.065479573179800  |grad|_K:  7.828e-06  alpha:  3.419e-01  linmin:  1.478e-05  t[s]:   3032.15
	FillingsUpdate:  mu: +0.113609900  nElectrons: 190.000000  magneticMoment: [ Abs: 0.00000  Tot: -0.00000 ]
	SubspaceRotationAdjust: set factor to 0.453
ElecMinimize: Iter:   3  F: -1476.069493648509706  |grad|_K:  5.196e-06  alpha:  3.150e-01  linmin: -1.290e-05  t[s]:   3060.34
	FillingsUpdate:  mu: +0.120083158  nElectrons: 190.000000  magneticMoment: [ Abs: 0.00000  Tot: -0.00000 ]
	SubspaceRotationAdjust: set factor to 0.571
ElecMinimize: Iter:   4  F: -1476.072326483764527  |grad|_K:  4.548e-06  alpha:  5.031e-01  linmin: -2.318e-05  t[s]:   3088.46
	FillingsUpdate:  mu: +0.117155644  nElectrons: 190.000000  magneticMoment: [ Abs: 0.00000  Tot: -0.00000 ]
	SubspaceRotationAdjust: set factor to 0.728
ElecMinimize: Iter:   5  F: -1476.074558213834734  |grad|_K:  3.362e-06  alpha:  5.168e-01  linmin: -4.732e-06  t[s]:   3116.83
	FillingsUpdate:  mu: +0.119053762  nElectrons: 190.000000  magneticMoment: [ Abs: 0.00000  Tot: -0.00000 ]
	SubspaceRotationAdjust: set factor to 0.736
ElecMinimize: Iter:   6  F: -1476.075450065010045  |grad|_K:  2.702e-06  alpha:  3.790e-01  linmin: -9.396e-07  t[s]:   3145.10
	FillingsUpdate:  mu: +0.118764733  nElectrons: 190.000000  magneticMoment: [ Abs: 0.00000  Tot: -0.00000 ]
	SubspaceRotationAdjust: set factor to 0.52
ElecMinimize: Iter:   7  F: -1476.075687440760930  |grad|_K:  2.452e-06  alpha:  1.562e-01  linmin: -1.035e-06  t[s]:   3173.36
	FillingsUpdate:  mu: +0.117562156  nElectrons: 190.000000  magneticMoment: [ Abs: 0.00000  Tot: -0.00000 ]
	SubspaceRotationAdjust: set factor to 0.397
ElecMinimize: Iter:   8  F: -1476.075922111828277  |grad|_K:  1.129e-06  alpha:  1.875e-01  linmin:  4.124e-06  t[s]:   3201.51
	FillingsUpdate:  mu: +0.117406773  nElectrons: 190.000000  magneticMoment: [ Abs: 0.00000  Tot: -0.00000 ]
	SubspaceRotationAdjust: set factor to 0.421
ElecMinimize: Iter:   9  F: -1476.076010129402903  |grad|_K:  6.410e-07  alpha:  3.322e-01  linmin: -1.819e-06  t[s]:   3229.78
	FillingsUpdate:  mu: +0.117601826  nElectrons: 190.000000  magneticMoment: [ Abs: 0.00000  Tot: -0.00000 ]
	SubspaceRotationAdjust: set factor to 0.415
ElecMinimize: Iter:  10  F: -1476.076041046660976  |grad|_K:  4.484e-07  alpha:  3.616e-01  linmin:  2.026e-06  t[s]:   3258.84
	FillingsUpdate:  mu: +0.117538167  nElectrons: 190.000000  magneticMoment: [ Abs: 0.00000  Tot: -0.00000 ]
	SubspaceRotationAdjust: set factor to 0.335
ElecMinimize: Iter:  11  F: -1476.076051692113651  |grad|_K:  3.668e-07  alpha:  2.545e-01  linmin:  4.449e-07  t[s]:   3287.02
	FillingsUpdate:  mu: +0.117422714  nElectrons: 190.000000  magneticMoment: [ Abs: 0.00000  Tot: -0.00000 ]
	SubspaceRotationAdjust: set factor to 0.382
ElecMinimize: Iter:  12  F: -1476.076059763830926  |grad|_K:  2.186e-07  alpha:  2.883e-01  linmin:  8.127e-07  t[s]:   3315.33
	FillingsUpdate:  mu: +0.117472415  nElectrons: 190.000000  magneticMoment: [ Abs: 0.00000  Tot: +0.00000 ]
	SubspaceRotationAdjust: set factor to 0.502
ElecMinimize: Iter:  13  F: -1476.076064396971333  |grad|_K:  1.764e-07  alpha:  4.659e-01  linmin: -7.652e-07  t[s]:   3343.33
	FillingsUpdate:  mu: +0.117452875  nElectrons: 190.000000  magneticMoment: [ Abs: 0.00000  Tot: +0.00000 ]
	SubspaceRotationAdjust: set factor to 0.467
ElecMinimize: Iter:  14  F: -1476.076066822133043  |grad|_K:  1.646e-07  alpha:  3.745e-01  linmin:  7.154e-08  t[s]:   3371.32
	FillingsUpdate:  mu: +0.117444413  nElectrons: 190.000000  magneticMoment: [ Abs: 0.00000  Tot: +0.00000 ]
	SubspaceRotationAdjust: set factor to 0.347
ElecMinimize: Iter:  15  F: -1476.076068004996159  |grad|_K:  1.279e-07  alpha:  2.099e-01  linmin:  1.269e-08  t[s]:   3399.44
	FillingsUpdate:  mu: +0.117469202  nElectrons: 190.000000  magneticMoment: [ Abs: 0.00000  Tot: +0.00000 ]
	SubspaceRotationAdjust: set factor to 0.372
ElecMinimize: Iter:  16  F: -1476.076069111910101  |grad|_K:  7.653e-08  alpha:  3.252e-01  linmin: -4.683e-07  t[s]:   3427.71
	FillingsUpdate:  mu: +0.117494460  nElectrons: 190.000000  magneticMoment: [ Abs: 0.00000  Tot: +0.00000 ]
	SubspaceRotationAdjust: set factor to 0.376
ElecMinimize: Iter:  17  F: -1476.076069574705798  |grad|_K:  5.304e-08  alpha:  3.799e-01  linmin:  1.048e-06  t[s]:   3455.86
	FillingsUpdate:  mu: +0.117493481  nElectrons: 190.000000  magneticMoment: [ Abs: 0.00000  Tot: +0.00000 ]
	SubspaceRotationAdjust: set factor to 0.287
ElecMinimize: Iter:  18  F: -1476.076069748979080  |grad|_K:  3.967e-08  alpha:  2.976e-01  linmin:  6.734e-06  t[s]:   3484.02
	FillingsUpdate:  mu: +0.117489922  nElectrons: 190.000000  magneticMoment: [ Abs: 0.00000  Tot: +0.00000 ]
	SubspaceRotationAdjust: set factor to 0.221
ElecMinimize: Iter:  19  F: -1476.076069833341307  |grad|_K:  2.511e-08  alpha:  2.580e-01  linmin: -1.583e-05  t[s]:   3512.38
	FillingsUpdate:  mu: +0.117489522  nElectrons: 190.000000  magneticMoment: [ Abs: 0.00000  Tot: +0.00000 ]
	SubspaceRotationAdjust: set factor to 0.292
ElecMinimize: Iter:  20  F: -1476.076069877663940  |grad|_K:  1.551e-08  alpha:  3.378e-01  linmin:  4.319e-04  t[s]:   3541.42
ElecMinimize: Converged (|Delta F|<1.000000e-07 for 2 iters).
Setting wave functions to eigenvectors of Hamiltonian
Converging empty states (this may take a while): |deigs|: 1.557e-06

Computing DFT-D3 correction:
# coordination-number Ag 8.153 8.766 8.853 6.718 4.861 8.845 8.772 8.162 4.868 6.708
# diagonal-C6 Ag 268.61 268.61 268.61 268.61 268.61 268.61 268.61 268.61 268.61 268.61
EvdW_6 =   -0.054322
EvdW_8 =   -0.077990

# Ionic positions in cartesian coordinates:
ion Ag   3.834549528750320   1.743368314623961  13.041940821685657 1
ion Ag  -0.001395321524999   3.400212659211916   9.428818377103253 1
ion Ag   3.833508734166298   5.162289304240489   5.969017852574472 1
ion Ag  -0.000650248588042   6.893682148214768   2.365460502023314 1
ion Ag   0.001581873538872  -0.055359089240807  16.286028179683310 1
ion Ag   3.833041749465818   6.837634750863950  11.169817450233211 1
ion Ag   3.833758039468333   0.027020273996559   7.708769955340635 1
ion Ag  -0.003094238301456   1.683116913377635   4.098184558839647 1
ion Ag   3.830855138643509   3.483449482104919   0.859253197568554 1
ion Ag   0.002011744381348   5.106499242606612  14.777504104947944 1

# Forces in Cartesian coordinates:
force Ag  -0.000032411642428  -0.000573824935849  -0.000338410998788 1
force Ag   0.000037671046797   0.000659403917668  -0.000107276108058 1
force Ag  -0.000005681265532   0.000258234639324   0.000432147146390 1
force Ag  -0.000011885756739  -0.000298980510214   0.000241621194177 1
force Ag   0.000027100503201  -0.000364832379227   0.000380738695719 1
force Ag   0.000015812959394  -0.000360942769223  -0.000389343785865 1
force Ag  -0.000042729308962  -0.000606573939582   0.000143910340884 1
force Ag   0.000043830078633   0.000693710938063   0.000278637991799 1
force Ag  -0.000017061730376   0.000431021496279  -0.000617541208794 1
force Ag  -0.000005210471975   0.000165035700081  -0.000431437345116 1

# Energy components:
   Eewald =     5441.6749861071275518
       EH =     6774.1081963157448627
     Eloc =   -13923.7784347194774455
      Enl =       39.4702671212027951
     EvdW =       -0.1323125693869545
      Exc =     -144.8443337803660711
 Exc_core =        2.0817050510214234
       KE =      335.3441312651261796
-------------------------------------
     Etot =    -1476.0757952090077652
       TS =        0.0002746686560661
-------------------------------------
        F =    -1476.0760698776639401


Dumping 'jdft.fillings' ... done
Dumping 'jdft.wfns' ... done
Dumping 'jdft.ionpos' ... done
Dumping 'jdft.lattice' ... done
Dumping 'jdft.eigenvals' ... done
Dumping 'jdft.eigStats' ... 
	eMin: -3.264767 at state 63 ( [ +0.000000 +0.000000 +0.000000 ] spin -1 )
	HOMO: +0.117246 at state 87 ( [ +0.333333 +0.428571 +0.000000 ] spin -1 )
	mu  : +0.117490
	LUMO: +0.119802 at state 27 ( [ +0.333333 -0.142857 +0.000000 ] spin 1 )
	eMax: +0.413249 at state 17 ( [ +0.222222 +0.428571 +0.000000 ] spin 1 )
	HOMO-LUMO gap: +0.002556
	Optical gap  : +0.005560 at state 97 ( [ +0.444444 -0.142857 +0.000000 ] spin -1 )
Dumping 'jdft.Ecomponents' ... done
IonicMinimize: Iter:   4  F: -1476.076069877663940  |grad|_K:  3.450e-04  alpha:  1.000e+00  linmin:  3.811e-01  t[s]:   3582.19

#--- Lowdin population analysis ---
# oxidation-state Ag -0.066 +0.002 -0.030 -0.023 +0.145 -0.030 +0.002 -0.066 +0.146 -0.024
# magnetic-moments Ag +0.000 +0.000 +0.000 -0.000 -0.000 -0.000 -0.000 +0.000 -0.000 +0.000


Computing DFT-D3 correction:
# coordination-number Ag 8.156 8.787 8.867 6.718 4.846 8.868 8.786 8.154 4.848 6.719
# diagonal-C6 Ag 268.61 268.61 268.61 268.61 268.61 268.61 268.61 268.61 268.61 268.61
EvdW_6 =   -0.054342
EvdW_8 =   -0.078010

-------- Electronic minimization -----------
	FillingsUpdate:  mu: +0.117459667  nElectrons: 190.000000  magneticMoment: [ Abs: 0.00000  Tot: +0.00000 ]
ElecMinimize: Iter:   0  F: -1476.075986250108144  |grad|_K:  5.162e-07  alpha:  1.000e+00
	FillingsUpdate:  mu: +0.117349281  nElectrons: 190.000000  magneticMoment: [ Abs: 0.00000  Tot: +0.00000 ]
	SubspaceRotationAdjust: set factor to 0.221
ElecMinimize: Iter:   1  F: -1476.076021587648029  |grad|_K:  6.194e-07  alpha:  6.375e-01  linmin: -4.151e-08  t[s]:   3633.98
	FillingsUpdate:  mu: +0.117380567  nElectrons: 190.000000  magneticMoment: [ Abs: 0.00000  Tot: +0.00000 ]
	SubspaceRotationAdjust: set factor to 0.189
ElecMinimize: Iter:   2  F: -1476.076053779819858  |grad|_K:  5.114e-07  alpha:  4.033e-01  linmin:  3.869e-08  t[s]:   3662.09
	FillingsUpdate:  mu: +0.117504480  nElectrons: 190.000000  magneticMoment: [ Abs: 0.00000  Tot: +0.00000 ]
	SubspaceRotationAdjust: set factor to 0.23
ElecMinimize: Iter:   3  F: -1476.076084434295808  |grad|_K:  3.436e-07  alpha:  5.633e-01  linmin: -9.568e-07  t[s]:   3690.22
	FillingsUpdate:  mu: +0.117520721  nElectrons: 190.000000  magneticMoment: [ Abs: 0.00000  Tot: +0.00000 ]
	SubspaceRotationAdjust: set factor to 0.228
ElecMinimize: Iter:   4  F: -1476.076093554318959  |grad|_K:  2.170e-07  alpha:  3.713e-01  linmin:  2.245e-08  t[s]:   3718.31
	FillingsUpdate:  mu: +0.117521538  nElectrons: 190.000000  magneticMoment: [ Abs: 0.00000  Tot: +0.00000 ]
	SubspaceRotationAdjust: set factor to 0.214
ElecMinimize: Iter:   5  F: -1476.076096914351183  |grad|_K:  1.158e-07  alpha:  3.430e-01  linmin: -8.873e-07  t[s]:   3746.58
	FillingsUpdate:  mu: +0.117508305  nElectrons: 190.000000  magneticMoment: [ Abs: 0.00000  Tot: +0.00000 ]
	SubspaceRotationAdjust: set factor to 0.223
ElecMinimize: Iter:   6  F: -1476.076098041624391  |grad|_K:  7.225e-08  alpha:  4.043e-01  linmin:  2.593e-06  t[s]:   3774.69
	FillingsUpdate:  mu: +0.117516856  nElectrons: 190.000000  magneticMoment: [ Abs: 0.00000  Tot: +0.00000 ]
	SubspaceRotationAdjust: set factor to 0.248
ElecMinimize: Iter:   7  F: -1476.076098440522856  |grad|_K:  4.363e-08  alpha:  3.673e-01  linmin:  7.552e-06  t[s]:   3802.81
	FillingsUpdate:  mu: +0.117521570  nElectrons: 190.000000  magneticMoment: [ Abs: 0.00000  Tot: +0.00000 ]
	SubspaceRotationAdjust: set factor to 0.272
ElecMinimize: Iter:   8  F: -1476.076098607470612  |grad|_K:  2.926e-08  alpha:  4.214e-01  linmin:  8.625e-07  t[s]:   3830.92
	FillingsUpdate:  mu: +0.117518077  nElectrons: 190.000000  magneticMoment: [ Abs: 0.00000  Tot: +0.00000 ]
	SubspaceRotationAdjust: set factor to 0.312
ElecMinimize: Iter:   9  F: -1476.076098675621097  |grad|_K:  1.977e-08  alpha:  3.821e-01  linmin: -2.664e-05  t[s]:   3859.98
	FillingsUpdate:  mu: +0.117517490  nElectrons: 190.000000  magneticMoment: [ Abs: 0.00000  Tot: +0.00000 ]
	SubspaceRotationAdjust: set factor to 0.379
ElecMinimize: Iter:  10  F: -1476.076098711771920  |grad|_K:  1.375e-08  alpha:  4.440e-01  linmin: -5.244e-05  t[s]:   3887.99
ElecMinimize: Converged (|Delta F|<1.000000e-07 for 2 iters).
Setting wave functions to eigenvectors of Hamiltonian
Converging empty states (this may take a while): |deigs|: 5.120e-08

Computing DFT-D3 correction:
# coordination-number Ag 8.156 8.787 8.867 6.718 4.846 8.868 8.786 8.154 4.848 6.719
# diagonal-C6 Ag 268.61 268.61 268.61 268.61 268.61 268.61 268.61 268.61 268.61 268.61
EvdW_6 =   -0.054342
EvdW_8 =   -0.078010

# Ionic positions in cartesian coordinates:
ion Ag   3.834181545600854   1.734872064190655  13.036699054831969 1
ion Ag  -0.000936704451780   3.408678849944810   9.429419079007882 1
ion Ag   3.833305610104134   5.165534625935903   5.975475723724472 1
ion Ag  -0.000686609300035   6.891488347845798   2.371946799677063 1
ion Ag   0.001966773323569  -0.058574514110310  16.290193594016372 1
ion Ag   3.833268528534092   6.833014451909063  11.166391978511166 1
ion Ag   3.833254994025610   0.019448956716658   7.711648091069308 1
ion Ag  -0.002544897653562   1.693120424941168   4.103186766728608 1
ion Ag   3.830618909580348   3.487376410869347   0.851318680600846 1
ion Ag   0.001738850236769   5.106954381756911  14.768515231832311 1

# Forces in Cartesian coordinates:
force Ag   0.000000718810893  -0.000337864285541  -0.000119432927877 1
force Ag  -0.000004227751145  -0.000184554802521  -0.000052460534291 1
force Ag   0.000003847015326   0.000023779375527  -0.000091006184272 1
force Ag  -0.000001138633376   0.000126032112602   0.000142986406588 1
force Ag   0.000002897339549  -0.000247404864006   0.000165482951721 1
force Ag  -0.000002101429978  -0.000003000850648   0.000050514363952 1
force Ag   0.000007296855107   0.000165582371903   0.000015880514516 1
force Ag  -0.000009865937949   0.000325349401683   0.000153472448021 1
force Ag   0.000001188504713   0.000261977055135  -0.000186951431205 1
force Ag   0.000003287471282  -0.000114513139130  -0.000115786060782 1

# Energy components:
   Eewald =     5443.7961790022554851
       EH =     6776.2362250405867599
     Eloc =   -13928.0279745748794085
      Enl =       39.4707205254780575
     EvdW =       -0.1323517855837963
      Exc =     -144.8444371598286580
 Exc_core =        2.0817050162372377
       KE =      335.3441088945472188
-------------------------------------
     Etot =    -1476.0758250411870449
       TS =        0.0002736705848933
-------------------------------------
        F =    -1476.0760987117719196


Dumping 'jdft.fillings' ... done
Dumping 'jdft.wfns' ... done
Dumping 'jdft.ionpos' ... done
Dumping 'jdft.lattice' ... done
Dumping 'jdft.eigenvals' ... done
Dumping 'jdft.eigStats' ... 
	eMin: -3.264802 at state 63 ( [ +0.000000 +0.000000 +0.000000 ] spin -1 )
	HOMO: +0.117393 at state 87 ( [ +0.333333 +0.428571 +0.000000 ] spin -1 )
	mu  : +0.117517
	LUMO: +0.119753 at state 27 ( [ +0.333333 -0.142857 +0.000000 ] spin 1 )
	eMax: +0.413273 at state 116 ( [ -0.222222 -0.428571 +0.000000 ] spin -1 )
	HOMO-LUMO gap: +0.002361
	Optical gap  : +0.005638 at state 99 ( [ -0.444444 +0.142857 +0.000000 ] spin -1 )
Dumping 'jdft.Ecomponents' ... done
IonicMinimize: Iter:   5  F: -1476.076098711771920  |grad|_K:  1.401e-04  alpha:  1.000e+00  linmin: -4.822e-01  t[s]:   3916.51

#--- Lowdin population analysis ---
# oxidation-state Ag -0.066 +0.002 -0.030 -0.025 +0.146 -0.030 +0.002 -0.066 +0.146 -0.025
# magnetic-moments Ag +0.000 +0.000 +0.000 +0.000 -0.000 -0.000 +0.000 -0.000 -0.000 +0.000


Computing DFT-D3 correction:
# coordination-number Ag 8.158 8.789 8.866 6.716 4.838 8.870 8.787 8.152 4.836 6.719
# diagonal-C6 Ag 268.61 268.61 268.61 268.61 268.61 268.61 268.61 268.61 268.61 268.61
EvdW_6 =   -0.054334
EvdW_8 =   -0.077993

-------- Electronic minimization -----------
	FillingsUpdate:  mu: +0.117411153  nElectrons: 190.000000  magneticMoment: [ Abs: 0.00000  Tot: +0.00000 ]
ElecMinimize: Iter:   0  F: -1476.076075596985220  |grad|_K:  3.084e-07  alpha:  1.000e+00
	FillingsUpdate:  mu: +0.117553434  nElectrons: 190.000000  magneticMoment: [ Abs: 0.00000  Tot: +0.00000 ]
	SubspaceRotationAdjust: set factor to 0.555
ElecMinimize: Iter:   1  F: -1476.076091190763236  |grad|_K:  2.912e-07  alpha:  7.880e-01  linmin:  1.842e-07  t[s]:   3967.85
	FillingsUpdate:  mu: +0.117442685  nElectrons: 190.000000  magneticMoment: [ Abs: 0.00000  Tot: +0.00000 ]
	SubspaceRotationAdjust: set factor to 0.592
ElecMinimize: Iter:   2  F: -1476.076101801094410  |grad|_K:  2.965e-07  alpha:  6.013e-01  linmin:  2.310e-07  t[s]:   3995.87
	FillingsUpdate:  mu: +0.117486427  nElectrons: 190.000000  magneticMoment: [ Abs: 0.00000  Tot: +0.00000 ]
	SubspaceRotationAdjust: set factor to 0.402
ElecMinimize: Iter:   3  F: -1476.076105394204433  |grad|_K:  2.418e-07  alpha:  1.965e-01  linmin:  1.428e-06  t[s]:   4023.90
	FillingsUpdate:  mu: +0.117554545  nElectrons: 190.000000  magneticMoment: [ Abs: 0.00000  Tot: +0.00000 ]
	SubspaceRotationAdjust: set factor to 0.265
ElecMinimize: Iter:   4  F: -1476.076107728096758  |grad|_K:  1.059e-07  alpha:  1.918e-01  linmin: -4.736e-07  t[s]:   4052.03
	FillingsUpdate:  mu: +0.117522895  nElectrons: 190.000000  magneticMoment: [ Abs: 0.00000  Tot: +0.00000 ]
	SubspaceRotationAdjust: set factor to 0.273
ElecMinimize: Iter:   5  F: -1476.076108540291216  |grad|_K:  4.950e-08  alpha:  3.478e-01  linmin: -1.803e-06  t[s]:   4080.16
	FillingsUpdate:  mu: +0.117518310  nElectrons: 190.000000  magneticMoment: [ Abs: 0.00000  Tot: +0.00000 ]
	SubspaceRotationAdjust: set factor to 0.277
ElecMinimize: Iter:   6  F: -1476.076108716040380  |grad|_K:  2.850e-08  alpha:  3.447e-01  linmin:  1.444e-05  t[s]:   4108.41
	FillingsUpdate:  mu: +0.117517719  nElectrons: 190.000000  magneticMoment: [ Abs: 0.00000  Tot: +0.00000 ]
	SubspaceRotationAdjust: set factor to 0.266
ElecMinimize: Iter:   7  F: -1476.076108776620458  |grad|_K:  1.503e-08  alpha:  3.585e-01  linmin: -1.039e-04  t[s]:   4136.60
	FillingsUpdate:  mu: +0.117518258  nElectrons: 190.000000  magneticMoment: [ Abs: 0.00000  Tot: +0.00000 ]
	SubspaceRotationAdjust: set factor to 0.226
ElecMinimize: Iter:   8  F: -1476.076108795461323  |grad|_K:  1.008e-08  alpha:  3.989e-01  linmin:  4.658e-06  t[s]:   4166.12
ElecMinimize: Converged (|Delta F|<1.000000e-07 for 2 iters).
Setting wave functions to eigenvectors of Hamiltonian
Converging empty states (this may take a while): |deigs|: 7.373e-08

Computing DFT-D3 correction:
# coordination-number Ag 8.158 8.789 8.866 6.716 4.838 8.870 8.787 8.152 4.836 6.719
# diagonal-C6 Ag 268.61 268.61 268.61 268.61 268.61 268.61 268.61 268.61 268.61 268.61
EvdW_6 =   -0.054334
EvdW_8 =   -0.077993

# Ionic positions in cartesian coordinates:
ion Ag   3.834148926479017   1.725767991589177  13.035271841628116 1
ion Ag  -0.000905580595250   3.408116104144741   9.429500146886802 1
ion Ag   3.833245604403492   5.167075516534840   5.974934012649187 1
ion Ag  -0.000746647814695   6.894969814918206   2.373520046766084 1
ion Ag   0.002193843953080  -0.064501461173296  16.295789294732245 1
ion Ag   3.833319348391703   6.831397741539006  11.167683105355103 1
ion Ag   3.833251732022271   0.020015000003689   7.712550298379154 1
ion Ag  -0.002585509138401   1.702323768935405   4.104938865654137 1
ion Ag   3.830554219318483   3.493648934329207   0.844076139218923 1
ion Ag   0.001691062980299   5.103100589179028  14.766531248730246 1

# Forces in Cartesian coordinates:
force Ag   0.000006910167068  -0.000105289128816  -0.000081007913074 1
force Ag  -0.000008463604431  -0.000177775765411  -0.000085006841546 1
force Ag   0.000004327968838   0.000139525255174  -0.000173133613522 1
force Ag   0.000001266995869   0.000353167123567   0.000091634595879 1
force Ag  -0.000002362197031  -0.000171391911099  -0.000005255309760 1
force Ag  -0.000003796633421  -0.000114470165837  -0.000028597491477 1
force Ag   0.000008513803441   0.000156908399319  -0.000125074538651 1
force Ag  -0.000013306351368   0.000085157879904   0.000006380947015 1
force Ag   0.000003179465212   0.000164547143668   0.000015655143524 1
force Ag   0.000004174079569  -0.000317678076457  -0.000105394542366 1

# Energy components:
   Eewald =     5442.2393724338744505
       EH =     6774.6903942286189704
     Eloc =   -13924.9249963870643114
      Enl =       39.4713574068690605
     EvdW =       -0.1323269785778551
      Exc =     -144.8437882183080205
 Exc_core =        2.0817049938208747
       KE =      335.3424451630824024
-------------------------------------
     Etot =    -1476.0758373576841223
       TS =        0.0002714377770957
-------------------------------------
        F =    -1476.0761087954613231


Dumping 'jdft.fillings' ... done
Dumping 'jdft.wfns' ... done
Dumping 'jdft.ionpos' ... done
Dumping 'jdft.lattice' ... done
Dumping 'jdft.eigenvals' ... done
Dumping 'jdft.eigStats' ... 
	eMin: -3.264770 at state 63 ( [ +0.000000 +0.000000 +0.000000 ] spin -1 )
	HOMO: +0.117463 at state 109 ( [ -0.333333 -0.428571 +0.000000 ] spin -1 )
	mu  : +0.117518
	LUMO: +0.119692 at state 43 ( [ -0.333333 +0.142857 +0.000000 ] spin 1 )
	eMax: +0.413262 at state 17 ( [ +0.222222 +0.428571 +0.000000 ] spin 1 )
	HOMO-LUMO gap: +0.002228
	Optical gap  : +0.005745 at state 99 ( [ -0.444444 +0.142857 +0.000000 ] spin -1 )
Dumping 'jdft.Ecomponents' ... done
IonicMinimize: Iter:   6  F: -1476.076108795461323  |grad|_K:  1.219e-04  alpha:  1.000e+00  linmin: -5.370e-01  t[s]:   4194.46

#--- Lowdin population analysis ---
# oxidation-state Ag -0.066 +0.002 -0.030 -0.025 +0.147 -0.031 +0.002 -0.066 +0.147 -0.025
# magnetic-moments Ag +0.000 +0.000 -0.000 +0.000 +0.000 -0.000 +0.000 +0.000 +0.000 +0.000


Computing DFT-D3 correction:
# coordination-number Ag 8.152 8.787 8.864 6.718 4.816 8.864 8.787 8.152 4.814 6.717
# diagonal-C6 Ag 268.61 268.61 268.61 268.61 268.61 268.61 268.61 268.61 268.61 268.61
EvdW_6 =   -0.054314
EvdW_8 =   -0.077963

-------- Electronic minimization -----------
	FillingsUpdate:  mu: +0.129081165  nElectrons: 190.000000  magneticMoment: [ Abs: 0.00000  Tot: +0.00000 ]
ElecMinimize: Iter:   0  F: -1475.991996285325285  |grad|_K:  3.557e-05  alpha:  1.000e+00
	FillingsUpdate:  mu: +0.117438468  nElectrons: 190.000000  magneticMoment: [ Abs: 0.00000  Tot: +0.00000 ]
	SubspaceRotationAdjust: set factor to 0.232
ElecMinimize: Iter:   1  F: -1476.065241348828977  |grad|_K:  1.148e-05  alpha:  2.789e-01  linmin:  3.949e-04  t[s]:   4245.16
	FillingsUpdate:  mu: +0.116392623  nElectrons: 190.000000  magneticMoment: [ Abs: 0.00000  Tot: +0.00000 ]
	SubspaceRotationAdjust: set factor to 0.278
ElecMinimize: Iter:   2  F: -1476.072846949959967  |grad|_K:  3.770e-06  alpha:  2.779e-01  linmin: -3.200e-06  t[s]:   4273.46
	FillingsUpdate:  mu: +0.117668266  nElectrons: 190.000000  magneticMoment: [ Abs: 0.00000  Tot: +0.00000 ]
	SubspaceRotationAdjust: set factor to 0.377
ElecMinimize: Iter:   3  F: -1476.074161766296584  |grad|_K:  2.497e-06  alpha:  4.445e-01  linmin: -2.578e-06  t[s]:   4301.58
	FillingsUpdate:  mu: +0.117272695  nElectrons: 190.000000  magneticMoment: [ Abs: 0.00000  Tot: +0.00000 ]
	SubspaceRotationAdjust: set factor to 0.483
ElecMinimize: Iter:   4  F: -1476.074957374926043  |grad|_K:  2.469e-06  alpha:  6.131e-01  linmin:  4.429e-07  t[s]:   4329.86
	FillingsUpdate:  mu: +0.117258331  nElectrons: 190.000000  magneticMoment: [ Abs: 0.00000  Tot: -0.00000 ]
[...]
	FillingsUpdate:  mu: +0.117479507  nElectrons: 190.000000  magneticMoment: [ Abs: 0.00000  Tot: -0.00000 ]
	SubspaceRotationAdjust: set factor to 0.271
ElecMinimize: Iter:   8  F: -1476.076132077078455  |grad|_K:  2.459e-08  alpha:  4.139e-01  linmin:  5.325e-06  t[s]:   5064.13
	FillingsUpdate:  mu: +0.117480028  nElectrons: 190.000000  magneticMoment: [ Abs: 0.00000  Tot: -0.00000 ]
	SubspaceRotationAdjust: set factor to 0.305
ElecMinimize: Iter:   9  F: -1476.076132125861704  |grad|_K:  1.632e-08  alpha:  3.877e-01  linmin: -4.597e-05  t[s]:   5092.25
	FillingsUpdate:  mu: +0.117480559  nElectrons: 190.000000  magneticMoment: [ Abs: 0.00000  Tot: -0.00000 ]
	SubspaceRotationAdjust: set factor to 0.37
ElecMinimize: Iter:  10  F: -1476.076132149351224  |grad|_K:  1.086e-08  alpha:  4.252e-01  linmin:  3.767e-05  t[s]:   5120.56
ElecMinimize: Converged (|Delta F|<1.000000e-07 for 2 iters).
Setting wave functions to eigenvectors of Hamiltonian
Converging empty states (this may take a while): |deigs|: 8.076e-08

Computing DFT-D3 correction:
# coordination-number Ag 8.156 8.776 8.847 6.709 4.829 8.863 8.769 8.138 4.819 6.723
# diagonal-C6 Ag 268.61 268.61 268.61 268.61 268.61 268.61 268.61 268.61 268.61 268.61
EvdW_6 =   -0.054293
EvdW_8 =   -0.077937

# Ionic positions in cartesian coordinates:
ion Ag   3.834345712932304   1.699226681314146  13.038246135876340 1
ion Ag  -0.000716810415927   3.402107900942511   9.431691959858146 1
ion Ag   3.833034491232965   5.181694915656703   5.970665327399259 1
ion Ag  -0.001311307076441   6.923555134098999   2.371245869614663 1
ion Ag   0.002696645941109  -0.096518192651206  16.305074596004943 1
ion Ag   3.833258170462560   6.816168310774085  11.174432565380069 1
ion Ag   3.833149930231161   0.025496626796219   7.714900114238423 1
ion Ag  -0.002567125196193   1.729357037519457   4.101894687782778 1
ion Ag   3.830431716416089   3.525850215090022   0.829976768219687 1
ion Ag   0.001845575472372   5.074975370459065  14.766666975625693 1

# Forces in Cartesian coordinates:
force Ag   0.000011061124191   0.000151056623901   0.000085599762466 1
force Ag  -0.000021430870491  -0.000077588700929  -0.000138927300222 1
force Ag   0.000007372615724   0.000109038225111   0.000013553116166 1
force Ag   0.000004281523969   0.000376834616176   0.000122730163421 1
force Ag  -0.000003930285773  -0.000008523421692  -0.000108336661914 1
force Ag   0.000001067943693  -0.000079563244995  -0.000236041360102 1
force Ag   0.000015084850527   0.000049196004429  -0.000153193811247 1
force Ag  -0.000027130499654  -0.000167650103867  -0.000047213543737 1
force Ag   0.000015740613837   0.000024168639058   0.000381354384973 1
force Ag  -0.000004571212772  -0.000360112575433   0.000060076814399 1

# Energy components:
   Eewald =     5436.0460907160331772
       EH =     6768.5221164734066406
     Eloc =   -13912.5623530443172058
      Enl =       39.4728693007219462
     EvdW =       -0.1322298203461297
      Exc =     -144.8419002090734864
 Exc_core =        2.0817048640037989
       KE =      335.3378394903533604
-------------------------------------
     Etot =    -1476.0758622292169093
       TS =        0.0002699201342127
-------------------------------------
        F =    -1476.0761321493512241


Dumping 'jdft.fillings' ... done
Dumping 'jdft.wfns' ... done
Dumping 'jdft.ionpos' ... done
Dumping 'jdft.lattice' ... done
Dumping 'jdft.eigenvals' ... done
Dumping 'jdft.eigStats' ... 
	eMin: -3.264611 at state 0 ( [ +0.000000 +0.000000 +0.000000 ] spin 1 )
	HOMO: +0.117449 at state 46 ( [ -0.333333 -0.428571 +0.000000 ] spin 1 )
	mu  : +0.117481
	LUMO: +0.119559 at state 90 ( [ +0.333333 -0.142857 +0.000000 ] spin -1 )
	eMax: +0.413219 at state 17 ( [ +0.222222 +0.428571 +0.000000 ] spin 1 )
	HOMO-LUMO gap: +0.002110
	Optical gap  : +0.005758 at state 36 ( [ -0.444444 +0.142857 +0.000000 ] spin 1 )
Dumping 'jdft.Ecomponents' ... done
IonicMinimize: Iter:   8  F: -1476.076132149351224  |grad|_K:  1.456e-04  alpha:  1.000e+00  linmin: -1.863e-01  t[s]:   5149.22

#--- Lowdin population analysis ---
# oxidation-state Ag -0.066 +0.002 -0.030 -0.026 +0.148 -0.031 +0.002 -0.066 +0.148 -0.026
# magnetic-moments Ag -0.000 +0.000 -0.000 +0.000 -0.000 -0.000 -0.000 -0.000 -0.000 -0.000


Computing DFT-D3 correction:
# coordination-number Ag 8.153 8.770 8.841 6.708 4.838 8.859 8.762 8.133 4.826 6.724
# diagonal-C6 Ag 268.61 268.61 268.61 268.61 268.61 268.61 268.61 268.61 268.61 268.61
EvdW_6 =   -0.054288
EvdW_8 =   -0.077946

-------- Electronic minimization -----------
	FillingsUpdate:  mu: +0.117644696  nElectrons: 190.000000  magneticMoment: [ Abs: 0.00000  Tot: -0.00000 ]
ElecMinimize: Iter:   0  F: -1476.004654455899981  |grad|_K:  3.279e-05  alpha:  1.000e+00
	FillingsUpdate:  mu: +0.116054100  nElectrons: 190.000000  magneticMoment: [ Abs: 0.00000  Tot: -0.00000 ]
	SubspaceRotationAdjust: set factor to 0.387
ElecMinimize: Iter:   1  F: -1476.067059924173464  |grad|_K:  1.071e-05  alpha:  2.796e-01  linmin:  2.589e-04  t[s]:   5199.61
	FillingsUpdate:  mu: +0.117398944  nElectrons: 190.000000  magneticMoment: [ Abs: 0.00000  Tot: -0.00000 ]
	SubspaceRotationAdjust: set factor to 0.477
ElecMinimize: Iter:   2  F: -1476.073700096299945  |grad|_K:  3.621e-06  alpha:  2.791e-01  linmin: -1.563e-06  t[s]:   5227.76
	FillingsUpdate:  mu: +0.117719780  nElectrons: 190.000000  magneticMoment: [ Abs: 0.00000  Tot: -0.00000 ]
	SubspaceRotationAdjust: set factor to 0.476
ElecMinimize: Iter:   3  F: -1476.074897234433365  |grad|_K:  2.701e-06  alpha:  4.388e-01  linmin: -3.031e-06  t[s]:   5255.99
	FillingsUpdate:  mu: +0.117494808  nElectrons: 190.000000  magneticMoment: [ Abs: 0.00000  Tot: -0.00000 ]
	SubspaceRotationAdjust: set factor to 0.337
ElecMinimize: Iter:   4  F: -1476.075352195833148  |grad|_K:  2.865e-06  alpha:  2.997e-01  linmin: -4.311e-08  t[s]:   5284.14
	FillingsUpdate:  mu: +0.117338153  nElectrons: 190.000000  magneticMoment: [ Abs: 0.00000  Tot: -0.00000 ]
	SubspaceRotationAdjust: set factor to 0.292
ElecMinimize: Iter:   5  F: -1476.075800166446243  |grad|_K:  1.667e-06  alpha:  2.623e-01  linmin:  6.018e-07  t[s]:   5312.22
	FillingsUpdate:  mu: +0.117517996  nElectrons: 190.000000  magneticMoment: [ Abs: 0.00000  Tot: -0.00000 ]
	SubspaceRotationAdjust: set factor to 0.37
ElecMinimize: Iter:   6  F: -1476.076008654052202  |grad|_K:  1.018e-06  alpha:  3.605e-01  linmin: -1.732e-06  t[s]:   5341.12
	FillingsUpdate:  mu: +0.117518747  nElectrons: 190.000000  magneticMoment: [ Abs: 0.00000  Tot: -0.00000 ]
	SubspaceRotationAdjust: set factor to 0.325
ElecMinimize: Iter:   7  F: -1476.076091517935311  |grad|_K:  7.789e-07  alpha:  3.843e-01  linmin:  1.405e-06  t[s]:   5369.60
	FillingsUpdate:  mu: +0.117442903  nElectrons: 190.000000  magneticMoment: [ Abs: 0.00000  Tot: -0.00000 ]
	SubspaceRotationAdjust: set factor to 0.207
ElecMinimize: Iter:   8  F: -1476.076121389021182  |grad|_K:  4.690e-07  alpha:  2.367e-01  linmin: -4.906e-08  t[s]:   5397.73
	FillingsUpdate:  mu: +0.117404829  nElectrons: 190.000000  magneticMoment: [ Abs: 0.00000  Tot: -0.00000 ]
	SubspaceRotationAdjust: set factor to 0.234
ElecMinimize: Iter:   9  F: -1476.076136202086673  |grad|_K:  2.507e-07  alpha:  3.236e-01  linmin: -7.169e-07  t[s]:   5425.79
	FillingsUpdate:  mu: +0.117424203  nElectrons: 190.000000  magneticMoment: [ Abs: 0.00000  Tot: -0.00000 ]
	SubspaceRotationAdjust: set factor to 0.236
ElecMinimize: Iter:  10  F: -1476.076140647252259  |grad|_K:  1.607e-07  alpha:  3.399e-01  linmin:  1.741e-07  t[s]:   5454.10
	FillingsUpdate:  mu: +0.117450995  nElectrons: 190.000000  magneticMoment: [ Abs: 0.00000  Tot: -0.00000 ]
	SubspaceRotationAdjust: set factor to 0.2
ElecMinimize: Iter:  11  F: -1476.076142563337726  |grad|_K:  9.177e-08  alpha:  3.565e-01  linmin: -2.695e-07  t[s]:   5482.26
	FillingsUpdate:  mu: +0.117446741  nElectrons: 190.000000  magneticMoment: [ Abs: 0.00000  Tot: -0.00000 ]
	SubspaceRotationAdjust: set factor to 0.201
ElecMinimize: Iter:  12  F: -1476.076143187042817  |grad|_K:  5.626e-08  alpha:  3.560e-01  linmin: -1.731e-06  t[s]:   5510.48
	FillingsUpdate:  mu: +0.117441551  nElectrons: 190.000000  magneticMoment: [ Abs: 0.00000  Tot: -0.00000 ]
	SubspaceRotationAdjust: set factor to 0.237
ElecMinimize: Iter:  13  F: -1476.076143421401639  |grad|_K:  3.814e-08  alpha:  3.559e-01  linmin:  3.427e-06  t[s]:   5538.63
	FillingsUpdate:  mu: +0.117447725  nElectrons: 190.000000  magneticMoment: [ Abs: 0.00000  Tot: -0.00000 ]
	SubspaceRotationAdjust: set factor to 0.269
ElecMinimize: Iter:  14  F: -1476.076143539642771  |grad|_K:  2.542e-08  alpha:  3.908e-01  linmin: -8.639e-07  t[s]:   5566.75
	FillingsUpdate:  mu: +0.117452013  nElectrons: 190.000000  magneticMoment: [ Abs: 0.00000  Tot: -0.00000 ]
	SubspaceRotationAdjust: set factor to 0.297
ElecMinimize: Iter:  15  F: -1476.076143600430669  |grad|_K:  2.186e-08  alpha:  4.523e-01  linmin:  3.846e-06  t[s]:   5594.85
	FillingsUpdate:  mu: +0.117451083  nElectrons: 190.000000  magneticMoment: [ Abs: 0.00000  Tot: -0.00000 ]
	SubspaceRotationAdjust: set factor to 0.344
ElecMinimize: Iter:  16  F: -1476.076143642577335  |grad|_K:  1.740e-08  alpha:  4.246e-01  linmin:  8.016e-06  t[s]:   5623.10
ElecMinimize: Converged (|Delta F|<1.000000e-07 for 2 iters).
Setting wave functions to eigenvectors of Hamiltonian
Converging empty states (this may take a while): |deigs|: 4.823e-07

Computing DFT-D3 correction:
# coordination-number Ag 8.153 8.770 8.841 6.708 4.838 8.859 8.762 8.133 4.826 6.724
# diagonal-C6 Ag 268.61 268.61 268.61 268.61 268.61 268.61 268.61 268.61 268.61 268.61
EvdW_6 =   -0.054288
EvdW_8 =   -0.077946

# Ionic positions in cartesian coordinates:
ion Ag   3.834629701327106   1.689016788265836  13.042316148085746 1
ion Ag  -0.000858519723548   3.395839685000892   9.431030851127028 1
ion Ag   3.833041337347365   5.190381378896240   5.970731623207285 1
ion Ag  -0.001725422482254   6.943275667962312   2.369512506195205 1
ion Ag   0.002756865818778  -0.117277525432829  16.300771322038308 1
ion Ag   3.833172291389915   6.807228098995793  11.174295072656532 1
ion Ag   3.833319022982149   0.030686462409433   7.716400447217686 1
ion Ag  -0.002815692268190   1.739833463403535   4.098232146809262 1
ion Ag   3.830768923231171   3.547018380945623   0.833187644524034 1
ion Ag   0.001878492377505   5.055911599553166  14.768317238138915 1

# Forces in Cartesian coordinates:
force Ag  -0.000003715368007   0.000050055285435   0.000017148920750 1
force Ag  -0.000005585715988   0.000164239815031  -0.000097031144533 1
force Ag   0.000000985663512   0.000080224330199   0.000069353811707 1
force Ag   0.000007899614473   0.000196821359262   0.000180327907617 1
force Ag   0.000005683776056   0.000043739546134   0.000094980969829 1
force Ag   0.000003823024379  -0.000069720871475  -0.000251612090511 1
force Ag  -0.000002842724661  -0.000167551649944  -0.000180266692924 1
force Ag  -0.000008008550975  -0.000059904842775   0.000050056244537 1
force Ag   0.000004078601480  -0.000021138438444   0.000239568428307 1
force Ag  -0.000009221893527  -0.000198911822434   0.000034832705273 1

# Energy components:
   Eewald =     5436.0587055268297263
       EH =     6768.5330713184002889
     Eloc =   -13912.5857400030399731
      Enl =       39.4723451948956452
     EvdW =       -0.1322339938205247
      Exc =     -144.8420611466142418
 Exc_core =        2.0817048282902419
       KE =      335.3383363697315644
-------------------------------------
     Etot =    -1476.0758719053264940
       TS =        0.0002717372507599
-------------------------------------
        F =    -1476.0761436425773354


Dumping 'jdft.fillings' ... done
Dumping 'jdft.wfns' ... done
Dumping 'jdft.ionpos' ... done
Dumping 'jdft.lattice' ... done
Dumping 'jdft.eigenvals' ... done
Dumping 'jdft.eigStats' ... 
	eMin: -3.264579 at state 63 ( [ +0.000000 +0.000000 +0.000000 ] spin -1 )
	HOMO: +0.117335 at state 46 ( [ -0.333333 -0.428571 +0.000000 ] spin 1 )
	mu  : +0.117451
	LUMO: +0.119589 at state 106 ( [ -0.333333 +0.142857 +0.000000 ] spin -1 )
	eMax: +0.413235 at state 17 ( [ +0.222222 +0.428571 +0.000000 ] spin 1 )
	HOMO-LUMO gap: +0.002254
	Optical gap  : +0.005691 at state 99 ( [ -0.444444 +0.142857 +0.000000 ] spin -1 )
Dumping 'jdft.Ecomponents' ... done
IonicMinimize: Iter:   9  F: -1476.076143642577335  |grad|_K:  1.101e-04  alpha:  1.000e+00  linmin: -1.582e-01  t[s]:   5653.46

#--- Lowdin population analysis ---
# oxidation-state Ag -0.066 +0.002 -0.030 -0.026 +0.147 -0.031 +0.002 -0.066 +0.147 -0.025
# magnetic-moments Ag -0.000 +0.000 -0.000 +0.000 -0.000 -0.000 -0.000 +0.000 +0.000 -0.000


Computing DFT-D3 correction:
# coordination-number Ag 8.146 8.767 8.848 6.717 4.842 8.855 8.764 8.139 4.837 6.722
# diagonal-C6 Ag 268.61 268.61 268.61 268.61 268.61 268.61 268.61 268.61 268.61 268.61
EvdW_6 =   -0.054293
EvdW_8 =   -0.077964

-------- Electronic minimization -----------
	FillingsUpdate:  mu: +0.117472658  nElectrons: 190.000000  magneticMoment: [ Abs: 0.00000  Tot: -0.00000 ]
ElecMinimize: Iter:   0  F: -1476.076110225373895  |grad|_K:  3.475e-07  alpha:  1.000e+00
	FillingsUpdate:  mu: +0.117521785  nElectrons: 190.000000  magneticMoment: [ Abs: 0.00000  Tot: -0.00000 ]
	SubspaceRotationAdjust: set factor to 0.234
ElecMinimize: Iter:   1  F: -1476.076123795178319  |grad|_K:  3.759e-07  alpha:  5.402e-01  linmin:  6.441e-07  t[s]:   5705.08
	FillingsUpdate:  mu: +0.117498265  nElectrons: 190.000000  magneticMoment: [ Abs: 0.00000  Tot: -0.00000 ]
	SubspaceRotationAdjust: set factor to 0.196
ElecMinimize: Iter:   2  F: -1476.076132606907322  |grad|_K:  2.771e-07  alpha:  2.997e-01  linmin:  7.035e-09  t[s]:   5733.21
	FillingsUpdate:  mu: +0.117415128  nElectrons: 190.000000  magneticMoment: [ Abs: 0.00000  Tot: -0.00000 ]
	SubspaceRotationAdjust: set factor to 0.255
ElecMinimize: Iter:   3  F: -1476.076142325440742  |grad|_K:  2.218e-07  alpha:  6.083e-01  linmin: -9.496e-07  t[s]:   5761.34
	FillingsUpdate:  mu: +0.117433833  nElectrons: 190.000000  magneticMoment: [ Abs: 0.00000  Tot: -0.00000 ]
	SubspaceRotationAdjust: set factor to 0.237
ElecMinimize: Iter:   4  F: -1476.076146042884830  |grad|_K:  1.444e-07  alpha:  3.630e-01  linmin: -5.118e-09  t[s]:   5789.48
	FillingsUpdate:  mu: +0.117452921  nElectrons: 190.000000  magneticMoment: [ Abs: 0.00000  Tot: -0.00000 ]
	SubspaceRotationAdjust: set factor to 0.198
ElecMinimize: Iter:   5  F: -1476.076147474154368  |grad|_K:  7.779e-08  alpha:  3.298e-01  linmin: -2.600e-06  t[s]:   5817.62
	FillingsUpdate:  mu: +0.117440139  nElectrons: 190.000000  magneticMoment: [ Abs: 0.00000  Tot: -0.00000 ]
	SubspaceRotationAdjust: set factor to 0.211
ElecMinimize: Iter:   6  F: -1476.076147916313403  |grad|_K:  4.695e-08  alpha:  3.511e-01  linmin: -5.432e-06  t[s]:   5845.86
	FillingsUpdate:  mu: +0.117434811  nElectrons: 190.000000  magneticMoment: [ Abs: 0.00000  Tot: -0.00000 ]
	SubspaceRotationAdjust: set factor to 0.239
ElecMinimize: Iter:   7  F: -1476.076148087933234  |grad|_K:  2.779e-08  alpha:  3.743e-01  linmin:  2.294e-05  t[s]:   5873.97
	FillingsUpdate:  mu: +0.117440539  nElectrons: 190.000000  magneticMoment: [ Abs: 0.00000  Tot: -0.00000 ]
	SubspaceRotationAdjust: set factor to 0.248
ElecMinimize: Iter:   8  F: -1476.076148150714062  |grad|_K:  1.977e-08  alpha:  3.910e-01  linmin:  2.185e-06  t[s]:   5902.09
	FillingsUpdate:  mu: +0.117442326  nElectrons: 190.000000  magneticMoment: [ Abs: 0.00000  Tot: -0.00000 ]
	SubspaceRotationAdjust: set factor to 0.29
ElecMinimize: Iter:   9  F: -1476.076148181948383  |grad|_K:  1.323e-08  alpha:  3.842e-01  linmin:  3.282e-05  t[s]:   5930.16
ElecMinimize: Converged (|Delta F|<1.000000e-07 for 2 iters).
Setting wave functions to eigenvectors of Hamiltonian
Converging empty states (this may take a while): |deigs|: 7.255e-08

Computing DFT-D3 correction:
# coordination-number Ag 8.146 8.767 8.848 6.717 4.842 8.855 8.764 8.139 4.837 6.722
# diagonal-C6 Ag 268.61 268.61 268.61 268.61 268.61 268.61 268.61 268.61 268.61 268.61
EvdW_6 =   -0.054293
EvdW_8 =   -0.077964

# Ionic positions in cartesian coordinates:
ion Ag   3.834466504150657   1.683217368538819  13.043542332473324 1
ion Ag  -0.000612178128871   3.397012502592557   9.430828362218806 1
ion Ag   3.832855665011266   5.193822234670342   5.970188892869404 1
ion Ag  -0.001612093496993   6.954688910791558   2.370996668437285 1
ion Ag   0.003023559641299  -0.127120060390850  16.298679435633801 1
ion Ag   3.833149455630849   6.803659813247201  11.171985701351362 1
ion Ag   3.833057216304604   0.029120467325184   7.712592433921663 1
ion Ag  -0.002570045100635   1.744952696728164   4.097212462242203 1
ion Ag   3.830811842365029   3.557141978594314   0.839586848599535 1
ion Ag   0.001597073622795   5.045418087902714  14.769181862252619 1

# Forces in Cartesian coordinates:
force Ag   0.000014355531761   0.000033054473724  -0.000095695610879 1
force Ag  -0.000029109858140  -0.000062181662690  -0.000113747803832 1
force Ag   0.000012299689274   0.000006785083969   0.000155945155339 1
force Ag  -0.000005825812925   0.000003073180951   0.000106150510319 1
force Ag  -0.000009300784407   0.000024100637063   0.000121622473764 1
force Ag  -0.000000325632934   0.000006499182561  -0.000171438133114 1
force Ag   0.000016904064310   0.000075205217717   0.000040329942970 1
force Ag  -0.000025206937460  -0.000012113285334   0.000156766140650 1
force Ag   0.000015639534375   0.000003968631841   0.000020298899796 1
force Ag  -0.000000607486348  -0.000052084256003  -0.000016049523793 1

# Energy components:
   Eewald =     5437.5097248703514197
       EH =     6769.9795646498387214
     Eloc =   -13915.4838159332739451
      Enl =       39.4721966560715671
     EvdW =       -0.1322566627205223
      Exc =     -144.8426528977723819
 Exc_core =        2.0817048256331523
       KE =      335.3396589584187950
-------------------------------------
     Etot =    -1476.0758755334529724
       TS =        0.0002726484953061
-------------------------------------
        F =    -1476.0761481819483834


Dumping 'jdft.fillings' ... done
Dumping 'jdft.wfns' ... done
Dumping 'jdft.ionpos' ... done
Dumping 'jdft.lattice' ... done
Dumping 'jdft.eigenvals' ... done
Dumping 'jdft.eigStats' ... 
	eMin: -3.264574 at state 0 ( [ +0.000000 +0.000000 +0.000000 ] spin 1 )
	HOMO: +0.117263 at state 46 ( [ -0.333333 -0.428571 +0.000000 ] spin 1 )
	mu  : +0.117442
	LUMO: +0.119628 at state 106 ( [ -0.333333 +0.142857 +0.000000 ] spin -1 )
	eMax: +0.413268 at state 17 ( [ +0.222222 +0.428571 +0.000000 ] spin 1 )
	HOMO-LUMO gap: +0.002365
	Optical gap  : +0.005652 at state 36 ( [ -0.444444 +0.142857 +0.000000 ] spin 1 )
Dumping 'jdft.Ecomponents' ... done
IonicMinimize: Iter:  10  F: -1476.076148181948383  |grad|_K:  6.859e-05  alpha:  1.000e+00  linmin:  1.732e-02  t[s]:   5958.63
IonicMinimize: Converged (|grad|_K<1.000000e-04).

#--- Lowdin population analysis ---
# oxidation-state Ag -0.066 +0.002 -0.030 -0.026 +0.147 -0.031 +0.002 -0.066 +0.147 -0.025
# magnetic-moments Ag -0.000 -0.000 +0.000 +0.000 -0.000 -0.000 -0.000 -0.000 +0.000 -0.000


Dumping 'jdft.n_up' ... done
Dumping 'jdft.n_dn' ... done
Dumping 'jdft.tau_up' ... done
Dumping 'jdft.tau_dn' ... done
Dumping 'jdft.eigenvals' ... done
Dumping 'jdft.eigStats' ... 
	eMin: -3.264574 at state 0 ( [ +0.000000 +0.000000 +0.000000 ] spin 1 )
	HOMO: +0.117263 at state 46 ( [ -0.333333 -0.428571 +0.000000 ] spin 1 )
	mu  : +0.117442
	LUMO: +0.119628 at state 106 ( [ -0.333333 +0.142857 +0.000000 ] spin -1 )
	eMax: +0.413268 at state 17 ( [ +0.222222 +0.428571 +0.000000 ] spin 1 )
	HOMO-LUMO gap: +0.002365
	Optical gap  : +0.005652 at state 36 ( [ -0.444444 +0.142857 +0.000000 ] spin 1 )
Dumping 'jdft.kPts' ... done
Dumping 'jdft.dosUp' ... done.
Dumping 'jdft.dosDn' ... done.
End date and time: Mon Dec  6 18:47:34 2021  (Duration: 0-1:39:38.51)
Done!
