
*************** JDFTx 1.7.0 (git hash 5f12716a) ***************

Start date and time: Sat Sep 10 11:45:52 2022
Executable /home/nisi6161/jdftx_alpine/build/jdftx with command-line: -i in
Running on hosts (process indices):  c3cpu-a2-u17-1.rc.int.colorado.edu (0-23)
Divided in process groups (process indices):  0 (0)  1 (1)  2 (2)  3 (3)  4 (4)  5 (5)  6 (6)  7 (7)  8 (8)  9 (9)  10 (10)  11 (11)  12 (12)  13 (13)  14 (14)  15 (15)  16 (16)  17 (17)  18 (18)  19 (19)  20 (20)  21 (21)  22 (22)  23 (23)
Resource initialization completed at t[s]:      0.01
Run totals: 24 processes, 64 threads, 0 GPUs


Input parsed successfully to the following command list (including defaults):

basis kpoint-dependent
converge-empty-states yes
coords-type Cartesian
core-overlap-check none
coulomb-interaction Periodic
davidson-band-ratio 1.1
density-of-states Etol 1.000000e-06 Esigma 1.000000e-03 \
		Complete \
	Total \
	OrthoOrbital Pt 1   s \
	OrthoOrbital Pt 1   p \
	OrthoOrbital Pt 1   px \
	OrthoOrbital Pt 1   py \
	OrthoOrbital Pt 1   pz \
	OrthoOrbital Pt 1   d \
	OrthoOrbital Pt 1   dxy \
	OrthoOrbital Pt 1   dyz \
	OrthoOrbital Pt 1   dz2 \
	OrthoOrbital Pt 1   dxz \
	OrthoOrbital Pt 1   dx2-y2 \
	OrthoOrbital Pt 2   s \
	OrthoOrbital Pt 2   p \
	OrthoOrbital Pt 2   px \
	OrthoOrbital Pt 2   py \
	OrthoOrbital Pt 2   pz \
	OrthoOrbital Pt 2   d \
	OrthoOrbital Pt 2   dxy \
	OrthoOrbital Pt 2   dyz \
	OrthoOrbital Pt 2   dz2 \
	OrthoOrbital Pt 2   dxz \
	OrthoOrbital Pt 2   dx2-y2 \
	OrthoOrbital Pt 3   s \
	OrthoOrbital Pt 3   p \
	OrthoOrbital Pt 3   px \
	OrthoOrbital Pt 3   py \
	OrthoOrbital Pt 3   pz \
	OrthoOrbital Pt 3   d \
	OrthoOrbital Pt 3   dxy \
	OrthoOrbital Pt 3   dyz \
	OrthoOrbital Pt 3   dz2 \
	OrthoOrbital Pt 3   dxz \
	OrthoOrbital Pt 3   dx2-y2 \
	OrthoOrbital Pt 4   s \
	OrthoOrbital Pt 4   p \
	OrthoOrbital Pt 4   px \
	OrthoOrbital Pt 4   py \
	OrthoOrbital Pt 4   pz \
	OrthoOrbital Pt 4   d \
	OrthoOrbital Pt 4   dxy \
	OrthoOrbital Pt 4   dyz \
	OrthoOrbital Pt 4   dz2 \
	OrthoOrbital Pt 4   dxz \
	OrthoOrbital Pt 4   dx2-y2 \
	OrthoOrbital Pt 5   s \
	OrthoOrbital Pt 5   p \
	OrthoOrbital Pt 5   px \
	OrthoOrbital Pt 5   py \
	OrthoOrbital Pt 5   pz \
	OrthoOrbital Pt 5   d \
	OrthoOrbital Pt 5   dxy \
	OrthoOrbital Pt 5   dyz \
	OrthoOrbital Pt 5   dz2 \
	OrthoOrbital Pt 5   dxz \
	OrthoOrbital Pt 5   dx2-y2 \
	OrthoOrbital Pt 6   s \
	OrthoOrbital Pt 6   p \
	OrthoOrbital Pt 6   px \
	OrthoOrbital Pt 6   py \
	OrthoOrbital Pt 6   pz \
	OrthoOrbital Pt 6   d \
	OrthoOrbital Pt 6   dxy \
	OrthoOrbital Pt 6   dyz \
	OrthoOrbital Pt 6   dz2 \
	OrthoOrbital Pt 6   dxz \
	OrthoOrbital Pt 6   dx2-y2 \
	OrthoOrbital Pt 7   s \
	OrthoOrbital Pt 7   p \
	OrthoOrbital Pt 7   px \
	OrthoOrbital Pt 7   py \
	OrthoOrbital Pt 7   pz \
	OrthoOrbital Pt 7   d \
	OrthoOrbital Pt 7   dxy \
	OrthoOrbital Pt 7   dyz \
	OrthoOrbital Pt 7   dz2 \
	OrthoOrbital Pt 7   dxz \
	OrthoOrbital Pt 7   dx2-y2 \
	OrthoOrbital Pt 8   s \
	OrthoOrbital Pt 8   p \
	OrthoOrbital Pt 8   px \
	OrthoOrbital Pt 8   py \
	OrthoOrbital Pt 8   pz \
	OrthoOrbital Pt 8   d \
	OrthoOrbital Pt 8   dxy \
	OrthoOrbital Pt 8   dyz \
	OrthoOrbital Pt 8   dz2 \
	OrthoOrbital Pt 8   dxz \
	OrthoOrbital Pt 8   dx2-y2 \
	OrthoOrbital Pt 9   s \
	OrthoOrbital Pt 9   p \
	OrthoOrbital Pt 9   px \
	OrthoOrbital Pt 9   py \
	OrthoOrbital Pt 9   pz \
	OrthoOrbital Pt 9   d \
	OrthoOrbital Pt 9   dxy \
	OrthoOrbital Pt 9   dyz \
	OrthoOrbital Pt 9   dz2 \
	OrthoOrbital Pt 9   dxz \
	OrthoOrbital Pt 9   dx2-y2 \
	OrthoOrbital Pt 10   s \
	OrthoOrbital Pt 10   p \
	OrthoOrbital Pt 10   px \
	OrthoOrbital Pt 10   py \
	OrthoOrbital Pt 10   pz \
	OrthoOrbital Pt 10   d \
	OrthoOrbital Pt 10   dxy \
	OrthoOrbital Pt 10   dyz \
	OrthoOrbital Pt 10   dz2 \
	OrthoOrbital Pt 10   dxz \
	OrthoOrbital Pt 10   dx2-y2 \
	OrthoOrbital Pt 11   s \
	OrthoOrbital Pt 11   p \
	OrthoOrbital Pt 11   px \
	OrthoOrbital Pt 11   py \
	OrthoOrbital Pt 11   pz \
	OrthoOrbital Pt 11   d \
	OrthoOrbital Pt 11   dxy \
	OrthoOrbital Pt 11   dyz \
	OrthoOrbital Pt 11   dz2 \
	OrthoOrbital Pt 11   dxz \
	OrthoOrbital Pt 11   dx2-y2 \
	OrthoOrbital Pt 12   s \
	OrthoOrbital Pt 12   p \
	OrthoOrbital Pt 12   px \
	OrthoOrbital Pt 12   py \
	OrthoOrbital Pt 12   pz \
	OrthoOrbital Pt 12   d \
	OrthoOrbital Pt 12   dxy \
	OrthoOrbital Pt 12   dyz \
	OrthoOrbital Pt 12   dz2 \
	OrthoOrbital Pt 12   dxz \
	OrthoOrbital Pt 12   dx2-y2 \
	OrthoOrbital Pt 13   s \
	OrthoOrbital Pt 13   p \
	OrthoOrbital Pt 13   px \
	OrthoOrbital Pt 13   py \
	OrthoOrbital Pt 13   pz \
	OrthoOrbital Pt 13   d \
	OrthoOrbital Pt 13   dxy \
	OrthoOrbital Pt 13   dyz \
	OrthoOrbital Pt 13   dz2 \
	OrthoOrbital Pt 13   dxz \
	OrthoOrbital Pt 13   dx2-y2 \
	OrthoOrbital Pt 14   s \
	OrthoOrbital Pt 14   p \
	OrthoOrbital Pt 14   px \
	OrthoOrbital Pt 14   py \
	OrthoOrbital Pt 14   pz \
	OrthoOrbital Pt 14   d \
	OrthoOrbital Pt 14   dxy \
	OrthoOrbital Pt 14   dyz \
	OrthoOrbital Pt 14   dz2 \
	OrthoOrbital Pt 14   dxz \
	OrthoOrbital Pt 14   dx2-y2 \
	OrthoOrbital Pt 15   s \
	OrthoOrbital Pt 15   p \
	OrthoOrbital Pt 15   px \
	OrthoOrbital Pt 15   py \
	OrthoOrbital Pt 15   pz \
	OrthoOrbital Pt 15   d \
	OrthoOrbital Pt 15   dxy \
	OrthoOrbital Pt 15   dyz \
	OrthoOrbital Pt 15   dz2 \
	OrthoOrbital Pt 15   dxz \
	OrthoOrbital Pt 15   dx2-y2 \
	OrthoOrbital Pt 16   s \
	OrthoOrbital Pt 16   p \
	OrthoOrbital Pt 16   px \
	OrthoOrbital Pt 16   py \
	OrthoOrbital Pt 16   pz \
	OrthoOrbital Pt 16   d \
	OrthoOrbital Pt 16   dxy \
	OrthoOrbital Pt 16   dyz \
	OrthoOrbital Pt 16   dz2 \
	OrthoOrbital Pt 16   dxz \
	OrthoOrbital Pt 16   dx2-y2 \
	OrthoOrbital Pt 17   s \
	OrthoOrbital Pt 17   p \
	OrthoOrbital Pt 17   px \
	OrthoOrbital Pt 17   py \
	OrthoOrbital Pt 17   pz \
	OrthoOrbital Pt 17   d \
	OrthoOrbital Pt 17   dxy \
	OrthoOrbital Pt 17   dyz \
	OrthoOrbital Pt 17   dz2 \
	OrthoOrbital Pt 17   dxz \
	OrthoOrbital Pt 17   dx2-y2 \
	OrthoOrbital Pt 18   s \
	OrthoOrbital Pt 18   p \
	OrthoOrbital Pt 18   px \
	OrthoOrbital Pt 18   py \
	OrthoOrbital Pt 18   pz \
	OrthoOrbital Pt 18   d \
	OrthoOrbital Pt 18   dxy \
	OrthoOrbital Pt 18   dyz \
	OrthoOrbital Pt 18   dz2 \
	OrthoOrbital Pt 18   dxz \
	OrthoOrbital Pt 18   dx2-y2 \
	OrthoOrbital Pt 19   s \
	OrthoOrbital Pt 19   p \
	OrthoOrbital Pt 19   px \
	OrthoOrbital Pt 19   py \
	OrthoOrbital Pt 19   pz \
	OrthoOrbital Pt 19   d \
	OrthoOrbital Pt 19   dxy \
	OrthoOrbital Pt 19   dyz \
	OrthoOrbital Pt 19   dz2 \
	OrthoOrbital Pt 19   dxz \
	OrthoOrbital Pt 19   dx2-y2 \
	OrthoOrbital Pt 20   s \
	OrthoOrbital Pt 20   p \
	OrthoOrbital Pt 20   px \
	OrthoOrbital Pt 20   py \
	OrthoOrbital Pt 20   pz \
	OrthoOrbital Pt 20   d \
	OrthoOrbital Pt 20   dxy \
	OrthoOrbital Pt 20   dyz \
	OrthoOrbital Pt 20   dz2 \
	OrthoOrbital Pt 20   dxz \
	OrthoOrbital Pt 20   dx2-y2 \
	OrthoOrbital Pt 21   s \
	OrthoOrbital Pt 21   p \
	OrthoOrbital Pt 21   px \
	OrthoOrbital Pt 21   py \
	OrthoOrbital Pt 21   pz \
	OrthoOrbital Pt 21   d \
	OrthoOrbital Pt 21   dxy \
	OrthoOrbital Pt 21   dyz \
	OrthoOrbital Pt 21   dz2 \
	OrthoOrbital Pt 21   dxz \
	OrthoOrbital Pt 21   dx2-y2 \
	OrthoOrbital Pt 22   s \
	OrthoOrbital Pt 22   p \
	OrthoOrbital Pt 22   px \
	OrthoOrbital Pt 22   py \
	OrthoOrbital Pt 22   pz \
	OrthoOrbital Pt 22   d \
	OrthoOrbital Pt 22   dxy \
	OrthoOrbital Pt 22   dyz \
	OrthoOrbital Pt 22   dz2 \
	OrthoOrbital Pt 22   dxz \
	OrthoOrbital Pt 22   dx2-y2 \
	OrthoOrbital Pt 23   s \
	OrthoOrbital Pt 23   p \
	OrthoOrbital Pt 23   px \
	OrthoOrbital Pt 23   py \
	OrthoOrbital Pt 23   pz \
	OrthoOrbital Pt 23   d \
	OrthoOrbital Pt 23   dxy \
	OrthoOrbital Pt 23   dyz \
	OrthoOrbital Pt 23   dz2 \
	OrthoOrbital Pt 23   dxz \
	OrthoOrbital Pt 23   dx2-y2 \
	OrthoOrbital Pt 24   s \
	OrthoOrbital Pt 24   p \
	OrthoOrbital Pt 24   px \
	OrthoOrbital Pt 24   py \
	OrthoOrbital Pt 24   pz \
	OrthoOrbital Pt 24   d \
	OrthoOrbital Pt 24   dxy \
	OrthoOrbital Pt 24   dyz \
	OrthoOrbital Pt 24   dz2 \
	OrthoOrbital Pt 24   dxz \
	OrthoOrbital Pt 24   dx2-y2 \
	OrthoOrbital Pt 25   s \
	OrthoOrbital Pt 25   p \
	OrthoOrbital Pt 25   px \
	OrthoOrbital Pt 25   py \
	OrthoOrbital Pt 25   pz \
	OrthoOrbital Pt 25   d \
	OrthoOrbital Pt 25   dxy \
	OrthoOrbital Pt 25   dyz \
	OrthoOrbital Pt 25   dz2 \
	OrthoOrbital Pt 25   dxz \
	OrthoOrbital Pt 25   dx2-y2 \
	OrthoOrbital Pt 26   s \
	OrthoOrbital Pt 26   p \
	OrthoOrbital Pt 26   px \
	OrthoOrbital Pt 26   py \
	OrthoOrbital Pt 26   pz \
	OrthoOrbital Pt 26   d \
	OrthoOrbital Pt 26   dxy \
	OrthoOrbital Pt 26   dyz \
	OrthoOrbital Pt 26   dz2 \
	OrthoOrbital Pt 26   dxz \
	OrthoOrbital Pt 26   dx2-y2
dump End ElecDensity KEdensity BandEigs EigStats RhoAtom DOS Kpoints
dump Ionic State IonicPositions Lattice EigStats Ecomponents
dump 
dump 
dump 
dump 
dump 
dump 
dump 
dump 
dump-name jdft.$VAR
elec-cutoff 20
elec-eigen-algo Davidson
elec-ex-corr gga-PBE
elec-initial-magnetization 0.000000 no
elec-n-bands 250
elec-smearing Fermi 0.001
electronic-minimize  \
	dirUpdateScheme      FletcherReeves \
	linminMethod         DirUpdateRecommended \
	nIterations          100 \
	history              15 \
	knormThreshold       0 \
	energyDiffThreshold  1e-07 \
	nEnergyDiff          2 \
	alphaTstart          1 \
	alphaTmin            1e-10 \
	updateTestStepSize   yes \
	alphaTreduceFactor   0.1 \
	alphaTincreaseFactor 3 \
	nAlphaAdjustMax      3 \
	wolfeEnergy          0.0001 \
	wolfeGradient        0.9 \
	fdTest               no
exchange-regularization WignerSeitzTruncated
fluid LinearPCM 298.000000 1.013250
fluid-anion F- 0.5 MeanFieldLJ \
	epsBulk 1 \
	pMol 0 \
	epsInf 1 \
	Pvap 0 \
	sigmaBulk 0 \
	Rvdw 2.24877 \
	Res 0 \
	tauNuc 343133
fluid-cation Na+ 0.5 MeanFieldLJ \
	epsBulk 1 \
	pMol 0 \
	epsInf 1 \
	Pvap 0 \
	sigmaBulk 0 \
	Rvdw 2.19208 \
	Res 0 \
	tauNuc 343133
fluid-ex-corr lda-TF lda-PZ
fluid-gummel-loop 10 1.000000e-05
fluid-minimize  \
	dirUpdateScheme      PolakRibiere \
	linminMethod         DirUpdateRecommended \
	nIterations          400 \
	history              15 \
	knormThreshold       1e-11 \
	energyDiffThreshold  0 \
	nEnergyDiff          2 \
	alphaTstart          1 \
	alphaTmin            1e-10 \
	updateTestStepSize   yes \
	alphaTreduceFactor   0.1 \
	alphaTincreaseFactor 3 \
	nAlphaAdjustMax      6 \
	wolfeEnergy          0.0001 \
	wolfeGradient        0.9 \
	fdTest               no
fluid-solvent H2O 55.338 ScalarEOS \
	epsBulk 78.4 \
	pMol 0.92466 \
	epsInf 1.77 \
	Pvap 1.06736e-10 \
	sigmaBulk 4.62e-05 \
	Rvdw 2.61727 \
	Res 1.42 \
	tauNuc 343133 \
	poleEl 15 7 1
forces-output-coords Positions
initial-state jdft.$VAR
ion Pt   0.004658000000000  10.244355999999998  24.366871999999997 1
ion Pt   0.002634000000000   4.101669999999999  19.959872999999998 1
ion Pt   3.705117000000000   7.312145999999999  22.281742999999999 1
ion Pt   3.698765000000000   1.003201000000000  17.915320999999995 1
ion Pt  -0.001454000000000   8.212795999999999  13.889363999999999 1
ion Pt   0.001502000000000   2.050074000000000   9.724066999999998 1
ion Pt   3.697107999999999  11.267018999999998  15.905503999999999 1
ion Pt   3.700471000000000   5.131961999999999  11.799593000000000 1
ion Pt  -0.001643000000000  12.350494999999999   7.622131000000000 1
ion Pt  -0.002579000000000   6.106671000000000   3.512778000000000 1
ion Pt   0.005538000000000   0.003455000000000  25.880638000000001 1
ion Pt   3.697563000000000   9.240007999999998   5.729483999999999 1
ion Pt   3.694966000000000   3.045631999999999   1.681837000000000 1
ion Pt   3.701592000000000  12.307862999999998  20.948695000000001 1
ion Pt   3.698048000000000   6.158306999999999  16.954751000000002 1
ion Pt   0.001591000000000   9.197122999999998  19.056287000000001 1
ion Pt  -0.000932000000000   3.076032000000000  14.879385999999998 1
ion Pt   3.702106000000000  10.279517999999998  10.773395000000001 1
ion Pt   3.696793000000000   4.106831999999999   6.717825000000000 1
ion Pt   0.001435000000000  13.333793999999997  12.789934999999998 1
ion Pt   0.000766000000000   7.204765999999999   8.763097000000000 1
ion Pt  -0.005568000000000   0.896983000000000   4.395714999999999 1
ion Pt   3.694147999999999   8.205846999999999   0.796740000000000 1
ion Pt   3.702206000000000   2.102764000000000  23.164599999999997 1
ion Pt  -0.004480000000000  11.304061999999998   2.309944999999999 1
ion Pt   0.004613000000000   5.163922999999999  24.994820000000001 1
ion-species /projects/musgravc/apps/jdftx-1.6.0/build/pseudopotentials/GBRV_v1.5/$ID_pbe_v1.uspp
ion-species /projects/musgravc/apps/jdftx-1.6.0/build/pseudopotentials/GBRV_v1.5/$ID_pbe_v1.2.uspp
ion-species /projects/musgravc/apps/jdftx-1.6.0/build/pseudopotentials/GBRV_v1.5/$ID_pbe_v1.4.uspp
ion-species /projects/musgravc/apps/jdftx-1.6.0/build/pseudopotentials/GBRV_v1.5/$ID_pbe_v1.5.uspp
ion-width Ecut
ionic-minimize  \
	dirUpdateScheme      L-BFGS \
	linminMethod         DirUpdateRecommended \
	nIterations          100 \
	history              15 \
	knormThreshold       0.0001 \
	energyDiffThreshold  0.0001 \
	nEnergyDiff          2 \
	alphaTstart          1 \
	alphaTmin            1e-10 \
	updateTestStepSize   yes \
	alphaTreduceFactor   0.1 \
	alphaTincreaseFactor 3 \
	nAlphaAdjustMax      3 \
	wolfeEnergy          0.0001 \
	wolfeGradient        0.9 \
	fdTest               no
kpoint   0.000000000000   0.000000000000   0.000000000000  1.00000000000000
kpoint-folding 9 4 1 
latt-move-scale 0 0 0
latt-scale 1 1 1 
lattice  \
	   7.399158000000000   -3.699579000000000    0.000000000000000  \
	   0.000000000000000   13.339022999999999    0.000000000000000  \
	   0.000000000000000    0.000000000000000   80.034133999999995 
lattice-minimize  \
	dirUpdateScheme      L-BFGS \
	linminMethod         DirUpdateRecommended \
	nIterations          0 \
	history              15 \
	knormThreshold       0 \
	energyDiffThreshold  1e-06 \
	nEnergyDiff          2 \
	alphaTstart          1 \
	alphaTmin            1e-10 \
	updateTestStepSize   yes \
	alphaTreduceFactor   0.1 \
	alphaTincreaseFactor 3 \
	nAlphaAdjustMax      3 \
	wolfeEnergy          0.0001 \
	wolfeGradient        0.9 \
	fdTest               no
lcao-params 30 1e-06 0.001
pcm-variant CANDLE
spintype z-spin
subspace-rotation-factor 1 yes
symmetries automatic
symmetry-threshold 0.0001
target-mu -0.208 no

van-der-waals D3



---------- Setting up symmetries ----------

Found 8 point-group symmetries of the bravais lattice
Found 1 space-group symmetries with basis
Applied RMS atom displacement 0 bohrs to make symmetries exact.

---------- Initializing the Grid ----------
R = 
[      7.39916     -3.69958            0  ]
[            0       13.339            0  ]
[            0            0      80.0341  ]
unit cell volume = 7899.17
G =
[   0.849176   0.235519         -0  ]
[          0   0.471038          0  ]
[          0         -0  0.0785063  ]
Minimum fftbox size, Smin = [  32  56  324  ]
Chosen fftbox size, S = [  32  56  324  ]

---------- Exchange Correlation functional ----------
Initalized PBE GGA exchange.
Initalized PBE GGA correlation.

---------- Setting up pseudopotentials ----------
Width of ionic core gaussian charges (only for fluid interactions / plotting) set to 0.397384

Reading pseudopotential file '/projects/musgravc/apps/jdftx-1.6.0/build/pseudopotentials/GBRV_v1.5/pt_pbe_v1.4.uspp':
  Title: Pt.  Created by USPP 7.3.6 on 31-3-15
  Reference state energy: -105.002503.  16 valence electrons in orbitals:
    |510>  occupation: 6  eigenvalue: -2.158104
    |520>  occupation: 9.5  eigenvalue: -0.335376
    |600>  occupation: 0  eigenvalue: -0.319640
    |610>  occupation: 0  eigenvalue: -0.122947
  lMax: 2  lLocal: 3  QijEcut: 5.5
  6 projectors sampled on a log grid with 745 points:
    l: 0  eig: -0.319640  rCut: 2.45
    l: 0  eig: 1.500000  rCut: 2.45
    l: 1  eig: -2.158104  rCut: 1.6
    l: 1  eig: -0.122947  rCut: 1.6
    l: 2  eig: -0.500000  rCut: 1.6
    l: 2  eig: -0.335375  rCut: 1.6
  Partial core density with radius 1.1
  Transforming core density to a uniform radial grid of dG=0.02 with 1264 points.
  Transforming local potential to a uniform radial grid of dG=0.02 with 1264 points.
  Transforming nonlocal projectors to a uniform radial grid of dG=0.02 with 432 points.
  Transforming density augmentations to a uniform radial grid of dG=0.02 with 1264 points.
  Transforming atomic orbitals to a uniform radial grid of dG=0.02 with 432 points.
  Core radius for overlap checks: 2.45 bohrs.

Initialized 1 species with 26 total atoms.

Folded 1 k-points by 9x4x1 to 36 k-points.

---------- Setting up k-points, bands, fillings ----------
Adding inversion symmetry to k-mesh for non-inversion-symmetric unit cell.
Reduced to 19 k-points under symmetry. 
Computing the number of bands and number of electrons
Reading initial fillings from file jdft.fillings.
nElectrons: 415.231961   nBands: 250   nStates: 38

----- Setting up reduced wavefunction bases (one per k-point) -----
average nbasis = 33742.806 , ideal nbasis = 33745.865

----- Initializing Supercell corresponding to k-point mesh -----
Lattice vector linear combinations in supercell:
[   9   0   0  ]
[   0   4   0  ]
[   0   0   1  ]
Supercell lattice vectors:
[  66.5924  -14.7983  0  ]
[  0  53.3561  0  ]
[  0  0  80.0341  ]

Initializing DFT-D3 calculator:
	Parameters set for gga-PBE functional
	s6:  1.000  s_r6:  1.217
	s8:  0.722  s_r8:  1.000
	Per-atom parameters loaded for:
	Pt:  sqrtQ[a0]:  5.888  Rcov[a0]:  2.116  CN: [ 0.00 1.92 6.67 ]

Initializing DFT-D2 calculator for fluid / solvation:
	Pt:  C6:  815.23 Eh-a0^6  R0: 3.326 a0 (WARNING: beyond Grimme's data set)

---------- Setting up ewald sum ----------
Optimum gaussian width for ewald sums = 4.616098 bohr.
Real space sum over 935 unit cells with max indices [  8  5  2  ]
Reciprocal space sum over 6669 terms with max indices [  4  6  28  ]

Computing DFT-D3 correction:
# coordination-number Pt 6.997 9.392 8.581 9.510 9.535 9.448 9.565 9.550 9.393 8.627 5.282 9.394 5.971 9.397 9.451 9.397 9.551 9.563 9.390 9.534 9.508 8.578 5.282 8.629 6.994 5.972
# diagonal-C6 Pt 336.87 336.87 336.87 336.87 336.87 336.87 336.87 336.87 336.87 336.87 336.87 336.87 336.87 336.87 336.87 336.87 336.87 336.87 336.87 336.87 336.87 336.87 336.87 336.87 336.87 336.87
EvdW_6 =   -0.233145
EvdW_8 =   -0.376073

---------- Allocating electronic variables ----------
Initializing wave functions:  reading from 'jdft.wfns'
----- createFluidSolver() ----- (Fluid-side solver setup)
   Initializing fluid molecule 'H2O'
     Initializing site 'O'
       Electron density: proportional to exp(-r/0.36935)*erfc((r-0.51523)/0.36823) with norm 6.826
       Charge density: gaussian nuclear width 0.478731 with net site charge 0.826
       Polarizability: cuspless exponential with width 0.32 and norm 3.73
       Hard sphere radius: 2.57003 bohrs
       Positions in reference frame:
         [ +0.000000 +0.000000 +0.000000 ]
     Initializing site 'H'
       Electron density: proportional to exp(-r/0.34641)*erfc((r-0)/0.390882) with norm 0.587
       Charge density: gaussian nuclear width 0.377945 with net site charge -0.413
       Polarizability: cuspless exponential with width 0.39 and norm 3.3
       Positions in reference frame:
         [ +0.000000 -1.441945 +1.122523 ]
         [ +0.000000 +1.441945 +1.122523 ]
     Net charge: 0   dipole magnitude: 0.927204
     Initializing spherical shell mfKernel with radius 2.61727 Bohr
     deltaS corrections:
       site 'O': -7.54299
       site 'H': -6.83917
   Initializing fluid molecule 'Na+'
     Initializing site 'Na'
       Electron density: proportional to exp(-r/0.19682)*erfc((r-0.71491)/0.41314) with norm 8.1383
       Charge density: gaussian nuclear width 0.365347 with net site charge -1
       Hard sphere radius: 1.86327 bohrs
       Positions in reference frame:
         [ +0.000000 +0.000000 +0.000000 ]
     Net charge: -1   dipole magnitude: 0
     Initializing gaussian mfKernel with width: 1.55004 Bohr
     deltaS corrections:
       site 'Na': -22.3555
   Initializing fluid molecule 'F-'
     Initializing site 'F'
       Electron density: proportional to exp(-r/0.38886)*erfc((r-0)/0.438782) with norm 8
       Charge density: gaussian nuclear width 0.374796 with net site charge 1
       Hard sphere radius: 2.39995 bohrs
       Positions in reference frame:
         [ +0.000000 +0.000000 +0.000000 ]
     Net charge: 1   dipole magnitude: 0
     Initializing gaussian mfKernel with width: 1.59012 Bohr
     deltaS corrections:
       site 'F': -9.04335

Correction to mu due to finite nuclear width = -0.052253
   Cavity determined by nc: 0.00142 and sigma: 0.707107
   Nonlocal vdW cavity from gaussian model electron density with norm = 8 and sigma = 0.993594 bohr
   Charge asymmetry in cavity with sensitivity pCavity = 36.5 e-bohr/Eh
   Electrostatic cavity expanded by eta = 1.46 bohrs
   Weighted density cavitation model constrained by Nbulk: 0.0049383 bohr^-3, Pvap: 3.14029 kPa, Rvdw: 2.61727 bohr and sigmaBulk: 4.62e-05 Eh/bohr^2 at T: 298 K.
   Weighted density dispersion model using vdW pair potentials with single solvent site with sqrtC6eff: 0.77 SI.
Reading fluid state from 'jdft.fluidState'


---- Citations for features of the code used in this run ----

   Software package:
      R. Sundararaman, K. Letchworth-Weaver, K.A. Schwarz, D. Gunceler, Y. Ozhabes and T.A. Arias, 'JDFTx: software for joint density-functional theory', SoftwareX 6, 278 (2017)

   gga-PBE exchange-correlation functional:
      J.P. Perdew, K. Burke and M. Ernzerhof, Phys. Rev. Lett. 77, 3865 (1996)

   Pseudopotentials:
      KF Garrity, JW Bennett, KM Rabe and D Vanderbilt, Comput. Mater. Sci. 81, 446 (2014)

   DFT-D3 dispersion correction:
      S. Grimme, J. Antony, S. Ehrlich and H. Krieg, J. Chem. Phys. 132, 154104 (2010)

   DFT-D2 dispersion correction:
      S. Grimme, J. Comput. Chem. 27, 1787 (2006)

   Charge-asymmetric nonlocally-determined local-electric (CANDLE) solvation model:
      R. Sundararaman and W.A. Goddard III, J. Chem. Phys. 142, 064107 (2015)

   Total energy minimization with Auxiliary Hamiltonian:
      C. Freysoldt, S. Boeck, and J. Neugebauer, Phys. Rev. B 79, 241103(R) (2009)

   Grand-canonical (fixed-potential) DFT:
      R. Sundararaman, W. A. Goddard III and T. A. Arias, J. Chem. Phys. 146, 114104 (2017)

   Linear-tetrahedron sampling for density of states:
      G. Lehmann and M. Taut, Phys. status solidi (b) 54, 469 (1972)

This list may not be complete. Please suggest additional citations or
report any other bugs at https://github.com/shankar1729/jdftx/issues

Initialization completed successfully at t[s]:     33.45


Computing DFT-D3 correction:
# coordination-number Pt 6.997 9.392 8.581 9.510 9.535 9.448 9.565 9.550 9.393 8.627 5.282 9.394 5.971 9.397 9.451 9.397 9.551 9.563 9.390 9.534 9.508 8.578 5.282 8.629 6.994 5.972
# diagonal-C6 Pt 336.87 336.87 336.87 336.87 336.87 336.87 336.87 336.87 336.87 336.87 336.87 336.87 336.87 336.87 336.87 336.87 336.87 336.87 336.87 336.87 336.87 336.87 336.87 336.87 336.87 336.87
EvdW_6 =   -0.233145
EvdW_8 =   -0.376073
Shifting auxilliary hamiltonian by 0.036820 to set nElectrons=415.231961

-------- Electronic minimization -----------
	Linear fluid (dielectric constant: 78.4, screening length: 8.12261 Bohr) occupying 0.569805 of unit cell:	Completed after 28 iterations at t[s]:     64.25
	FillingsUpdate:  mu: -0.208000000  nElectrons: 415.231961  magneticMoment: [ Abs: 0.00027  Tot: -0.00009 ]
ElecMinimize: Iter:   0  G: -2224.808553899846174  |grad|_K:  3.155e-04  alpha:  1.000e+00
	Linear fluid (dielectric constant: 78.4, screening length: 8.12261 Bohr) occupying 0.567655 of unit cell:	Completed after 41 iterations at t[s]:    203.70
	Linear fluid (dielectric constant: 78.4, screening length: 8.12261 Bohr) occupying 0.569721 of unit cell:	Completed after 42 iterations at t[s]:    255.00
	FillingsUpdate:  mu: -0.208000000  nElectrons: 414.442420  magneticMoment: [ Abs: 0.00028  Tot: -0.00009 ]
	SubspaceRotationAdjust: set factor to 0.514
ElecMinimize: Iter:   1  G: -2224.864444149243354  |grad|_K:  2.804e-04  alpha:  3.200e-03  linmin:  2.044e-02  t[s]:    320.39
	Linear fluid (dielectric constant: 78.4, screening length: 8.12261 Bohr) occupying 0.569681 of unit cell:	Completed after 23 iterations at t[s]:    382.31
ElecMinimize: 	Predicted alpha/alphaT>3.000000, increasing alphaT to 9.600861e-03.
	Linear fluid (dielectric constant: 78.4, screening length: 8.12261 Bohr) occupying 0.569601 of unit cell:	Completed after 24 iterations at t[s]:    429.86
ElecMinimize: 	Predicted alpha/alphaT>3.000000, increasing alphaT to 2.880258e-02.
	Linear fluid (dielectric constant: 78.4, screening length: 8.12261 Bohr) occupying 0.569360 of unit cell:	Completed after 25 iterations at t[s]:    477.96
	Linear fluid (dielectric constant: 78.4, screening length: 8.12261 Bohr) occupying 0.570828 of unit cell:	Completed after 28 iterations at t[s]:    526.48
	FillingsUpdate:  mu: -0.208000000  nElectrons: 415.860322  magneticMoment: [ Abs: 0.00024  Tot: -0.00007 ]
	SubspaceRotationAdjust: set factor to 0.262
ElecMinimize: Iter:   2  G: -2225.692447646620167  |grad|_K:  3.425e-04  alpha:  6.883e-02  linmin: -2.886e-03  t[s]:    592.05
	Linear fluid (dielectric constant: 78.4, screening length: 8.12261 Bohr) occupying 0.567749 of unit cell:	Completed after 30 iterations at t[s]:    655.34
	Linear fluid (dielectric constant: 78.4, screening length: 8.12261 Bohr) occupying 0.568789 of unit cell:	Completed after 31 iterations at t[s]:    704.64
	FillingsUpdate:  mu: -0.208000000  nElectrons: 415.106369  magneticMoment: [ Abs: 0.00024  Tot: -0.00008 ]
	SubspaceRotationAdjust: set factor to 0.208
ElecMinimize: Iter:   3  G: -2225.923342289756874  |grad|_K:  1.152e-04  alpha:  4.685e-03  linmin: -9.375e-03  t[s]:    769.61
	Linear fluid (dielectric constant: 78.4, screening length: 8.12261 Bohr) occupying 0.568774 of unit cell:	Completed after 23 iterations at t[s]:    831.44
ElecMinimize: 	Predicted alpha/alphaT>3.000000, increasing alphaT to 1.405495e-02.
	Linear fluid (dielectric constant: 78.4, screening length: 8.12261 Bohr) occupying 0.568744 of unit cell:	Completed after 24 iterations at t[s]:    878.92
	Linear fluid (dielectric constant: 78.4, screening length: 8.12261 Bohr) occupying 0.568658 of unit cell:	Completed after 26 iterations at t[s]:    927.29
	FillingsUpdate:  mu: -0.208000000  nElectrons: 415.115689  magneticMoment: [ Abs: 0.00024  Tot: -0.00007 ]
	SubspaceRotationAdjust: set factor to 0.137
ElecMinimize: Iter:   4  G: -2226.131596485198770  |grad|_K:  1.158e-04  alpha:  4.116e-02  linmin:  4.730e-04  t[s]:    992.32
	Linear fluid (dielectric constant: 78.4, screening length: 8.12261 Bohr) occupying 0.582163 of unit cell:	Completed after 36 iterations at t[s]:   1057.03
	Linear fluid (dielectric constant: 78.4, screening length: 8.12261 Bohr) occupying 0.569287 of unit cell:	Completed after 28 iterations at t[s]:   1105.48
	FillingsUpdate:  mu: -0.208000000  nElectrons: 415.787266  magneticMoment: [ Abs: 0.00024  Tot: -0.00006 ]
	SubspaceRotationAdjust: set factor to 0.0889
	SubspaceRotationAdjust: resetting CG because factor has changed by 0.0888778
	Linear fluid (dielectric constant: 78.4, screening length: 8.12261 Bohr) occupying 0.569287 of unit cell:	Completed after 0 iterations at t[s]:   1191.63
ElecMinimize: 	State modified externally: resetting search direction.
ElecMinimize: Iter:   5  G: -2226.210164493585125  |grad|_K:  9.483e-05  alpha:  2.091e-02
	Linear fluid (dielectric constant: 78.4, screening length: 8.12261 Bohr) occupying 0.568532 of unit cell:	Completed after 24 iterations at t[s]:   1318.51
	Linear fluid (dielectric constant: 78.4, screening length: 8.12261 Bohr) occupying 0.568506 of unit cell:	Completed after 25 iterations at t[s]:   1366.56
	FillingsUpdate:  mu: -0.208000000  nElectrons: 415.134155  magneticMoment: [ Abs: 0.00024  Tot: -0.00007 ]
	SubspaceRotationAdjust: set factor to 0.0574
ElecMinimize: Iter:   6  G: -2226.329428663605086  |grad|_K:  8.867e-05  alpha:  4.384e-02  linmin:  9.866e-03  t[s]:   1431.96
	Linear fluid (dielectric constant: 78.4, screening length: 8.12261 Bohr) occupying 0.568421 of unit cell:	Completed after 26 iterations at t[s]:   1494.10
	Linear fluid (dielectric constant: 78.4, screening length: 8.12261 Bohr) occupying 0.568393 of unit cell:	Completed after 24 iterations at t[s]:   1541.69
	FillingsUpdate:  mu: -0.208000000  nElectrons: 415.490161  magneticMoment: [ Abs: 0.00024  Tot: -0.00007 ]
	SubspaceRotationAdjust: set factor to 0.0531
ElecMinimize: Iter:   7  G: -2226.464012328526223  |grad|_K:  4.318e-05  alpha:  5.848e-02  linmin: -1.770e-03  t[s]:   1606.92
	Linear fluid (dielectric constant: 78.4, screening length: 8.12261 Bohr) occupying 0.568299 of unit cell:	Completed after 24 iterations at t[s]:   1668.77
	Linear fluid (dielectric constant: 78.4, screening length: 8.12261 Bohr) occupying 0.568419 of unit cell:	Completed after 25 iterations at t[s]:   1716.42
	FillingsUpdate:  mu: -0.208000000  nElectrons: 415.945214  magneticMoment: [ Abs: 0.00023  Tot: -0.00007 ]
	SubspaceRotationAdjust: set factor to 0.0296
ElecMinimize: Iter:   8  G: -2226.567561226001544  |grad|_K:  6.171e-05  alpha:  1.693e-01  linmin: -1.132e-03  t[s]:   1781.58
	Linear fluid (dielectric constant: 78.4, screening length: 8.12261 Bohr) occupying 0.567329 of unit cell:	Completed after 26 iterations at t[s]:   1844.19
	Linear fluid (dielectric constant: 78.4, screening length: 8.12261 Bohr) occupying 0.567885 of unit cell:	Completed after 25 iterations at t[s]:   1891.77
	FillingsUpdate:  mu: -0.208000000  nElectrons: 415.639647  magneticMoment: [ Abs: 0.00023  Tot: -0.00007 ]
	SubspaceRotationAdjust: set factor to 0.0694
ElecMinimize: Iter:   9  G: -2226.631212135910573  |grad|_K:  1.211e-05  alpha:  5.019e-02  linmin: -2.713e-03  t[s]:   1956.77
	Linear fluid (dielectric constant: 78.4, screening length: 8.12261 Bohr) occupying 0.567818 of unit cell:	Completed after 20 iterations at t[s]:   2017.67
ElecMinimize: 	Predicted alpha/alphaT>3.000000, increasing alphaT to 1.505582e-01.
	Linear fluid (dielectric constant: 78.4, screening length: 8.12261 Bohr) occupying 0.567684 of unit cell:	Completed after 21 iterations at t[s]:   2064.74
	Linear fluid (dielectric constant: 78.4, screening length: 8.12261 Bohr) occupying 0.567606 of unit cell:	Completed after 21 iterations at t[s]:   2111.75
	FillingsUpdate:  mu: -0.208000000  nElectrons: 415.508034  magneticMoment: [ Abs: 0.00023  Tot: -0.00008 ]
	SubspaceRotationAdjust: set factor to 0.0387
ElecMinimize: Iter:  10  G: -2226.641219751980316  |grad|_K:  2.351e-05  alpha:  2.097e-01  linmin:  8.806e-05  t[s]:   2176.78
	Linear fluid (dielectric constant: 78.4, screening length: 8.12261 Bohr) occupying 0.567369 of unit cell:	Completed after 26 iterations at t[s]:   2238.84
	Linear fluid (dielectric constant: 78.4, screening length: 8.12261 Bohr) occupying 0.567288 of unit cell:	Completed after 24 iterations at t[s]:   2286.54
	FillingsUpdate:  mu: -0.208000000  nElectrons: 415.652647  magneticMoment: [ Abs: 0.00023  Tot: -0.00007 ]
	SubspaceRotationAdjust: set factor to 0.025
ElecMinimize: Iter:  11  G: -2226.650568664731054  |grad|_K:  6.960e-06  alpha:  5.332e-02  linmin:  1.099e-03  t[s]:   2352.20
	Linear fluid (dielectric constant: 78.4, screening length: 8.12261 Bohr) occupying 0.567212 of unit cell:	Completed after 19 iterations at t[s]:   2413.05
ElecMinimize: 	Predicted alpha/alphaT>3.000000, increasing alphaT to 1.599571e-01.
	Linear fluid (dielectric constant: 78.4, screening length: 8.12261 Bohr) occupying 0.567060 of unit cell:	Completed after 20 iterations at t[s]:   2459.61
	Linear fluid (dielectric constant: 78.4, screening length: 8.12261 Bohr) occupying 0.566759 of unit cell:	Completed after 20 iterations at t[s]:   2506.81
	FillingsUpdate:  mu: -0.208000000  nElectrons: 415.640801  magneticMoment: [ Abs: 0.00023  Tot: -0.00007 ]
	SubspaceRotationAdjust: set factor to 0.0209
ElecMinimize: Iter:  12  G: -2226.656264023528820  |grad|_K:  5.726e-06  alpha:  3.702e-01  linmin:  1.031e-04  t[s]:   2571.89
	Linear fluid (dielectric constant: 78.4, screening length: 8.12261 Bohr) occupying 0.566174 of unit cell:	Completed after 22 iterations at t[s]:   2633.85
	Linear fluid (dielectric constant: 78.4, screening length: 8.12261 Bohr) occupying 0.566004 of unit cell:	Completed after 19 iterations at t[s]:   2680.15
	FillingsUpdate:  mu: -0.208000000  nElectrons: 415.680558  magneticMoment: [ Abs: 0.00023  Tot: -0.00007 ]
	SubspaceRotationAdjust: set factor to 0.0234
ElecMinimize: Iter:  13  G: -2226.661286549455781  |grad|_K:  4.895e-06  alpha:  4.768e-01  linmin: -7.628e-05  t[s]:   2745.49
	Linear fluid (dielectric constant: 78.4, screening length: 8.12261 Bohr) occupying 0.565307 of unit cell:	Completed after 23 iterations at t[s]:   2807.05
	Linear fluid (dielectric constant: 78.4, screening length: 8.12261 Bohr) occupying 0.565690 of unit cell:	Completed after 21 iterations at t[s]:   2853.81
	FillingsUpdate:  mu: -0.208000000  nElectrons: 415.630173  magneticMoment: [ Abs: 0.00023  Tot: -0.00008 ]
	SubspaceRotationAdjust: set factor to 0.0175
ElecMinimize: Iter:  14  G: -2226.662972729600369  |grad|_K:  5.322e-06  alpha:  2.164e-01  linmin: -8.803e-05  t[s]:   2918.82
	Linear fluid (dielectric constant: 78.4, screening length: 8.12261 Bohr) occupying 0.565304 of unit cell:	Completed after 21 iterations at t[s]:   2980.27
	Linear fluid (dielectric constant: 78.4, screening length: 8.12261 Bohr) occupying 0.565301 of unit cell:	Completed after 7 iterations at t[s]:   3023.81
	FillingsUpdate:  mu: -0.208000000  nElectrons: 415.688167  magneticMoment: [ Abs: 0.00022  Tot: -0.00007 ]
	SubspaceRotationAdjust: set factor to 0.0153
ElecMinimize: Iter:  15  G: -2226.664970875200652  |grad|_K:  3.637e-06  alpha:  2.182e-01  linmin: -8.391e-05  t[s]:   3089.05
	Linear fluid (dielectric constant: 78.4, screening length: 8.12261 Bohr) occupying 0.565124 of unit cell:	Completed after 19 iterations at t[s]:   3149.80
ElecMinimize: 	Predicted alpha/alphaT>3.000000, increasing alphaT to 6.546911e-01.
	Linear fluid (dielectric constant: 78.4, screening length: 8.12261 Bohr) occupying 0.564760 of unit cell:	Completed after 20 iterations at t[s]:   3196.39
	Linear fluid (dielectric constant: 78.4, screening length: 8.12261 Bohr) occupying 0.564727 of unit cell:	Completed after 12 iterations at t[s]:   3241.01
	FillingsUpdate:  mu: -0.208000000  nElectrons: 415.684499  magneticMoment: [ Abs: 0.00022  Tot: -0.00007 ]
	SubspaceRotationAdjust: set factor to 0.0157
ElecMinimize: Iter:  16  G: -2226.667932423041293  |grad|_K:  3.953e-06  alpha:  6.930e-01  linmin:  3.646e-05  t[s]:   3306.26
	Linear fluid (dielectric constant: 78.4, screening length: 8.12261 Bohr) occupying 0.564227 of unit cell:	Completed after 21 iterations at t[s]:   3367.21
	Linear fluid (dielectric constant: 78.4, screening length: 8.12261 Bohr) occupying 0.564264 of unit cell:	Completed after 11 iterations at t[s]:   3411.85
	FillingsUpdate:  mu: -0.208000000  nElectrons: 415.697831  magneticMoment: [ Abs: 0.00022  Tot: -0.00007 ]
	SubspaceRotationAdjust: set factor to 0.0163
ElecMinimize: Iter:  17  G: -2226.671158502255821  |grad|_K:  4.135e-06  alpha:  6.438e-01  linmin: -3.482e-05  t[s]:   3476.37
	Linear fluid (dielectric constant: 78.4, screening length: 8.12261 Bohr) occupying 0.564038 of unit cell:	Completed after 21 iterations at t[s]:   3538.04
	Linear fluid (dielectric constant: 78.4, screening length: 8.12261 Bohr) occupying 0.564098 of unit cell:	Completed after 16 iterations at t[s]:   3583.57
	FillingsUpdate:  mu: -0.208000000  nElectrons: 415.640364  magneticMoment: [ Abs: 0.00021  Tot: -0.00007 ]
	SubspaceRotationAdjust: set factor to 0.0147
ElecMinimize: Iter:  18  G: -2226.673851277729227  |grad|_K:  5.251e-06  alpha:  4.831e-01  linmin:  3.175e-05  t[s]:   3648.86
	Linear fluid (dielectric constant: 78.4, screening length: 8.12261 Bohr) occupying 0.564095 of unit cell:	Completed after 20 iterations at t[s]:   3709.87
	Linear fluid (dielectric constant: 78.4, screening length: 8.12261 Bohr) occupying 0.564103 of unit cell:	Completed after 19 iterations at t[s]:   3756.41
	FillingsUpdate:  mu: -0.208000000  nElectrons: 415.692042  magneticMoment: [ Abs: 0.00021  Tot: -0.00007 ]
	SubspaceRotationAdjust: set factor to 0.011
	SubspaceRotationAdjust: resetting CG because factor has changed by 0.123367
	Linear fluid (dielectric constant: 78.4, screening length: 8.12261 Bohr) occupying 0.564103 of unit cell:	Completed after 0 iterations at t[s]:   3843.00
ElecMinimize: 	State modified externally: resetting search direction.
ElecMinimize: Iter:  19  G: -2226.676117381872245  |grad|_K:  4.567e-06  alpha:  2.644e-01
	Linear fluid (dielectric constant: 78.4, screening length: 8.12261 Bohr) occupying 0.564241 of unit cell:	Completed after 20 iterations at t[s]:   3968.57
	Linear fluid (dielectric constant: 78.4, screening length: 8.12261 Bohr) occupying 0.564230 of unit cell:	Completed after 12 iterations at t[s]:   4013.27
	FillingsUpdate:  mu: -0.208000000  nElectrons: 415.652217  magneticMoment: [ Abs: 0.00021  Tot: -0.00007 ]
	SubspaceRotationAdjust: set factor to 0.011
ElecMinimize: Iter:  20  G: -2226.677751796409211  |grad|_K:  2.655e-06  alpha:  2.435e-01  linmin: -3.279e-06  t[s]:   4078.20
	Linear fluid (dielectric constant: 78.4, screening length: 8.12261 Bohr) occupying 0.564396 of unit cell:	Completed after 15 iterations at t[s]:   4137.99
	Linear fluid (dielectric constant: 78.4, screening length: 8.12261 Bohr) occupying 0.564441 of unit cell:	Completed after 13 iterations at t[s]:   4183.00
	FillingsUpdate:  mu: -0.208000000  nElectrons: 415.683156  magneticMoment: [ Abs: 0.00021  Tot: -0.00007 ]
	SubspaceRotationAdjust: set factor to 0.00895
ElecMinimize: Iter:  21  G: -2226.678456456339518  |grad|_K:  2.113e-06  alpha:  3.107e-01  linmin: -2.865e-05  t[s]:   4248.08
	Linear fluid (dielectric constant: 78.4, screening length: 8.12261 Bohr) occupying 0.564682 of unit cell:	Completed after 13 iterations at t[s]:   4307.10
	Linear fluid (dielectric constant: 78.4, screening length: 8.12261 Bohr) occupying 0.564905 of unit cell:	Completed after 13 iterations at t[s]:   4352.35
	FillingsUpdate:  mu: -0.208000000  nElectrons: 415.668173  magneticMoment: [ Abs: 0.00021  Tot: -0.00007 ]
	SubspaceRotationAdjust: set factor to 0.0106
ElecMinimize: Iter:  22  G: -2226.679331110512976  |grad|_K:  1.803e-06  alpha:  6.089e-01  linmin:  3.233e-05  t[s]:   4415.61
	Linear fluid (dielectric constant: 78.4, screening length: 8.12261 Bohr) occupying 0.565327 of unit cell:	Completed after 15 iterations at t[s]:   4473.81
	Linear fluid (dielectric constant: 78.4, screening length: 8.12261 Bohr) occupying 0.565357 of unit cell:	Completed after 7 iterations at t[s]:   4516.54
	FillingsUpdate:  mu: -0.208000000  nElectrons: 415.660479  magneticMoment: [ Abs: 0.00020  Tot: -0.00007 ]
	SubspaceRotationAdjust: set factor to 0.013
ElecMinimize: Iter:  23  G: -2226.680014329335336  |grad|_K:  1.585e-06  alpha:  6.538e-01  linmin: -6.210e-06  t[s]:   4580.37
	Linear fluid (dielectric constant: 78.4, screening length: 8.12261 Bohr) occupying 0.565683 of unit cell:	Completed after 15 iterations at t[s]:   4638.85
	Linear fluid (dielectric constant: 78.4, screening length: 8.12261 Bohr) occupying 0.565829 of unit cell:	Completed after 11 iterations at t[s]:   4682.31
	FillingsUpdate:  mu: -0.208000000  nElectrons: 415.646321  magneticMoment: [ Abs: 0.00020  Tot: -0.00007 ]
	SubspaceRotationAdjust: set factor to 0.0146
ElecMinimize: Iter:  24  G: -2226.680785085639855  |grad|_K:  2.004e-06  alpha:  9.536e-01  linmin:  4.845e-06  t[s]:   4746.04
	Linear fluid (dielectric constant: 78.4, screening length: 8.12261 Bohr) occupying 0.566363 of unit cell:	Completed after 18 iterations at t[s]:   4805.40
	Linear fluid (dielectric constant: 78.4, screening length: 8.12261 Bohr) occupying 0.566332 of unit cell:	Completed after 12 iterations at t[s]:   4848.90
	FillingsUpdate:  mu: -0.208000000  nElectrons: 415.604824  magneticMoment: [ Abs: 0.00020  Tot: -0.00007 ]
	SubspaceRotationAdjust: set factor to 0.0127
ElecMinimize: Iter:  25  G: -2226.681945427696974  |grad|_K:  2.846e-06  alpha:  8.972e-01  linmin:  5.120e-05  t[s]:   4912.58
	Linear fluid (dielectric constant: 78.4, screening length: 8.12261 Bohr) occupying 0.566991 of unit cell:	Completed after 21 iterations at t[s]:   4972.31
	Linear fluid (dielectric constant: 78.4, screening length: 8.12261 Bohr) occupying 0.566537 of unit cell:	Completed after 21 iterations at t[s]:   5018.25
	FillingsUpdate:  mu: -0.208000000  nElectrons: 415.636326  magneticMoment: [ Abs: 0.00019  Tot: -0.00007 ]
	SubspaceRotationAdjust: set factor to 0.00929
ElecMinimize: Iter:  26  G: -2226.682620931888778  |grad|_K:  2.764e-06  alpha:  2.721e-01  linmin:  2.731e-04  t[s]:   5081.94
	Linear fluid (dielectric constant: 78.4, screening length: 8.12261 Bohr) occupying 0.566593 of unit cell:	Completed after 14 iterations at t[s]:   5140.26
	Linear fluid (dielectric constant: 78.4, screening length: 8.12261 Bohr) occupying 0.566663 of unit cell:	Completed after 15 iterations at t[s]:   5184.60
	FillingsUpdate:  mu: -0.208000000  nElectrons: 415.610685  magneticMoment: [ Abs: 0.00019  Tot: -0.00007 ]
	SubspaceRotationAdjust: set factor to 0.00917
ElecMinimize: Iter:  27  G: -2226.684082432087962  |grad|_K:  3.027e-06  alpha:  6.237e-01  linmin:  1.838e-04  t[s]:   5248.22
	Linear fluid (dielectric constant: 78.4, screening length: 8.12261 Bohr) occupying 0.566480 of unit cell:	Completed after 18 iterations at t[s]:   5307.51
	Linear fluid (dielectric constant: 78.4, screening length: 8.12261 Bohr) occupying 0.566375 of unit cell:	Completed after 16 iterations at t[s]:   5352.02
	FillingsUpdate:  mu: -0.208000000  nElectrons: 415.572402  magneticMoment: [ Abs: 0.00017  Tot: -0.00007 ]
	SubspaceRotationAdjust: set factor to 0.00987
ElecMinimize: Iter:  28  G: -2226.686758687756083  |grad|_K:  4.158e-06  alpha:  9.620e-01  linmin:  3.043e-04  t[s]:   5415.82
	Linear fluid (dielectric constant: 78.4, screening length: 8.12261 Bohr) occupying 0.565400 of unit cell:	Completed after 18 iterations at t[s]:   5474.91
	Linear fluid (dielectric constant: 78.4, screening length: 8.12261 Bohr) occupying 0.565963 of unit cell:	Completed after 17 iterations at t[s]:   5519.87
	FillingsUpdate:  mu: -0.208000000  nElectrons: 415.615474  magneticMoment: [ Abs: 0.00016  Tot: -0.00007 ]
	SubspaceRotationAdjust: set factor to 0.00839
ElecMinimize: Iter:  29  G: -2226.688683374093671  |grad|_K:  3.754e-06  alpha:  4.206e-01  linmin:  3.049e-04  t[s]:   5583.27
	Linear fluid (dielectric constant: 78.4, screening length: 8.12261 Bohr) occupying 0.565465 of unit cell:	Completed after 20 iterations at t[s]:   5642.63
	Linear fluid (dielectric constant: 78.4, screening length: 8.12261 Bohr) occupying 0.565493 of unit cell:	Completed after 12 iterations at t[s]:   5686.48
	FillingsUpdate:  mu: -0.208000000  nElectrons: 415.598812  magneticMoment: [ Abs: 0.00015  Tot: -0.00007 ]
	SubspaceRotationAdjust: set factor to 0.00826
ElecMinimize: Iter:  30  G: -2226.690388897668072  |grad|_K:  2.602e-06  alpha:  3.978e-01  linmin:  1.636e-04  t[s]:   5749.78
	Linear fluid (dielectric constant: 78.4, screening length: 8.12261 Bohr) occupying 0.565195 of unit cell:	Completed after 15 iterations at t[s]:   5808.61
	Linear fluid (dielectric constant: 78.4, screening length: 8.12261 Bohr) occupying 0.565033 of unit cell:	Completed after 13 iterations at t[s]:   5852.29
	FillingsUpdate:  mu: -0.208000000  nElectrons: 415.636810  magneticMoment: [ Abs: 0.00015  Tot: -0.00007 ]
	SubspaceRotationAdjust: set factor to 0.0106
ElecMinimize: Iter:  31  G: -2226.691685112914456  |grad|_K:  2.133e-06  alpha:  6.062e-01  linmin: -1.122e-04  t[s]:   5915.90
	Linear fluid (dielectric constant: 78.4, screening length: 8.12261 Bohr) occupying 0.564629 of unit cell:	Completed after 18 iterations at t[s]:   5975.09
	Linear fluid (dielectric constant: 78.4, screening length: 8.12261 Bohr) occupying 0.564588 of unit cell:	Completed after 10 iterations at t[s]:   6018.33
	FillingsUpdate:  mu: -0.208000000  nElectrons: 415.676523  magneticMoment: [ Abs: 0.00014  Tot: -0.00007 ]
	SubspaceRotationAdjust: set factor to 0.0127
ElecMinimize: Iter:  32  G: -2226.692673708979783  |grad|_K:  2.088e-06  alpha:  6.661e-01  linmin: -6.303e-05  t[s]:   6082.19
	Linear fluid (dielectric constant: 78.4, screening length: 8.12261 Bohr) occupying 0.564074 of unit cell:	Completed after 15 iterations at t[s]:   6140.68
	Linear fluid (dielectric constant: 78.4, screening length: 8.12261 Bohr) occupying 0.564266 of unit cell:	Completed after 13 iterations at t[s]:   6184.76
	FillingsUpdate:  mu: -0.208000000  nElectrons: 415.671780  magneticMoment: [ Abs: 0.00014  Tot: -0.00007 ]
	SubspaceRotationAdjust: set factor to 0.0121
ElecMinimize: Iter:  33  G: -2226.693275473227914  |grad|_K:  2.262e-06  alpha:  4.219e-01  linmin: -1.486e-05  t[s]:   6248.07
	Linear fluid (dielectric constant: 78.4, screening length: 8.12261 Bohr) occupying 0.563875 of unit cell:	Completed after 16 iterations at t[s]:   6306.23
	Linear fluid (dielectric constant: 78.4, screening length: 8.12261 Bohr) occupying 0.563938 of unit cell:	Completed after 13 iterations at t[s]:   6350.14
	FillingsUpdate:  mu: -0.208000000  nElectrons: 415.716982  magneticMoment: [ Abs: 0.00014  Tot: -0.00007 ]
	SubspaceRotationAdjust: set factor to 0.011
ElecMinimize: Iter:  34  G: -2226.693859098696066  |grad|_K:  1.952e-06  alpha:  3.551e-01  linmin: -3.782e-05  t[s]:   6413.72
	Linear fluid (dielectric constant: 78.4, screening length: 8.12261 Bohr) occupying 0.563689 of unit cell:	Completed after 14 iterations at t[s]:   6472.01
	Linear fluid (dielectric constant: 78.4, screening length: 8.12261 Bohr) occupying 0.563508 of unit cell:	Completed after 13 iterations at t[s]:   6515.94
	FillingsUpdate:  mu: -0.208000000  nElectrons: 415.731029  magneticMoment: [ Abs: 0.00013  Tot: -0.00006 ]
	SubspaceRotationAdjust: set factor to 0.0119
ElecMinimize: Iter:  35  G: -2226.694601869154667  |grad|_K:  1.664e-06  alpha:  6.060e-01  linmin:  9.294e-05  t[s]:   6579.61
	Linear fluid (dielectric constant: 78.4, screening length: 8.12261 Bohr) occupying 0.563241 of unit cell:	Completed after 16 iterations at t[s]:   6638.50
	Linear fluid (dielectric constant: 78.4, screening length: 8.12261 Bohr) occupying 0.563243 of unit cell:	Completed after 0 iterations at t[s]:   6679.24
	FillingsUpdate:  mu: -0.208000000  nElectrons: 415.753931  magneticMoment: [ Abs: 0.00013  Tot: -0.00006 ]
	SubspaceRotationAdjust: set factor to 0.0127
ElecMinimize: Iter:  36  G: -2226.695133013309260  |grad|_K:  1.423e-06  alpha:  6.016e-01  linmin: -3.477e-05  t[s]:   6742.53
	Linear fluid (dielectric constant: 78.4, screening length: 8.12261 Bohr) occupying 0.563123 of unit cell:	Completed after 14 iterations at t[s]:   6800.99
	Linear fluid (dielectric constant: 78.4, screening length: 8.12261 Bohr) occupying 0.563148 of unit cell:	Completed after 11 iterations at t[s]:   6844.54
	FillingsUpdate:  mu: -0.208000000  nElectrons: 415.742509  magneticMoment: [ Abs: 0.00013  Tot: -0.00006 ]
	SubspaceRotationAdjust: set factor to 0.0114
ElecMinimize: Iter:  37  G: -2226.695445195042339  |grad|_K:  1.574e-06  alpha:  4.768e-01  linmin:  2.308e-05  t[s]:   6907.87
	Linear fluid (dielectric constant: 78.4, screening length: 8.12261 Bohr) occupying 0.563106 of unit cell:	Completed after 15 iterations at t[s]:   6966.26
	Linear fluid (dielectric constant: 78.4, screening length: 8.12261 Bohr) occupying 0.563122 of unit cell:	Completed after 14 iterations at t[s]:   7010.44
	FillingsUpdate:  mu: -0.208000000  nElectrons: 415.761810  magneticMoment: [ Abs: 0.00012  Tot: -0.00006 ]
	SubspaceRotationAdjust: set factor to 0.00923
ElecMinimize: Iter:  38  G: -2226.695691481059839  |grad|_K:  1.308e-06  alpha:  3.110e-01  linmin:  5.383e-06  t[s]:   7073.98
	Linear fluid (dielectric constant: 78.4, screening length: 8.12261 Bohr) occupying 0.563149 of unit cell:	Completed after 12 iterations at t[s]:   7131.73
	Linear fluid (dielectric constant: 78.4, screening length: 8.12261 Bohr) occupying 0.563169 of unit cell:	Completed after 12 iterations at t[s]:   7175.45
	FillingsUpdate:  mu: -0.208000000  nElectrons: 415.752501  magneticMoment: [ Abs: 0.00012  Tot: -0.00006 ]
	SubspaceRotationAdjust: set factor to 0.00972
ElecMinimize: Iter:  39  G: -2226.695994431952840  |grad|_K:  1.039e-06  alpha:  5.518e-01  linmin:  9.067e-05  t[s]:   7238.94
	Linear fluid (dielectric constant: 78.4, screening length: 8.12261 Bohr) occupying 0.563276 of unit cell:	Completed after 11 iterations at t[s]:   7296.30
	Linear fluid (dielectric constant: 78.4, screening length: 8.12261 Bohr) occupying 0.563282 of unit cell:	Completed after 2 iterations at t[s]:   7337.75
	FillingsUpdate:  mu: -0.208000000  nElectrons: 415.749533  magneticMoment: [ Abs: 0.00012  Tot: -0.00006 ]
	SubspaceRotationAdjust: set factor to 0.0116
ElecMinimize: Iter:  40  G: -2226.696195821695255  |grad|_K:  8.376e-07  alpha:  5.837e-01  linmin: -6.269e-06  t[s]:   7401.35
	Linear fluid (dielectric constant: 78.4, screening length: 8.12261 Bohr) occupying 0.563416 of unit cell:	Completed after 11 iterations at t[s]:   7458.98
	Linear fluid (dielectric constant: 78.4, screening length: 8.12261 Bohr) occupying 0.563432 of unit cell:	Completed after 7 iterations at t[s]:   7501.32
	FillingsUpdate:  mu: -0.208000000  nElectrons: 415.748438  magneticMoment: [ Abs: 0.00012  Tot: -0.00006 ]
	SubspaceRotationAdjust: set factor to 0.0134
ElecMinimize: Iter:  41  G: -2226.696343603916830  |grad|_K:  7.855e-07  alpha:  6.543e-01  linmin: -3.046e-05  t[s]:   7564.99
	Linear fluid (dielectric constant: 78.4, screening length: 8.12261 Bohr) occupying 0.563597 of unit cell:	Completed after 14 iterations at t[s]:   7623.23
	Linear fluid (dielectric constant: 78.4, screening length: 8.12261 Bohr) occupying 0.563549 of unit cell:	Completed after 12 iterations at t[s]:   7666.59
	FillingsUpdate:  mu: -0.208000000  nElectrons: 415.735247  magneticMoment: [ Abs: 0.00012  Tot: -0.00006 ]
	SubspaceRotationAdjust: set factor to 0.0109
ElecMinimize: Iter:  42  G: -2226.696435413150994  |grad|_K:  8.886e-07  alpha:  4.610e-01  linmin:  3.775e-06  t[s]:   7730.42
	Linear fluid (dielectric constant: 78.4, screening length: 8.12261 Bohr) occupying 0.563707 of unit cell:	Completed after 13 iterations at t[s]:   7788.41
	Linear fluid (dielectric constant: 78.4, screening length: 8.12261 Bohr) occupying 0.563649 of unit cell:	Completed after 12 iterations at t[s]:   7831.73
	FillingsUpdate:  mu: -0.208000000  nElectrons: 415.740335  magneticMoment: [ Abs: 0.00012  Tot: -0.00006 ]
	SubspaceRotationAdjust: set factor to 0.00913
ElecMinimize: Iter:  43  G: -2226.696508959320909  |grad|_K:  6.999e-07  alpha:  2.900e-01  linmin:  1.802e-05  t[s]:   7895.57
	Linear fluid (dielectric constant: 78.4, screening length: 8.12261 Bohr) occupying 0.563706 of unit cell:	Completed after 11 iterations at t[s]:   7953.32
	Linear fluid (dielectric constant: 78.4, screening length: 8.12261 Bohr) occupying 0.563753 of unit cell:	Completed after 11 iterations at t[s]:   7996.92
	FillingsUpdate:  mu: -0.208000000  nElectrons: 415.730669  magneticMoment: [ Abs: 0.00012  Tot: -0.00006 ]
	SubspaceRotationAdjust: set factor to 0.0107
ElecMinimize: Iter:  44  G: -2226.696593043368011  |grad|_K:  5.540e-07  alpha:  5.346e-01  linmin:  7.531e-05  t[s]:   8060.35
	Linear fluid (dielectric constant: 78.4, screening length: 8.12261 Bohr) occupying 0.563797 of unit cell:	Completed after 11 iterations at t[s]:   8117.81
	Linear fluid (dielectric constant: 78.4, screening length: 8.12261 Bohr) occupying 0.563803 of unit cell:	Completed after 8 iterations at t[s]:   8160.15
	FillingsUpdate:  mu: -0.208000000  nElectrons: 415.720289  magneticMoment: [ Abs: 0.00011  Tot: -0.00006 ]
	SubspaceRotationAdjust: set factor to 0.011
ElecMinimize: Iter:  45  G: -2226.696653115848676  |grad|_K:  5.221e-07  alpha:  6.100e-01  linmin:  2.104e-05  t[s]:   8223.25
	Linear fluid (dielectric constant: 78.4, screening length: 8.12261 Bohr) occupying 0.563823 of unit cell:	Completed after 12 iterations at t[s]:   8281.31
	Linear fluid (dielectric constant: 78.4, screening length: 8.12261 Bohr) occupying 0.563814 of unit cell:	Completed after 12 iterations at t[s]:   8324.75
	FillingsUpdate:  mu: -0.208000000  nElectrons: 415.721981  magneticMoment: [ Abs: 0.00011  Tot: -0.00006 ]
	SubspaceRotationAdjust: set factor to 0.00884
ElecMinimize: Iter:  46  G: -2226.696682237228288  |grad|_K:  4.533e-07  alpha:  3.323e-01  linmin:  2.222e-05  t[s]:   8388.37
	Linear fluid (dielectric constant: 78.4, screening length: 8.12261 Bohr) occupying 0.563808 of unit cell:	Completed after 12 iterations at t[s]:   8446.11
	Linear fluid (dielectric constant: 78.4, screening length: 8.12261 Bohr) occupying 0.563808 of unit cell:	Completed after 2 iterations at t[s]:   8487.65
	FillingsUpdate:  mu: -0.208000000  nElectrons: 415.715030  magneticMoment: [ Abs: 0.00011  Tot: -0.00006 ]
	SubspaceRotationAdjust: set factor to 0.0083
ElecMinimize: Iter:  47  G: -2226.696705359708176  |grad|_K:  3.011e-07  alpha:  3.499e-01  linmin: -3.552e-04  t[s]:   8551.17
	Linear fluid (dielectric constant: 78.4, screening length: 8.12261 Bohr) occupying 0.563795 of unit cell:	Completed after 10 iterations at t[s]:   8608.49
	Linear fluid (dielectric constant: 78.4, screening length: 8.12261 Bohr) occupying 0.563787 of unit cell:	Completed after 7 iterations at t[s]:   8651.07
	FillingsUpdate:  mu: -0.208000000  nElectrons: 415.713065  magneticMoment: [ Abs: 0.00011  Tot: -0.00006 ]
	SubspaceRotationAdjust: set factor to 0.0102
ElecMinimize: Iter:  48  G: -2226.696721732187598  |grad|_K:  2.507e-07  alpha:  5.571e-01  linmin: -2.515e-04  t[s]:   8714.51
	Linear fluid (dielectric constant: 78.4, screening length: 8.12261 Bohr) occupying 0.563763 of unit cell:	Completed after 11 iterations at t[s]:   8772.32
	Linear fluid (dielectric constant: 78.4, screening length: 8.12261 Bohr) occupying 0.563767 of unit cell:	Completed after 7 iterations at t[s]:   8814.68
	FillingsUpdate:  mu: -0.208000000  nElectrons: 415.715520  magneticMoment: [ Abs: 0.00011  Tot: -0.00006 ]
	SubspaceRotationAdjust: set factor to 0.00989
ElecMinimize: Iter:  49  G: -2226.696731430125510  |grad|_K:  2.548e-07  alpha:  4.771e-01  linmin:  3.658e-04  t[s]:   8878.15
	Linear fluid (dielectric constant: 78.4, screening length: 8.12261 Bohr) occupying 0.563738 of unit cell:	Completed after 12 iterations at t[s]:   8936.21
	Linear fluid (dielectric constant: 78.4, screening length: 8.12261 Bohr) occupying 0.563745 of unit cell:	Completed after 10 iterations at t[s]:   8979.30
	FillingsUpdate:  mu: -0.208000000  nElectrons: 415.713447  magneticMoment: [ Abs: 0.00011  Tot: -0.00006 ]
	SubspaceRotationAdjust: set factor to 0.00998
ElecMinimize: Iter:  50  G: -2226.696738866146006  |grad|_K:  2.048e-07  alpha:  3.586e-01  linmin: -5.192e-05  t[s]:   9042.99
	Linear fluid (dielectric constant: 78.4, screening length: 8.12261 Bohr) occupying 0.563729 of unit cell:	Completed after 9 iterations at t[s]:   9100.21
	Linear fluid (dielectric constant: 78.4, screening length: 8.12261 Bohr) occupying 0.563720 of unit cell:	Completed after 7 iterations at t[s]:   9142.86
	FillingsUpdate:  mu: -0.208000000  nElectrons: 415.715521  magneticMoment: [ Abs: 0.00011  Tot: -0.00006 ]
	SubspaceRotationAdjust: set factor to 0.0126
ElecMinimize: Iter:  51  G: -2226.696746543771496  |grad|_K:  1.883e-07  alpha:  5.687e-01  linmin:  2.477e-06  t[s]:   9206.11
	Linear fluid (dielectric constant: 78.4, screening length: 8.12261 Bohr) occupying 0.563697 of unit cell:	Completed after 8 iterations at t[s]:   9262.98
	Linear fluid (dielectric constant: 78.4, screening length: 8.12261 Bohr) occupying 0.563688 of unit cell:	Completed after 7 iterations at t[s]:   9305.59
	FillingsUpdate:  mu: -0.208000000  nElectrons: 415.718264  magneticMoment: [ Abs: 0.00011  Tot: -0.00006 ]
	SubspaceRotationAdjust: set factor to 0.0151
ElecMinimize: Iter:  52  G: -2226.696755598423351  |grad|_K:  2.219e-07  alpha:  7.931e-01  linmin: -6.339e-05  t[s]:   9369.15
	Linear fluid (dielectric constant: 78.4, screening length: 8.12261 Bohr) occupying 0.563646 of unit cell:	Completed after 12 iterations at t[s]:   9426.92
	Linear fluid (dielectric constant: 78.4, screening length: 8.12261 Bohr) occupying 0.563663 of unit cell:	Completed after 11 iterations at t[s]:   9470.24
	FillingsUpdate:  mu: -0.208000000  nElectrons: 415.717117  magneticMoment: [ Abs: 0.00011  Tot: -0.00006 ]
	SubspaceRotationAdjust: set factor to 0.0139
ElecMinimize: Iter:  53  G: -2226.696763163829019  |grad|_K:  2.971e-07  alpha:  4.752e-01  linmin: -1.136e-06  t[s]:   9533.74
	Linear fluid (dielectric constant: 78.4, screening length: 8.12261 Bohr) occupying 0.563624 of unit cell:	Completed after 12 iterations at t[s]:   9591.30
	Linear fluid (dielectric constant: 78.4, screening length: 8.12261 Bohr) occupying 0.563638 of unit cell:	Completed after 11 iterations at t[s]:   9634.93
	FillingsUpdate:  mu: -0.208000000  nElectrons: 415.722353  magneticMoment: [ Abs: 0.00011  Tot: -0.00006 ]
	SubspaceRotationAdjust: set factor to 0.0115
ElecMinimize: Iter:  54  G: -2226.696771782157612  |grad|_K:  2.551e-07  alpha:  3.037e-01  linmin:  5.569e-06  t[s]:   9698.42
	Linear fluid (dielectric constant: 78.4, screening length: 8.12261 Bohr) occupying 0.563623 of unit cell:	Completed after 7 iterations at t[s]:   9755.14
	Linear fluid (dielectric constant: 78.4, screening length: 8.12261 Bohr) occupying 0.563605 of unit cell:	Completed after 11 iterations at t[s]:   9798.60
	FillingsUpdate:  mu: -0.208000000  nElectrons: 415.724000  magneticMoment: [ Abs: 0.00010  Tot: -0.00006 ]
	SubspaceRotationAdjust: set factor to 0.0119
ElecMinimize: Iter:  55  G: -2226.696786316051657  |grad|_K:  2.619e-07  alpha:  6.990e-01  linmin:  1.031e-04  t[s]:   9862.09
	Linear fluid (dielectric constant: 78.4, screening length: 8.12261 Bohr) occupying 0.563585 of unit cell:	Completed after 11 iterations at t[s]:   9919.90
	Linear fluid (dielectric constant: 78.4, screening length: 8.12261 Bohr) occupying 0.563586 of unit cell:	Completed after 0 iterations at t[s]:   9960.64
	FillingsUpdate:  mu: -0.208000000  nElectrons: 415.726431  magneticMoment: [ Abs: 0.00010  Tot: -0.00006 ]
	SubspaceRotationAdjust: set factor to 0.0128
ElecMinimize: Iter:  56  G: -2226.696801174718530  |grad|_K:  2.354e-07  alpha:  6.789e-01  linmin:  1.820e-05  t[s]:  10024.00
	Linear fluid (dielectric constant: 78.4, screening length: 8.12261 Bohr) occupying 0.563586 of unit cell:	Completed after 9 iterations at t[s]:  10081.54
	Linear fluid (dielectric constant: 78.4, screening length: 8.12261 Bohr) occupying 0.563586 of unit cell:	Completed after 2 iterations at t[s]:  10122.67
	FillingsUpdate:  mu: -0.208000000  nElectrons: 415.727592  magneticMoment: [ Abs: 0.00010  Tot: -0.00005 ]
	SubspaceRotationAdjust: set factor to 0.0144
ElecMinimize: Iter:  57  G: -2226.696811960615378  |grad|_K:  2.087e-07  alpha:  6.056e-01  linmin:  2.210e-05  t[s]:  10186.44
	Linear fluid (dielectric constant: 78.4, screening length: 8.12261 Bohr) occupying 0.563597 of unit cell:	Completed after 11 iterations at t[s]:  10243.92
	Linear fluid (dielectric constant: 78.4, screening length: 8.12261 Bohr) occupying 0.563597 of unit cell:	Completed after 0 iterations at t[s]:  10285.06
	FillingsUpdate:  mu: -0.208000000  nElectrons: 415.726079  magneticMoment: [ Abs: 0.00010  Tot: -0.00005 ]
	SubspaceRotationAdjust: set factor to 0.0157
ElecMinimize: Iter:  58  G: -2226.696820327762453  |grad|_K:  2.146e-07  alpha:  5.980e-01  linmin:  3.313e-05  t[s]:  10348.44
	Linear fluid (dielectric constant: 78.4, screening length: 8.12261 Bohr) occupying 0.563618 of unit cell:	Completed after 11 iterations at t[s]:  10406.24
	Linear fluid (dielectric constant: 78.4, screening length: 8.12261 Bohr) occupying 0.563608 of unit cell:	Completed after 11 iterations at t[s]:  10449.48
	FillingsUpdate:  mu: -0.208000000  nElectrons: 415.728266  magneticMoment: [ Abs: 0.00009  Tot: -0.00005 ]
	SubspaceRotationAdjust: set factor to 0.0137
ElecMinimize: Iter:  59  G: -2226.696824819806352  |grad|_K:  2.317e-07  alpha:  3.055e-01  linmin:  1.073e-05  t[s]:  10512.88
	Linear fluid (dielectric constant: 78.4, screening length: 8.12261 Bohr) occupying 0.563623 of unit cell:	Completed after 11 iterations at t[s]:  10570.85
	Linear fluid (dielectric constant: 78.4, screening length: 8.12261 Bohr) occupying 0.563625 of unit cell:	Completed after 3 iterations at t[s]:  10612.44
	FillingsUpdate:  mu: -0.208000000  nElectrons: 415.725151  magneticMoment: [ Abs: 0.00009  Tot: -0.00005 ]
	SubspaceRotationAdjust: set factor to 0.0138
ElecMinimize: Iter:  60  G: -2226.696830556608347  |grad|_K:  1.729e-07  alpha:  3.323e-01  linmin: -7.390e-05  t[s]:  10676.19
	Linear fluid (dielectric constant: 78.4, screening length: 8.12261 Bohr) occupying 0.563636 of unit cell:	Completed after 4 iterations at t[s]:  10732.14
	Linear fluid (dielectric constant: 78.4, screening length: 8.12261 Bohr) occupying 0.563648 of unit cell:	Completed after 4 iterations at t[s]:  10774.00
	FillingsUpdate:  mu: -0.208000000  nElectrons: 415.724132  magneticMoment: [ Abs: 0.00009  Tot: -0.00006 ]
	SubspaceRotationAdjust: set factor to 0.0174
ElecMinimize: Iter:  61  G: -2226.696836856374830  |grad|_K:  1.659e-07  alpha:  6.531e-01  linmin:  4.215e-05  t[s]:  10837.28
	Linear fluid (dielectric constant: 78.4, screening length: 8.12261 Bohr) occupying 0.563671 of unit cell:	Completed after 10 iterations at t[s]:  10894.79
	Linear fluid (dielectric constant: 78.4, screening length: 8.12261 Bohr) occupying 0.563670 of unit cell:	Completed after 0 iterations at t[s]:  10935.65
	FillingsUpdate:  mu: -0.208000000  nElectrons: 415.723753  magneticMoment: [ Abs: 0.00009  Tot: -0.00006 ]
	SubspaceRotationAdjust: set factor to 0.019
ElecMinimize: Iter:  62  G: -2226.696842474667847  |grad|_K:  1.952e-07  alpha:  6.369e-01  linmin: -1.675e-05  t[s]:  10999.34
	Linear fluid (dielectric constant: 78.4, screening length: 8.12261 Bohr) occupying 0.563699 of unit cell:	Completed after 12 iterations at t[s]:  11057.19
	Linear fluid (dielectric constant: 78.4, screening length: 8.12261 Bohr) occupying 0.563682 of unit cell:	Completed after 12 iterations at t[s]:  11100.78
	FillingsUpdate:  mu: -0.208000000  nElectrons: 415.720464  magneticMoment: [ Abs: 0.00009  Tot: -0.00006 ]
	SubspaceRotationAdjust: set factor to 0.0161
ElecMinimize: Iter:  63  G: -2226.696845522959393  |grad|_K:  2.265e-07  alpha:  2.493e-01  linmin:  4.066e-06  t[s]:  11163.97
	Linear fluid (dielectric constant: 78.4, screening length: 8.12261 Bohr) occupying 0.563697 of unit cell:	Completed after 9 iterations at t[s]:  11220.99
	Linear fluid (dielectric constant: 78.4, screening length: 8.12261 Bohr) occupying 0.563704 of unit cell:	Completed after 9 iterations at t[s]:  11264.18
	FillingsUpdate:  mu: -0.208000000  nElectrons: 415.720559  magneticMoment: [ Abs: 0.00009  Tot: -0.00007 ]
	SubspaceRotationAdjust: set factor to 0.0163
ElecMinimize: Iter:  64  G: -2226.696851590831102  |grad|_K:  1.818e-07  alpha:  3.681e-01  linmin:  5.601e-06  t[s]:  11327.54
	Linear fluid (dielectric constant: 78.4, screening length: 8.12261 Bohr) occupying 0.563715 of unit cell:	Completed after 3 iterations at t[s]:  11383.52
	Linear fluid (dielectric constant: 78.4, screening length: 8.12261 Bohr) occupying 0.563725 of unit cell:	Completed after 3 iterations at t[s]:  11424.93
	FillingsUpdate:  mu: -0.208000000  nElectrons: 415.718652  magneticMoment: [ Abs: 0.00013  Tot: -0.00010 ]
	SubspaceRotationAdjust: set factor to 0.0188
ElecMinimize: Iter:  65  G: -2226.696858780289858  |grad|_K:  1.833e-07  alpha:  6.764e-01  linmin: -1.008e-06  t[s]:  11488.87
	Linear fluid (dielectric constant: 78.4, screening length: 8.12261 Bohr) occupying 0.563739 of unit cell:	Completed after 12 iterations at t[s]:  11546.98
	Linear fluid (dielectric constant: 78.4, screening length: 8.12261 Bohr) occupying 0.563737 of unit cell:	Completed after 6 iterations at t[s]:  11589.04
	FillingsUpdate:  mu: -0.208000000  nElectrons: 415.715248  magneticMoment: [ Abs: 0.00015  Tot: -0.00013 ]
	SubspaceRotationAdjust: set factor to 0.0181
ElecMinimize: Iter:  66  G: -2226.696864936252041  |grad|_K:  2.453e-07  alpha:  5.707e-01  linmin: -1.543e-05  t[s]:  11652.89
	Linear fluid (dielectric constant: 78.4, screening length: 8.12261 Bohr) occupying 0.563753 of unit cell:	Completed after 13 iterations at t[s]:  11711.02
	Linear fluid (dielectric constant: 78.4, screening length: 8.12261 Bohr) occupying 0.563742 of unit cell:	Completed after 12 iterations at t[s]:  11754.75
	FillingsUpdate:  mu: -0.208000000  nElectrons: 415.717144  magneticMoment: [ Abs: 0.00016  Tot: -0.00015 ]
	SubspaceRotationAdjust: set factor to 0.0133
ElecMinimize: Iter:  67  G: -2226.696868378169711  |grad|_K:  1.974e-07  alpha:  1.784e-01  linmin:  2.544e-05  t[s]:  11818.27
	Linear fluid (dielectric constant: 78.4, screening length: 8.12261 Bohr) occupying 0.563743 of unit cell:	Completed after 7 iterations at t[s]:  11874.88
	Linear fluid (dielectric constant: 78.4, screening length: 8.12261 Bohr) occupying 0.563745 of unit cell:	Completed after 8 iterations at t[s]:  11917.66
	FillingsUpdate:  mu: -0.208000000  nElectrons: 415.715425  magneticMoment: [ Abs: 0.00019  Tot: -0.00018 ]
	SubspaceRotationAdjust: set factor to 0.0163
ElecMinimize: Iter:  68  G: -2226.696873998059800  |grad|_K:  1.484e-07  alpha:  4.528e-01  linmin:  7.499e-05  t[s]:  11981.42
	Linear fluid (dielectric constant: 78.4, screening length: 8.12261 Bohr) occupying 0.563742 of unit cell:	Completed after 7 iterations at t[s]:  12038.13
	Linear fluid (dielectric constant: 78.4, screening length: 8.12261 Bohr) occupying 0.563741 of unit cell:	Completed after 2 iterations at t[s]:  12079.54
	FillingsUpdate:  mu: -0.208000000  nElectrons: 415.714376  magneticMoment: [ Abs: 0.00021  Tot: -0.00020 ]
	SubspaceRotationAdjust: set factor to 0.018
ElecMinimize: Iter:  69  G: -2226.696877832553128  |grad|_K:  1.360e-07  alpha:  5.461e-01  linmin: -3.432e-05  t[s]:  12143.32
	Linear fluid (dielectric constant: 78.4, screening length: 8.12261 Bohr) occupying 0.563734 of unit cell:	Completed after 11 iterations at t[s]:  12200.79
	Linear fluid (dielectric constant: 78.4, screening length: 8.12261 Bohr) occupying 0.563737 of unit cell:	Completed after 10 iterations at t[s]:  12243.84
	FillingsUpdate:  mu: -0.208000000  nElectrons: 415.716292  magneticMoment: [ Abs: 0.00022  Tot: -0.00022 ]
	SubspaceRotationAdjust: set factor to 0.0151
ElecMinimize: Iter:  70  G: -2226.696879830773469  |grad|_K:  1.569e-07  alpha:  3.291e-01  linmin:  5.164e-05  t[s]:  12307.40
	Linear fluid (dielectric constant: 78.4, screening length: 8.12261 Bohr) occupying 0.563729 of unit cell:	Completed after 10 iterations at t[s]:  12364.55
	Linear fluid (dielectric constant: 78.4, screening length: 8.12261 Bohr) occupying 0.563731 of unit cell:	Completed after 8 iterations at t[s]:  12407.37
	FillingsUpdate:  mu: -0.208000000  nElectrons: 415.715303  magneticMoment: [ Abs: 0.00024  Tot: -0.00023 ]
	SubspaceRotationAdjust: set factor to 0.0124
ElecMinimize: Iter:  71  G: -2226.696881755007780  |grad|_K:  1.039e-07  alpha:  2.436e-01  linmin:  6.457e-05  t[s]:  12470.93
	Linear fluid (dielectric constant: 78.4, screening length: 8.12261 Bohr) occupying 0.563727 of unit cell:	Completed after 7 iterations at t[s]:  12527.50
	Linear fluid (dielectric constant: 78.4, screening length: 8.12261 Bohr) occupying 0.563724 of unit cell:	Completed after 7 iterations at t[s]:  12570.05
	FillingsUpdate:  mu: -0.208000000  nElectrons: 415.716570  magneticMoment: [ Abs: 0.00025  Tot: -0.00025 ]
	SubspaceRotationAdjust: set factor to 0.0133
ElecMinimize: Iter:  72  G: -2226.696883402394633  |grad|_K:  7.799e-08  alpha:  4.733e-01  linmin: -1.756e-04  t[s]:  12633.44
	Linear fluid (dielectric constant: 78.4, screening length: 8.12261 Bohr) occupying 0.563718 of unit cell:	Completed after 6 iterations at t[s]:  12689.76
	Linear fluid (dielectric constant: 78.4, screening length: 8.12261 Bohr) occupying 0.563717 of unit cell:	Completed after 0 iterations at t[s]:  12730.54
	FillingsUpdate:  mu: -0.208000000  nElectrons: 415.716759  magneticMoment: [ Abs: 0.00027  Tot: -0.00026 ]
	SubspaceRotationAdjust: set factor to 0.0144
ElecMinimize: Iter:  73  G: -2226.696884491344008  |grad|_K:  6.653e-08  alpha:  5.491e-01  linmin: -2.234e-04  t[s]:  12794.24
	Linear fluid (dielectric constant: 78.4, screening length: 8.12261 Bohr) occupying 0.563711 of unit cell:	Completed after 7 iterations at t[s]:  12850.80
	Linear fluid (dielectric constant: 78.4, screening length: 8.12261 Bohr) occupying 0.563711 of unit cell:	Completed after 0 iterations at t[s]:  12891.66
	FillingsUpdate:  mu: -0.208000000  nElectrons: 415.717730  magneticMoment: [ Abs: 0.00027  Tot: -0.00027 ]
	SubspaceRotationAdjust: set factor to 0.015
ElecMinimize: Iter:  74  G: -2226.696885225524056  |grad|_K:  6.134e-08  alpha:  5.073e-01  linmin:  4.194e-04  t[s]:  12955.35
	Linear fluid (dielectric constant: 78.4, screening length: 8.12261 Bohr) occupying 0.563706 of unit cell:	Completed after 9 iterations at t[s]:  13012.66
	Linear fluid (dielectric constant: 78.4, screening length: 8.12261 Bohr) occupying 0.563708 of unit cell:	Completed after 8 iterations at t[s]:  13055.78
	FillingsUpdate:  mu: -0.208000000  nElectrons: 415.717343  magneticMoment: [ Abs: 0.00028  Tot: -0.00027 ]
	SubspaceRotationAdjust: set factor to 0.013
ElecMinimize: Iter:  75  G: -2226.696885589148224  |grad|_K:  6.269e-08  alpha:  3.153e-01  linmin: -6.151e-06  t[s]:  13119.30
	Linear fluid (dielectric constant: 78.4, screening length: 8.12261 Bohr) occupying 0.563705 of unit cell:	Completed after 9 iterations at t[s]:  13176.72
	Linear fluid (dielectric constant: 78.4, screening length: 8.12261 Bohr) occupying 0.563705 of unit cell:	Completed after 0 iterations at t[s]:  13217.19
	FillingsUpdate:  mu: -0.208000000  nElectrons: 415.718216  magneticMoment: [ Abs: 0.00029  Tot: -0.00028 ]
	SubspaceRotationAdjust: set factor to 0.0111
ElecMinimize: Iter:  76  G: -2226.696885955980633  |grad|_K:  4.992e-08  alpha:  2.898e-01  linmin:  2.610e-04  t[s]:  13281.02
	Linear fluid (dielectric constant: 78.4, screening length: 8.12261 Bohr) occupying 0.563704 of unit cell:	Completed after 4 iterations at t[s]:  13336.86
	Linear fluid (dielectric constant: 78.4, screening length: 8.12261 Bohr) occupying 0.563703 of unit cell:	Completed after 4 iterations at t[s]:  13378.87
	FillingsUpdate:  mu: -0.208000000  nElectrons: 415.718034  magneticMoment: [ Abs: 0.00030  Tot: -0.00030 ]
	SubspaceRotationAdjust: set factor to 0.0115
ElecMinimize: Iter:  77  G: -2226.696886323288709  |grad|_K:  4.536e-08  alpha:  4.585e-01  linmin: -6.324e-04  t[s]:  13442.49
	Linear fluid (dielectric constant: 78.4, screening length: 8.12261 Bohr) occupying 0.563702 of unit cell:	Completed after 6 iterations at t[s]:  13498.90
	Linear fluid (dielectric constant: 78.4, screening length: 8.12261 Bohr) occupying 0.563701 of unit cell:	Completed after 0 iterations at t[s]:  13539.62
	FillingsUpdate:  mu: -0.208000000  nElectrons: 415.718510  magneticMoment: [ Abs: 0.00031  Tot: -0.00030 ]
	SubspaceRotationAdjust: set factor to 0.0128
ElecMinimize: Iter:  78  G: -2226.696886670257754  |grad|_K:  4.224e-08  alpha:  5.040e-01  linmin: -4.248e-04  t[s]:  13603.26
	Linear fluid (dielectric constant: 78.4, screening length: 8.12261 Bohr) occupying 0.563701 of unit cell:	Completed after 3 iterations at t[s]:  13659.10
	Linear fluid (dielectric constant: 78.4, screening length: 8.12261 Bohr) occupying 0.563701 of unit cell:	Completed after 0 iterations at t[s]:  13699.62
	FillingsUpdate:  mu: -0.208000000  nElectrons: 415.718355  magneticMoment: [ Abs: 0.00032  Tot: -0.00031 ]
	SubspaceRotationAdjust: set factor to 0.0153
ElecMinimize: Iter:  79  G: -2226.696887046313805  |grad|_K:  4.179e-08  alpha:  6.322e-01  linmin: -4.519e-04  t[s]:  13763.14
	Linear fluid (dielectric constant: 78.4, screening length: 8.12261 Bohr) occupying 0.563703 of unit cell:	Completed after 7 iterations at t[s]:  13820.07
	Linear fluid (dielectric constant: 78.4, screening length: 8.12261 Bohr) occupying 0.563703 of unit cell:	Completed after 3 iterations at t[s]:  13861.67
	FillingsUpdate:  mu: -0.208000000  nElectrons: 415.717953  magneticMoment: [ Abs: 0.00033  Tot: -0.00032 ]
	SubspaceRotationAdjust: set factor to 0.0124
ElecMinimize: Iter:  80  G: -2226.696887316291395  |grad|_K:  6.174e-08  alpha:  4.853e-01  linmin: -1.669e-04  t[s]:  13925.28
	Linear fluid (dielectric constant: 78.4, screening length: 8.12261 Bohr) occupying 0.563705 of unit cell:	Completed after 11 iterations at t[s]:  13982.95
	Linear fluid (dielectric constant: 78.4, screening length: 8.12261 Bohr) occupying 0.563704 of unit cell:	Completed after 9 iterations at t[s]:  14025.95
	FillingsUpdate:  mu: -0.208000000  nElectrons: 415.718460  magneticMoment: [ Abs: 0.00033  Tot: -0.00033 ]
	SubspaceRotationAdjust: set factor to 0.0113
ElecMinimize: Iter:  81  G: -2226.696887534343659  |grad|_K:  4.357e-08  alpha:  1.800e-01  linmin:  1.317e-04  t[s]:  14089.57
	Linear fluid (dielectric constant: 78.4, screening length: 8.12261 Bohr) occupying 0.563704 of unit cell:	Completed after 2 iterations at t[s]:  14145.21
	Linear fluid (dielectric constant: 78.4, screening length: 8.12261 Bohr) occupying 0.563705 of unit cell:	Completed after 2 iterations at t[s]:  14186.21
	FillingsUpdate:  mu: -0.208000000  nElectrons: 415.718614  magneticMoment: [ Abs: 0.00035  Tot: -0.00034 ]
	SubspaceRotationAdjust: set factor to 0.0133
ElecMinimize: Iter:  82  G: -2226.696887818506184  |grad|_K:  4.664e-08  alpha:  4.741e-01  linmin:  7.150e-05  t[s]:  14250.11
	Linear fluid (dielectric constant: 78.4, screening length: 8.12261 Bohr) occupying 0.563706 of unit cell:	Completed after 9 iterations at t[s]:  14307.24
	Linear fluid (dielectric constant: 78.4, screening length: 8.12261 Bohr) occupying 0.563706 of unit cell:	Completed after 6 iterations at t[s]:  14349.76
	FillingsUpdate:  mu: -0.208000000  nElectrons: 415.717977  magneticMoment: [ Abs: 0.00036  Tot: -0.00035 ]
	SubspaceRotationAdjust: set factor to 0.0109
ElecMinimize: Iter:  83  G: -2226.696888041143211  |grad|_K:  4.052e-08  alpha:  3.005e-01  linmin:  4.383e-04  t[s]:  14413.45
	Linear fluid (dielectric constant: 78.4, screening length: 8.12261 Bohr) occupying 0.563707 of unit cell:	Completed after 2 iterations at t[s]:  14468.83
	Linear fluid (dielectric constant: 78.4, screening length: 8.12261 Bohr) occupying 0.563707 of unit cell:	Completed after 0 iterations at t[s]:  14509.83
	FillingsUpdate:  mu: -0.208000000  nElectrons: 415.718020  magneticMoment: [ Abs: 0.00038  Tot: -0.00037 ]
	SubspaceRotationAdjust: set factor to 0.0143
ElecMinimize: Iter:  84  G: -2226.696888254647547  |grad|_K:  3.278e-08  alpha:  4.160e-01  linmin: -5.244e-04  t[s]:  14573.98
	Linear fluid (dielectric constant: 78.4, screening length: 8.12261 Bohr) occupying 0.563707 of unit cell:	Completed after 7 iterations at t[s]:  14630.86
	Linear fluid (dielectric constant: 78.4, screening length: 8.12261 Bohr) occupying 0.563707 of unit cell:	Completed after 3 iterations at t[s]:  14672.77
	FillingsUpdate:  mu: -0.208000000  nElectrons: 415.718314  magneticMoment: [ Abs: 0.00039  Tot: -0.00038 ]
	SubspaceRotationAdjust: set factor to 0.0115
ElecMinimize: Iter:  85  G: -2226.696888334711730  |grad|_K:  4.222e-08  alpha:  2.526e-01  linmin:  2.344e-04  t[s]:  14736.55
	Linear fluid (dielectric constant: 78.4, screening length: 8.12261 Bohr) occupying 0.563707 of unit cell:	Completed after 7 iterations at t[s]:  14792.74
	Linear fluid (dielectric constant: 78.4, screening length: 8.12261 Bohr) occupying 0.563707 of unit cell:	Completed after 0 iterations at t[s]:  14833.20
	FillingsUpdate:  mu: -0.208000000  nElectrons: 415.718034  magneticMoment: [ Abs: 0.00040  Tot: -0.00039 ]
	SubspaceRotationAdjust: set factor to 0.0129
ElecMinimize: Iter:  86  G: -2226.696888441597366  |grad|_K:  2.533e-08  alpha:  1.943e-01  linmin:  2.572e-04  t[s]:  14896.80
	Linear fluid (dielectric constant: 78.4, screening length: 8.12261 Bohr) occupying 0.563707 of unit cell:	Completed after 0 iterations at t[s]:  14951.85
	Linear fluid (dielectric constant: 78.4, screening length: 8.12261 Bohr) occupying 0.563706 of unit cell:	Completed after 2 iterations at t[s]:  14992.99
	FillingsUpdate:  mu: -0.208000000  nElectrons: 415.717821  magneticMoment: [ Abs: 0.00041  Tot: -0.00040 ]
	SubspaceRotationAdjust: set factor to 0.0156
ElecMinimize: Iter:  87  G: -2226.696888542142460  |grad|_K:  2.216e-08  alpha:  5.343e-01  linmin:  8.436e-04  t[s]:  15056.65
	Linear fluid (dielectric constant: 78.4, screening length: 8.12261 Bohr) occupying 0.563705 of unit cell:	Completed after 0 iterations at t[s]:  15111.56
	Linear fluid (dielectric constant: 78.4, screening length: 8.12261 Bohr) occupying 0.563705 of unit cell:	Completed after 0 iterations at t[s]:  15152.81
	FillingsUpdate:  mu: -0.208000000  nElectrons: 415.717940  magneticMoment: [ Abs: 0.00042  Tot: -0.00042 ]
	SubspaceRotationAdjust: set factor to 0.0199
ElecMinimize: Iter:  88  G: -2226.696888624239818  |grad|_K:  2.182e-08  alpha:  5.548e-01  linmin:  4.046e-05  t[s]:  15217.09
	Linear fluid (dielectric constant: 78.4, screening length: 8.12261 Bohr) occupying 0.563704 of unit cell:	Completed after 7 iterations at t[s]:  15273.76
	Linear fluid (dielectric constant: 78.4, screening length: 8.12261 Bohr) occupying 0.563704 of unit cell:	Completed after 0 iterations at t[s]:  15314.66
	FillingsUpdate:  mu: -0.208000000  nElectrons: 415.718199  magneticMoment: [ Abs: 0.00044  Tot: -0.00043 ]
	SubspaceRotationAdjust: set factor to 0.0141
ElecMinimize: Iter:  89  G: -2226.696888678258347  |grad|_K:  3.890e-08  alpha:  3.691e-01  linmin:  1.947e-04  t[s]:  15378.79
ElecMinimize: Converged (|Delta G|<1.000000e-07 for 2 iters).
Setting wave functions to eigenvectors of Hamiltonian
Converging empty states (this may take a while): |deigs|: 3.107e-04

Computing DFT-D3 correction:
# coordination-number Pt 6.997 9.392 8.581 9.510 9.535 9.448 9.565 9.550 9.393 8.627 5.282 9.394 5.971 9.397 9.451 9.397 9.551 9.563 9.390 9.534 9.508 8.578 5.282 8.629 6.994 5.972
# diagonal-C6 Pt 336.87 336.87 336.87 336.87 336.87 336.87 336.87 336.87 336.87 336.87 336.87 336.87 336.87 336.87 336.87 336.87 336.87 336.87 336.87 336.87 336.87 336.87 336.87 336.87 336.87 336.87
EvdW_6 =   -0.233145
EvdW_8 =   -0.376073

# Ionic positions in cartesian coordinates:
ion Pt   0.004658000000000  10.244355999999998  24.366871999999997 1
ion Pt   0.002634000000000   4.101669999999999  19.959872999999998 1
ion Pt   3.705117000000000   7.312145999999999  22.281742999999999 1
ion Pt   3.698765000000000   1.003201000000000  17.915320999999995 1
ion Pt  -0.001454000000000   8.212795999999999  13.889363999999999 1
ion Pt   0.001502000000000   2.050074000000000   9.724066999999998 1
ion Pt   3.697107999999999  11.267018999999998  15.905503999999999 1
ion Pt   3.700471000000000   5.131961999999999  11.799593000000000 1
ion Pt  -0.001643000000000  12.350494999999999   7.622131000000000 1
ion Pt  -0.002579000000000   6.106671000000000   3.512778000000000 1
ion Pt   0.005538000000000   0.003455000000000  25.880638000000001 1
ion Pt   3.697563000000000   9.240007999999998   5.729483999999999 1
ion Pt   3.694966000000000   3.045631999999999   1.681837000000000 1
ion Pt   3.701592000000000  12.307862999999998  20.948695000000001 1
[...]
	FillingsUpdate:  mu: -0.208000000  nElectrons: 415.714779  magneticMoment: [ Abs: 0.00338  Tot: -0.00317 ]
	SubspaceRotationAdjust: set factor to 0.0128
ElecMinimize: Iter:  18  G: -2226.697021089487862  |grad|_K:  7.917e-08  alpha:  7.693e-01  linmin:  1.806e-04  t[s]:  23136.83
	Linear fluid (dielectric constant: 78.4, screening length: 8.12261 Bohr) occupying 0.563832 of unit cell:	Completed after 10 iterations at t[s]:  23193.98
	Linear fluid (dielectric constant: 78.4, screening length: 8.12261 Bohr) occupying 0.563830 of unit cell:	Completed after 0 iterations at t[s]:  23234.58
	FillingsUpdate:  mu: -0.208000000  nElectrons: 415.714692  magneticMoment: [ Abs: 0.00330  Tot: -0.00312 ]
	SubspaceRotationAdjust: set factor to 0.0124
ElecMinimize: Iter:  19  G: -2226.697022471566925  |grad|_K:  9.778e-08  alpha:  6.860e-01  linmin:  7.592e-04  t[s]:  23298.68
	Linear fluid (dielectric constant: 78.4, screening length: 8.12261 Bohr) occupying 0.563846 of unit cell:	Completed after 11 iterations at t[s]:  23356.06
	Linear fluid (dielectric constant: 78.4, screening length: 8.12261 Bohr) occupying 0.563837 of unit cell:	Completed after 11 iterations at t[s]:  23399.84
	FillingsUpdate:  mu: -0.208000000  nElectrons: 415.713080  magneticMoment: [ Abs: 0.00326  Tot: -0.00308 ]
	SubspaceRotationAdjust: set factor to 0.00972
ElecMinimize: Iter:  20  G: -2226.697023305797757  |grad|_K:  9.398e-08  alpha:  2.922e-01  linmin:  1.221e-04  t[s]:  23463.41
	Linear fluid (dielectric constant: 78.4, screening length: 8.12261 Bohr) occupying 0.563842 of unit cell:	Completed after 7 iterations at t[s]:  23520.18
	Linear fluid (dielectric constant: 78.4, screening length: 8.12261 Bohr) occupying 0.563846 of unit cell:	Completed after 6 iterations at t[s]:  23562.31
	FillingsUpdate:  mu: -0.208000000  nElectrons: 415.713378  magneticMoment: [ Abs: 0.00321  Tot: -0.00302 ]
	SubspaceRotationAdjust: set factor to 0.00987
ElecMinimize: Iter:  21  G: -2226.697024661878459  |grad|_K:  7.818e-08  alpha:  4.825e-01  linmin:  2.651e-04  t[s]:  23626.05
	Linear fluid (dielectric constant: 78.4, screening length: 8.12261 Bohr) occupying 0.563850 of unit cell:	Completed after 2 iterations at t[s]:  23681.60
	Linear fluid (dielectric constant: 78.4, screening length: 8.12261 Bohr) occupying 0.563852 of unit cell:	Completed after 2 iterations at t[s]:  23722.95
	FillingsUpdate:  mu: -0.208000000  nElectrons: 415.713252  magneticMoment: [ Abs: 0.00313  Tot: -0.00295 ]
	SubspaceRotationAdjust: set factor to 0.0116
ElecMinimize: Iter:  22  G: -2226.697025975727229  |grad|_K:  7.223e-08  alpha:  6.738e-01  linmin: -8.845e-05  t[s]:  23786.45
	Linear fluid (dielectric constant: 78.4, screening length: 8.12261 Bohr) occupying 0.563853 of unit cell:	Completed after 9 iterations at t[s]:  23843.25
	Linear fluid (dielectric constant: 78.4, screening length: 8.12261 Bohr) occupying 0.563853 of unit cell:	Completed after 0 iterations at t[s]:  23884.21
	FillingsUpdate:  mu: -0.208000000  nElectrons: 415.712601  magneticMoment: [ Abs: 0.00308  Tot: -0.00289 ]
	SubspaceRotationAdjust: set factor to 0.0116
ElecMinimize: Iter:  23  G: -2226.697027014902233  |grad|_K:  7.977e-08  alpha:  6.156e-01  linmin:  6.663e-04  t[s]:  23948.09
	Linear fluid (dielectric constant: 78.4, screening length: 8.12261 Bohr) occupying 0.563851 of unit cell:	Completed after 11 iterations at t[s]:  24005.62
	Linear fluid (dielectric constant: 78.4, screening length: 8.12261 Bohr) occupying 0.563852 of unit cell:	Completed after 9 iterations at t[s]:  24046.35
	FillingsUpdate:  mu: -0.208000000  nElectrons: 415.713659  magneticMoment: [ Abs: 0.00305  Tot: -0.00285 ]
	SubspaceRotationAdjust: set factor to 0.00946
ElecMinimize: Iter:  24  G: -2226.697027650824111  |grad|_K:  7.760e-08  alpha:  3.285e-01  linmin:  1.270e-05  t[s]:  24109.16
	Linear fluid (dielectric constant: 78.4, screening length: 8.12261 Bohr) occupying 0.563849 of unit cell:	Completed after 7 iterations at t[s]:  24166.06
	Linear fluid (dielectric constant: 78.4, screening length: 8.12261 Bohr) occupying 0.563849 of unit cell:	Completed after 3 iterations at t[s]:  24207.49
	FillingsUpdate:  mu: -0.208000000  nElectrons: 415.713305  magneticMoment: [ Abs: 0.00300  Tot: -0.00280 ]
	SubspaceRotationAdjust: set factor to 0.0104
ElecMinimize: Iter:  25  G: -2226.697028482721180  |grad|_K:  5.938e-08  alpha:  4.311e-01  linmin: -2.693e-04  t[s]:  24270.38
	Linear fluid (dielectric constant: 78.4, screening length: 8.12261 Bohr) occupying 0.563845 of unit cell:	Completed after 6 iterations at t[s]:  24326.94
	Linear fluid (dielectric constant: 78.4, screening length: 8.12261 Bohr) occupying 0.563844 of unit cell:	Completed after 0 iterations at t[s]:  24367.90
	FillingsUpdate:  mu: -0.208000000  nElectrons: 415.713322  magneticMoment: [ Abs: 0.00293  Tot: -0.00275 ]
	SubspaceRotationAdjust: set factor to 0.0116
ElecMinimize: Iter:  26  G: -2226.697029146804198  |grad|_K:  5.604e-08  alpha:  5.729e-01  linmin: -1.397e-03  t[s]:  24431.76
	Linear fluid (dielectric constant: 78.4, screening length: 8.12261 Bohr) occupying 0.563839 of unit cell:	Completed after 11 iterations at t[s]:  24489.65
	Linear fluid (dielectric constant: 78.4, screening length: 8.12261 Bohr) occupying 0.563841 of unit cell:	Completed after 7 iterations at t[s]:  24532.12
	FillingsUpdate:  mu: -0.208000000  nElectrons: 415.714320  magneticMoment: [ Abs: 0.00289  Tot: -0.00272 ]
	SubspaceRotationAdjust: set factor to 0.00957
ElecMinimize: Iter:  27  G: -2226.697029551663491  |grad|_K:  5.490e-08  alpha:  3.741e-01  linmin:  8.512e-04  t[s]:  24595.99
	Linear fluid (dielectric constant: 78.4, screening length: 8.12261 Bohr) occupying 0.563837 of unit cell:	Completed after 7 iterations at t[s]:  24653.13
	Linear fluid (dielectric constant: 78.4, screening length: 8.12261 Bohr) occupying 0.563837 of unit cell:	Completed after 0 iterations at t[s]:  24693.71
	FillingsUpdate:  mu: -0.208000000  nElectrons: 415.714173  magneticMoment: [ Abs: 0.00285  Tot: -0.00269 ]
	SubspaceRotationAdjust: set factor to 0.00953
ElecMinimize: Iter:  28  G: -2226.697029917061172  |grad|_K:  3.888e-08  alpha:  3.864e-01  linmin: -2.395e-04  t[s]:  24757.53
	Linear fluid (dielectric constant: 78.4, screening length: 8.12261 Bohr) occupying 0.563836 of unit cell:	Completed after 2 iterations at t[s]:  24813.10
	Linear fluid (dielectric constant: 78.4, screening length: 8.12261 Bohr) occupying 0.563835 of unit cell:	Completed after 0 iterations at t[s]:  24853.89
	FillingsUpdate:  mu: -0.208000000  nElectrons: 415.714321  magneticMoment: [ Abs: 0.00283  Tot: -0.00266 ]
	SubspaceRotationAdjust: set factor to 0.0113
ElecMinimize: Iter:  29  G: -2226.697030180971069  |grad|_K:  3.105e-08  alpha:  5.361e-01  linmin: -1.358e-03  t[s]:  24917.48
	Linear fluid (dielectric constant: 78.4, screening length: 8.12261 Bohr) occupying 0.563834 of unit cell:	Completed after 2 iterations at t[s]:  24973.00
	Linear fluid (dielectric constant: 78.4, screening length: 8.12261 Bohr) occupying 0.563834 of unit cell:	Completed after 4 iterations at t[s]:  25015.05
	FillingsUpdate:  mu: -0.208000000  nElectrons: 415.714839  magneticMoment: [ Abs: 0.00280  Tot: -0.00264 ]
	SubspaceRotationAdjust: set factor to 0.012
ElecMinimize: Iter:  30  G: -2226.697030360145618  |grad|_K:  2.745e-08  alpha:  5.932e-01  linmin:  4.472e-04  t[s]:  25078.61
	Linear fluid (dielectric constant: 78.4, screening length: 8.12261 Bohr) occupying 0.563834 of unit cell:	Completed after 2 iterations at t[s]:  25133.89
	Linear fluid (dielectric constant: 78.4, screening length: 8.12261 Bohr) occupying 0.563834 of unit cell:	Completed after 0 iterations at t[s]:  25174.88
	FillingsUpdate:  mu: -0.208000000  nElectrons: 415.714903  magneticMoment: [ Abs: 0.00279  Tot: -0.00263 ]
	SubspaceRotationAdjust: set factor to 0.0148
ElecMinimize: Iter:  31  G: -2226.697030458278732  |grad|_K:  2.291e-08  alpha:  4.341e-01  linmin: -6.878e-03  t[s]:  25238.33
	Linear fluid (dielectric constant: 78.4, screening length: 8.12261 Bohr) occupying 0.563834 of unit cell:	Completed after 2 iterations at t[s]:  25294.12
	Linear fluid (dielectric constant: 78.4, screening length: 8.12261 Bohr) occupying 0.563834 of unit cell:	Completed after 0 iterations at t[s]:  25334.91
	FillingsUpdate:  mu: -0.208000000  nElectrons: 415.714753  magneticMoment: [ Abs: 0.00279  Tot: -0.00263 ]
	SubspaceRotationAdjust: set factor to 0.0175
ElecMinimize: Iter:  32  G: -2226.697030559059840  |grad|_K:  2.255e-08  alpha:  5.388e-01  linmin:  1.107e-03  t[s]:  25398.60
	Linear fluid (dielectric constant: 78.4, screening length: 8.12261 Bohr) occupying 0.563835 of unit cell:	Completed after 2 iterations at t[s]:  25454.03
	Linear fluid (dielectric constant: 78.4, screening length: 8.12261 Bohr) occupying 0.563835 of unit cell:	Completed after 0 iterations at t[s]:  25494.74
	FillingsUpdate:  mu: -0.208000000  nElectrons: 415.714655  magneticMoment: [ Abs: 0.00278  Tot: -0.00262 ]
	SubspaceRotationAdjust: set factor to 0.0208
ElecMinimize: Iter:  33  G: -2226.697030640732009  |grad|_K:  2.217e-08  alpha:  5.112e-01  linmin: -9.386e-04  t[s]:  25558.28
	Linear fluid (dielectric constant: 78.4, screening length: 8.12261 Bohr) occupying 0.563835 of unit cell:	Completed after 2 iterations at t[s]:  25614.06
	Linear fluid (dielectric constant: 78.4, screening length: 8.12261 Bohr) occupying 0.563835 of unit cell:	Completed after 2 iterations at t[s]:  25655.95
	FillingsUpdate:  mu: -0.208000000  nElectrons: 415.714813  magneticMoment: [ Abs: 0.00278  Tot: -0.00262 ]
	SubspaceRotationAdjust: set factor to 0.0196
ElecMinimize: Iter:  34  G: -2226.697030695721878  |grad|_K:  2.285e-08  alpha:  3.527e-01  linmin:  2.067e-03  t[s]:  25719.47
ElecMinimize: Converged (|Delta G|<1.000000e-07 for 2 iters).
Setting wave functions to eigenvectors of Hamiltonian
Converging empty states (this may take a while): |deigs|: 6.637e-09

Computing DFT-D3 correction:
# coordination-number Pt 7.026 9.396 8.590 9.506 9.532 9.445 9.561 9.544 9.400 8.638 5.279 9.408 5.973 9.410 9.447 9.403 9.545 9.560 9.394 9.531 9.504 8.589 5.280 8.639 7.024 5.973
# diagonal-C6 Pt 336.87 336.87 336.87 336.87 336.87 336.87 336.87 336.87 336.87 336.87 336.87 336.87 336.87 336.87 336.87 336.87 336.87 336.87 336.87 336.87 336.87 336.87 336.87 336.87 336.87 336.87
EvdW_6 =   -0.233161
EvdW_8 =   -0.376090

# Ionic positions in cartesian coordinates:
ion Pt   0.004554655248310  10.242212149608859  24.355802594870458 1
ion Pt   0.002523923515842   4.103763946160368  19.966172769573721 1
ion Pt   3.705586412267038   7.314013570922383  22.282023924519585 1
ion Pt   3.698875365167964   1.002351937193464  17.912599764672830 1
ion Pt  -0.001343929446515   8.214333315050736  13.889854179378911 1
ion Pt   0.001543220542248   2.050346999939200   9.724494331864109 1
ion Pt   3.696990826547815  11.266927760066757  15.909594308543179 1
ion Pt   3.700463780429675   5.130882039100413  11.796533559691296 1
ion Pt  -0.001822936745226  12.349916407593252   7.624237786328204 1
ion Pt  -0.002436217365494   6.106533262637390   3.515252791343245 1
ion Pt   0.005680366938997  -0.002989456259160  25.879782034210358 1
ion Pt   3.697465861985575   9.235652366107686   5.719797533668655 1
ion Pt   3.694914415467553   3.044082196084855   1.684615415500578 1
ion Pt   3.701679028738304  12.312385428078789  20.958164870125479 1
ion Pt   3.698008738773201   6.157837792544435  16.954161953657426 1
ion Pt   0.001775556846819   9.197744403087164  19.053974386671953 1
ion Pt  -0.000926432716025   3.076937399015387  14.882313562286383 1
ion Pt   3.702227399718891  10.279822785772645  10.769137571362389 1
ion Pt   3.696914437064723   4.104584581191340   6.711455546706913 1
ion Pt   0.001324619110846  13.332339532526799  12.789208116197711 1
ion Pt   0.000662426623023   7.205616754709660   8.765685740887580 1
ion Pt  -0.006031518869813   0.895185149275262   4.395574431852883 1
ion Pt   3.693994634806530   8.212280077470508   0.797753214142591 1
ion Pt   3.702054263246635   2.102932433839877  23.162295887066445 1
ion Pt  -0.004376403284561  11.306190985471877   2.321483635197906 1
ion Pt   0.004661505387644   5.165415182810023  24.992426089679181 1

# Forces in Cartesian coordinates:
force Pt  -0.000001971963053  -0.000138338921760  -0.001998762729389 1
force Pt  -0.000020304646415   0.000369243674580   0.000547582247032 1
force Pt   0.000047973086772   0.000107198018180  -0.000392403666829 1
force Pt   0.000003145729413   0.000007866568302  -0.000236103118338 1
force Pt   0.000013219566189   0.000118295946060  -0.000013512381153 1
force Pt  -0.000002726518183   0.000231048728286   0.000070921964601 1
force Pt  -0.000001950778920   0.000033454205859   0.000562909291284 1
force Pt   0.000005578562495  -0.000197033906938  -0.000394822677535 1
force Pt  -0.000034488744052  -0.000124647368806   0.000495368169847 1
force Pt   0.000004448862491  -0.000071690247633   0.000537457085043 1
force Pt   0.000013013353812  -0.000972279402897  -0.000602197005436 1
force Pt  -0.000015553597965  -0.000726248605929  -0.000704451043002 1
force Pt  -0.000017034655373   0.000010125252557   0.000724868173690 1
force Pt   0.000014586947320   0.000730210732876   0.000683096659238 1
force Pt   0.000001613041091  -0.000221672849069  -0.000081508713312 1
force Pt   0.000033954281078   0.000118130512714  -0.000502622105531 1
force Pt  -0.000007464607278   0.000206617197886   0.000367346849316 1
force Pt   0.000001083954911  -0.000033551638975  -0.000580945494892 1
force Pt   0.000021193815921  -0.000357695912044  -0.000543693207449 1
force Pt  -0.000014791735730  -0.000106386585611  -0.000022311161992 1
force Pt  -0.000003029038246  -0.000005373154641   0.000234517859479 1
force Pt  -0.000047336641808  -0.000086755457663   0.000381881616288 1
force Pt  -0.000012673011681   0.000979322524668   0.000632039491510 1
force Pt  -0.000007137138546   0.000077318266331  -0.000532816017260 1
force Pt  -0.000000999276798   0.000147292870252   0.002023036876344 1
force Pt   0.000015796273352  -0.000000219309563  -0.000682334157810 1

# Energy components:
   A_diel =        0.0661948020046797
   Eewald =    30669.1420767436175083
       EH =    32751.4849195873466670
     Eloc =   -66135.2161859062325675
      Enl =      -27.4367631572377562
     EvdW =       -0.6092511683797828
      Exc =     -739.6584993061060231
 Exc_core =      426.1759351395964472
       KE =      742.8753552214745923
  MuShift =        0.0149018563720820
-------------------------------------
     Etot =    -2313.1613161875388869
       TS =        0.0043957085827916
-------------------------------------
        F =    -2313.1657118961215929
      muN =      -86.4686812003995442
-------------------------------------
        G =    -2226.6970306957218781


Dumping 'jdft.fillings' ... done
Dumping 'jdft.wfns' ... done
Dumping 'jdft.fluidState' ... done
Dumping 'jdft.ionpos' ... done
Dumping 'jdft.lattice' ... done
Dumping 'jdft.eigenvals' ... done
Dumping 'jdft.eigStats' ... 
	eMin: -2.157690 at state 34 ( [ +0.444444 +0.000000 +0.000000 ] spin -1 )
	HOMO: -0.207976 at state 1 ( [ +0.000000 +0.250000 +0.000000 ] spin 1 )
	mu  : -0.208000
	LUMO: -0.207896 at state 25 ( [ +0.111111 -0.250000 +0.000000 ] spin -1 )
	eMax: +0.086827 at state 22 ( [ +0.111111 +0.000000 +0.000000 ] spin -1 )
	HOMO-LUMO gap: +0.000080
	Optical gap  : +0.000552 at state 1 ( [ +0.000000 +0.250000 +0.000000 ] spin 1 )
Dumping 'jdft.Ecomponents' ... done
IonicMinimize: Iter:   2  G: -2226.697030695721878  |grad|_K:  4.722e-04  alpha:  1.000e+00  linmin: -8.643e-01  t[s]:  25875.77
IonicMinimize: Converged (|Delta G|<1.000000e-04 for 2 iters).

#--- Lowdin population analysis ---
# oxidation-state Pt +0.010 +0.008 -0.028 +0.008 +0.007 +0.008 +0.006 +0.014 +0.009 -0.050 +0.160 -0.001 +0.125 -0.001 +0.008 +0.009 +0.013 +0.007 +0.009 +0.007 +0.009 -0.029 +0.160 -0.050 +0.009 +0.126
# magnetic-moments Pt -0.000 -0.000 -0.000 -0.000 -0.000 -0.000 -0.000 -0.000 -0.000 -0.000 -0.000 -0.000 -0.000 -0.000 -0.000 -0.000 -0.000 -0.000 -0.000 -0.000 -0.000 -0.000 -0.000 -0.000 -0.000 -0.000


Dumping 'jdft.n_up' ... done
Dumping 'jdft.n_dn' ... done
Dumping 'jdft.tau_up' ... done
Dumping 'jdft.tau_dn' ... done
Dumping 'jdft.eigenvals' ... done
Dumping 'jdft.eigStats' ... 
	eMin: -2.157690 at state 34 ( [ +0.444444 +0.000000 +0.000000 ] spin -1 )
	HOMO: -0.207976 at state 1 ( [ +0.000000 +0.250000 +0.000000 ] spin 1 )
	mu  : -0.208000
	LUMO: -0.207896 at state 25 ( [ +0.111111 -0.250000 +0.000000 ] spin -1 )
	eMax: +0.086827 at state 22 ( [ +0.111111 +0.000000 +0.000000 ] spin -1 )
	HOMO-LUMO gap: +0.000080
	Optical gap  : +0.000552 at state 1 ( [ +0.000000 +0.250000 +0.000000 ] spin 1 )
Dumping 'jdft.kPts' ... done
Dumping 'jdft.kMap' ... done
Dumping 'jdft.dosUp' ... done.
Dumping 'jdft.dosDn' ... done.
End date and time: Sat Sep 10 18:58:49 2022  (Duration: 0-7:12:56.81)
Done!

PROFILER:             augmentDensityGrid    10.499950 +/-     0.127399 s,  306 calls,   3212.984685 s total
PROFILER:         augmentDensityGridGrad     0.574293 +/-     0.119053 s,  155 calls,     89.015451 s total
PROFILER:        augmentDensitySpherical     0.003913 +/-     0.000153 s,  306 calls,      1.197450 s total
PROFILER:    augmentDensitySphericalGrad     0.005124 +/-     0.000736 s,  164 calls,      0.840405 s total
PROFILER:                 augmentOverlap     5.334132 +/-     0.292137 s,  622 calls,   3317.830007 s total
PROFILER:                     diagouterI     9.092053 +/-     0.164474 s,  309 calls,   2809.444378 s total
PROFILER:              EdensityAndVscloc     4.897979 +/-     1.896225 s,  306 calls,   1498.781719 s total
PROFILER:                     EnlAndGrad     0.018612 +/-     0.001802 s,  318 calls,      5.918700 s total
PROFILER:            ExCorrCommunication     0.057999 +/-     0.276203 s, 1871 calls,    108.515715 s total
PROFILER:               ExCorrFunctional     0.007550 +/-     0.000785 s,  316 calls,      2.385942 s total
PROFILER:                    ExCorrTotal     0.444226 +/-     0.622159 s,  316 calls,    140.375551 s total
PROFILER:                   Idag_DiagV_I    17.731560 +/-     1.999997 s,  161 calls,   2854.781184 s total
PROFILER:                    initWeights     2.069179 +/-     0.000000 s,    1 calls,      2.069179 s total
PROFILER:                    inv(matrix)     0.010131 +/-     0.000778 s,  303 calls,      3.069547 s total
PROFILER:            matrix::diagonalize     0.029834 +/-     0.011815 s,  466 calls,     13.902669 s total
PROFILER:                    matrix::set     0.000018 +/-     0.000011 s, 12604 calls,      0.232924 s total
PROFILER:            orthoMatrix(matrix)     0.005693 +/-     0.002312 s,  310 calls,      1.764886 s total
PROFILER:     RadialFunctionR::transform     0.196333 +/-     1.422543 s,   55 calls,     10.798294 s total
PROFILER:                    reduceKmesh     0.002040 +/-     0.000000 s,    1 calls,      0.002040 s total
PROFILER:   VanDerWaalsD3::energyAndGrad     0.015218 +/-     0.000998 s,    7 calls,      0.106523 s total
PROFILER:               WavefunctionDrag    31.021423 +/-     6.794447 s,    3 calls,     93.064269 s total
PROFILER:                            Y*M     1.724514 +/-     0.532872 s, 2022 calls,   3486.968183 s total
PROFILER:                          Y1^Y2     1.808258 +/-     0.574172 s, 1273 calls,   2301.911873 s total

MEMUSAGE:                   ColumnBundle     0.864493 GB
MEMUSAGE:        complexScalarFieldTilde     0.017303 GB
MEMUSAGE:                    IndexArrays     0.019108 GB
MEMUSAGE:                         matrix     0.044251 GB
MEMUSAGE:                           misc     0.017404 GB
MEMUSAGE:                    ScalarField     0.125450 GB
MEMUSAGE:               ScalarFieldTilde     0.091404 GB
MEMUSAGE:                          Total     0.988460 GB
