
*************** JDFTx 1.6.0  ***************

Start date and time: Sat Feb 19 22:49:58 2022
Executable /projects/musgravc/apps/jdftx-1.6.1/build/jdftx with command-line: -i in
Running on hosts (process indices):  shas0431.rc.int.colorado.edu (0-23)
Divided in process groups (process indices):  0 (0)  1 (1)  2 (2)  3 (3)  4 (4)  5 (5)  6 (6)  7 (7)  8 (8)  9 (9)  10 (10)  11 (11)  12 (12)  13 (13)  14 (14)  15 (15)  16 (16)  17 (17)  18 (18)  19 (19)  20 (20)  21 (21)  22 (22)  23 (23)
Resource initialization completed at t[s]:      0.00
Run totals: 24 processes, 24 threads, 0 GPUs


Input parsed successfully to the following command list (including defaults):

basis kpoint-dependent
converge-empty-states yes
coords-type Cartesian
core-overlap-check none
coulomb-interaction Periodic
davidson-band-ratio 1.1
density-of-states Etol 1.000000e-06 Esigma 1.000000e-03 \
		Complete \
	Total \
	OrthoOrbital Ag 1   s \
	OrthoOrbital Ag 1   p \
	OrthoOrbital Ag 1   px \
	OrthoOrbital Ag 1   py \
	OrthoOrbital Ag 1   pz \
	OrthoOrbital Ag 1   d \
	OrthoOrbital Ag 1   dxy \
	OrthoOrbital Ag 1   dyz \
	OrthoOrbital Ag 1   dz2 \
	OrthoOrbital Ag 1   dxz \
	OrthoOrbital Ag 1   dx2-y2 \
	OrthoOrbital Ag 2   s \
	OrthoOrbital Ag 2   p \
	OrthoOrbital Ag 2   px \
	OrthoOrbital Ag 2   py \
	OrthoOrbital Ag 2   pz \
	OrthoOrbital Ag 2   d \
	OrthoOrbital Ag 2   dxy \
	OrthoOrbital Ag 2   dyz \
	OrthoOrbital Ag 2   dz2 \
	OrthoOrbital Ag 2   dxz \
	OrthoOrbital Ag 2   dx2-y2 \
	OrthoOrbital Ag 3   s \
	OrthoOrbital Ag 3   p \
	OrthoOrbital Ag 3   px \
	OrthoOrbital Ag 3   py \
	OrthoOrbital Ag 3   pz \
	OrthoOrbital Ag 3   d \
	OrthoOrbital Ag 3   dxy \
	OrthoOrbital Ag 3   dyz \
	OrthoOrbital Ag 3   dz2 \
	OrthoOrbital Ag 3   dxz \
	OrthoOrbital Ag 3   dx2-y2 \
	OrthoOrbital Ag 4   s \
	OrthoOrbital Ag 4   p \
	OrthoOrbital Ag 4   px \
	OrthoOrbital Ag 4   py \
	OrthoOrbital Ag 4   pz \
	OrthoOrbital Ag 4   d \
	OrthoOrbital Ag 4   dxy \
	OrthoOrbital Ag 4   dyz \
	OrthoOrbital Ag 4   dz2 \
	OrthoOrbital Ag 4   dxz \
	OrthoOrbital Ag 4   dx2-y2 \
	OrthoOrbital Ag 5   s \
	OrthoOrbital Ag 5   p \
	OrthoOrbital Ag 5   px \
	OrthoOrbital Ag 5   py \
	OrthoOrbital Ag 5   pz \
	OrthoOrbital Ag 5   d \
	OrthoOrbital Ag 5   dxy \
	OrthoOrbital Ag 5   dyz \
	OrthoOrbital Ag 5   dz2 \
	OrthoOrbital Ag 5   dxz \
	OrthoOrbital Ag 5   dx2-y2 \
	OrthoOrbital Ag 6   s \
	OrthoOrbital Ag 6   p \
	OrthoOrbital Ag 6   px \
	OrthoOrbital Ag 6   py \
	OrthoOrbital Ag 6   pz \
	OrthoOrbital Ag 6   d \
	OrthoOrbital Ag 6   dxy \
	OrthoOrbital Ag 6   dyz \
	OrthoOrbital Ag 6   dz2 \
	OrthoOrbital Ag 6   dxz \
	OrthoOrbital Ag 6   dx2-y2 \
	OrthoOrbital Ag 7   s \
	OrthoOrbital Ag 7   p \
	OrthoOrbital Ag 7   px \
	OrthoOrbital Ag 7   py \
	OrthoOrbital Ag 7   pz \
	OrthoOrbital Ag 7   d \
	OrthoOrbital Ag 7   dxy \
	OrthoOrbital Ag 7   dyz \
	OrthoOrbital Ag 7   dz2 \
	OrthoOrbital Ag 7   dxz \
	OrthoOrbital Ag 7   dx2-y2 \
	OrthoOrbital Ag 8   s \
	OrthoOrbital Ag 8   p \
	OrthoOrbital Ag 8   px \
	OrthoOrbital Ag 8   py \
	OrthoOrbital Ag 8   pz \
	OrthoOrbital Ag 8   d \
	OrthoOrbital Ag 8   dxy \
	OrthoOrbital Ag 8   dyz \
	OrthoOrbital Ag 8   dz2 \
	OrthoOrbital Ag 8   dxz \
	OrthoOrbital Ag 8   dx2-y2 \
	OrthoOrbital Ag 9   s \
	OrthoOrbital Ag 9   p \
	OrthoOrbital Ag 9   px \
	OrthoOrbital Ag 9   py \
	OrthoOrbital Ag 9   pz \
	OrthoOrbital Ag 9   d \
	OrthoOrbital Ag 9   dxy \
	OrthoOrbital Ag 9   dyz \
	OrthoOrbital Ag 9   dz2 \
	OrthoOrbital Ag 9   dxz \
	OrthoOrbital Ag 9   dx2-y2 \
	OrthoOrbital Ag 10   s \
	OrthoOrbital Ag 10   p \
	OrthoOrbital Ag 10   px \
	OrthoOrbital Ag 10   py \
	OrthoOrbital Ag 10   pz \
	OrthoOrbital Ag 10   d \
	OrthoOrbital Ag 10   dxy \
	OrthoOrbital Ag 10   dyz \
	OrthoOrbital Ag 10   dz2 \
	OrthoOrbital Ag 10   dxz \
	OrthoOrbital Ag 10   dx2-y2 \
	OrthoOrbital Ag 11   s \
	OrthoOrbital Ag 11   p \
	OrthoOrbital Ag 11   px \
	OrthoOrbital Ag 11   py \
	OrthoOrbital Ag 11   pz \
	OrthoOrbital Ag 11   d \
	OrthoOrbital Ag 11   dxy \
	OrthoOrbital Ag 11   dyz \
	OrthoOrbital Ag 11   dz2 \
	OrthoOrbital Ag 11   dxz \
	OrthoOrbital Ag 11   dx2-y2 \
	OrthoOrbital Ag 12   s \
	OrthoOrbital Ag 12   p \
	OrthoOrbital Ag 12   px \
	OrthoOrbital Ag 12   py \
	OrthoOrbital Ag 12   pz \
	OrthoOrbital Ag 12   d \
	OrthoOrbital Ag 12   dxy \
	OrthoOrbital Ag 12   dyz \
	OrthoOrbital Ag 12   dz2 \
	OrthoOrbital Ag 12   dxz \
	OrthoOrbital Ag 12   dx2-y2 \
	OrthoOrbital Ag 13   s \
	OrthoOrbital Ag 13   p \
	OrthoOrbital Ag 13   px \
	OrthoOrbital Ag 13   py \
	OrthoOrbital Ag 13   pz \
	OrthoOrbital Ag 13   d \
	OrthoOrbital Ag 13   dxy \
	OrthoOrbital Ag 13   dyz \
	OrthoOrbital Ag 13   dz2 \
	OrthoOrbital Ag 13   dxz \
	OrthoOrbital Ag 13   dx2-y2 \
	OrthoOrbital Ag 14   s \
	OrthoOrbital Ag 14   p \
	OrthoOrbital Ag 14   px \
	OrthoOrbital Ag 14   py \
	OrthoOrbital Ag 14   pz \
	OrthoOrbital Ag 14   d \
	OrthoOrbital Ag 14   dxy \
	OrthoOrbital Ag 14   dyz \
	OrthoOrbital Ag 14   dz2 \
	OrthoOrbital Ag 14   dxz \
	OrthoOrbital Ag 14   dx2-y2 \
	OrthoOrbital Ag 15   s \
	OrthoOrbital Ag 15   p \
	OrthoOrbital Ag 15   px \
	OrthoOrbital Ag 15   py \
	OrthoOrbital Ag 15   pz \
	OrthoOrbital Ag 15   d \
	OrthoOrbital Ag 15   dxy \
	OrthoOrbital Ag 15   dyz \
	OrthoOrbital Ag 15   dz2 \
	OrthoOrbital Ag 15   dxz \
	OrthoOrbital Ag 15   dx2-y2 \
	OrthoOrbital Ag 16   s \
	OrthoOrbital Ag 16   p \
	OrthoOrbital Ag 16   px \
	OrthoOrbital Ag 16   py \
	OrthoOrbital Ag 16   pz \
	OrthoOrbital Ag 16   d \
	OrthoOrbital Ag 16   dxy \
	OrthoOrbital Ag 16   dyz \
	OrthoOrbital Ag 16   dz2 \
	OrthoOrbital Ag 16   dxz \
	OrthoOrbital Ag 16   dx2-y2 \
	OrthoOrbital Ag 17   s \
	OrthoOrbital Ag 17   p \
	OrthoOrbital Ag 17   px \
	OrthoOrbital Ag 17   py \
	OrthoOrbital Ag 17   pz \
	OrthoOrbital Ag 17   d \
	OrthoOrbital Ag 17   dxy \
	OrthoOrbital Ag 17   dyz \
	OrthoOrbital Ag 17   dz2 \
	OrthoOrbital Ag 17   dxz \
	OrthoOrbital Ag 17   dx2-y2 \
	OrthoOrbital Ag 18   s \
	OrthoOrbital Ag 18   p \
	OrthoOrbital Ag 18   px \
	OrthoOrbital Ag 18   py \
	OrthoOrbital Ag 18   pz \
	OrthoOrbital Ag 18   d \
	OrthoOrbital Ag 18   dxy \
	OrthoOrbital Ag 18   dyz \
	OrthoOrbital Ag 18   dz2 \
	OrthoOrbital Ag 18   dxz \
	OrthoOrbital Ag 18   dx2-y2 \
	OrthoOrbital Ag 19   s \
	OrthoOrbital Ag 19   p \
	OrthoOrbital Ag 19   px \
	OrthoOrbital Ag 19   py \
	OrthoOrbital Ag 19   pz \
	OrthoOrbital Ag 19   d \
	OrthoOrbital Ag 19   dxy \
	OrthoOrbital Ag 19   dyz \
	OrthoOrbital Ag 19   dz2 \
	OrthoOrbital Ag 19   dxz \
	OrthoOrbital Ag 19   dx2-y2 \
	OrthoOrbital Ag 20   s \
	OrthoOrbital Ag 20   p \
	OrthoOrbital Ag 20   px \
	OrthoOrbital Ag 20   py \
	OrthoOrbital Ag 20   pz \
	OrthoOrbital Ag 20   d \
	OrthoOrbital Ag 20   dxy \
	OrthoOrbital Ag 20   dyz \
	OrthoOrbital Ag 20   dz2 \
	OrthoOrbital Ag 20   dxz \
	OrthoOrbital Ag 20   dx2-y2 \
	OrthoOrbital Ag 21   s \
	OrthoOrbital Ag 21   p \
	OrthoOrbital Ag 21   px \
	OrthoOrbital Ag 21   py \
	OrthoOrbital Ag 21   pz \
	OrthoOrbital Ag 21   d \
	OrthoOrbital Ag 21   dxy \
	OrthoOrbital Ag 21   dyz \
	OrthoOrbital Ag 21   dz2 \
	OrthoOrbital Ag 21   dxz \
	OrthoOrbital Ag 21   dx2-y2 \
	OrthoOrbital Ag 22   s \
	OrthoOrbital Ag 22   p \
	OrthoOrbital Ag 22   px \
	OrthoOrbital Ag 22   py \
	OrthoOrbital Ag 22   pz \
	OrthoOrbital Ag 22   d \
	OrthoOrbital Ag 22   dxy \
	OrthoOrbital Ag 22   dyz \
	OrthoOrbital Ag 22   dz2 \
	OrthoOrbital Ag 22   dxz \
	OrthoOrbital Ag 22   dx2-y2 \
	OrthoOrbital Ag 23   s \
	OrthoOrbital Ag 23   p \
	OrthoOrbital Ag 23   px \
	OrthoOrbital Ag 23   py \
	OrthoOrbital Ag 23   pz \
	OrthoOrbital Ag 23   d \
	OrthoOrbital Ag 23   dxy \
	OrthoOrbital Ag 23   dyz \
	OrthoOrbital Ag 23   dz2 \
	OrthoOrbital Ag 23   dxz \
	OrthoOrbital Ag 23   dx2-y2 \
	OrthoOrbital Ag 24   s \
	OrthoOrbital Ag 24   p \
	OrthoOrbital Ag 24   px \
	OrthoOrbital Ag 24   py \
	OrthoOrbital Ag 24   pz \
	OrthoOrbital Ag 24   d \
	OrthoOrbital Ag 24   dxy \
	OrthoOrbital Ag 24   dyz \
	OrthoOrbital Ag 24   dz2 \
	OrthoOrbital Ag 24   dxz \
	OrthoOrbital Ag 24   dx2-y2 \
	OrthoOrbital Ag 25   s \
	OrthoOrbital Ag 25   p \
	OrthoOrbital Ag 25   px \
	OrthoOrbital Ag 25   py \
	OrthoOrbital Ag 25   pz \
	OrthoOrbital Ag 25   d \
	OrthoOrbital Ag 25   dxy \
	OrthoOrbital Ag 25   dyz \
	OrthoOrbital Ag 25   dz2 \
	OrthoOrbital Ag 25   dxz \
	OrthoOrbital Ag 25   dx2-y2 \
	OrthoOrbital Ag 26   s \
	OrthoOrbital Ag 26   p \
	OrthoOrbital Ag 26   px \
	OrthoOrbital Ag 26   py \
	OrthoOrbital Ag 26   pz \
	OrthoOrbital Ag 26   d \
	OrthoOrbital Ag 26   dxy \
	OrthoOrbital Ag 26   dyz \
	OrthoOrbital Ag 26   dz2 \
	OrthoOrbital Ag 26   dxz \
	OrthoOrbital Ag 26   dx2-y2 \
	OrthoOrbital Ag 27   s \
	OrthoOrbital Ag 27   p \
	OrthoOrbital Ag 27   px \
	OrthoOrbital Ag 27   py \
	OrthoOrbital Ag 27   pz \
	OrthoOrbital Ag 27   d \
	OrthoOrbital Ag 27   dxy \
	OrthoOrbital Ag 27   dyz \
	OrthoOrbital Ag 27   dz2 \
	OrthoOrbital Ag 27   dxz \
	OrthoOrbital Ag 27   dx2-y2 \
	OrthoOrbital Ag 28   s \
	OrthoOrbital Ag 28   p \
	OrthoOrbital Ag 28   px \
	OrthoOrbital Ag 28   py \
	OrthoOrbital Ag 28   pz \
	OrthoOrbital Ag 28   d \
	OrthoOrbital Ag 28   dxy \
	OrthoOrbital Ag 28   dyz \
	OrthoOrbital Ag 28   dz2 \
	OrthoOrbital Ag 28   dxz \
	OrthoOrbital Ag 28   dx2-y2 \
	OrthoOrbital Ag 29   s \
	OrthoOrbital Ag 29   p \
	OrthoOrbital Ag 29   px \
	OrthoOrbital Ag 29   py \
	OrthoOrbital Ag 29   pz \
	OrthoOrbital Ag 29   d \
	OrthoOrbital Ag 29   dxy \
	OrthoOrbital Ag 29   dyz \
	OrthoOrbital Ag 29   dz2 \
	OrthoOrbital Ag 29   dxz \
	OrthoOrbital Ag 29   dx2-y2 \
	OrthoOrbital Ag 30   s \
	OrthoOrbital Ag 30   p \
	OrthoOrbital Ag 30   px \
	OrthoOrbital Ag 30   py \
	OrthoOrbital Ag 30   pz \
	OrthoOrbital Ag 30   d \
	OrthoOrbital Ag 30   dxy \
	OrthoOrbital Ag 30   dyz \
	OrthoOrbital Ag 30   dz2 \
	OrthoOrbital Ag 30   dxz \
	OrthoOrbital Ag 30   dx2-y2 \
	OrthoOrbital Ag 31   s \
	OrthoOrbital Ag 31   p \
	OrthoOrbital Ag 31   px \
	OrthoOrbital Ag 31   py \
	OrthoOrbital Ag 31   pz \
	OrthoOrbital Ag 31   d \
	OrthoOrbital Ag 31   dxy \
	OrthoOrbital Ag 31   dyz \
	OrthoOrbital Ag 31   dz2 \
	OrthoOrbital Ag 31   dxz \
	OrthoOrbital Ag 31   dx2-y2 \
	OrthoOrbital Ag 32   s \
	OrthoOrbital Ag 32   p \
	OrthoOrbital Ag 32   px \
	OrthoOrbital Ag 32   py \
	OrthoOrbital Ag 32   pz \
	OrthoOrbital Ag 32   d \
	OrthoOrbital Ag 32   dxy \
	OrthoOrbital Ag 32   dyz \
	OrthoOrbital Ag 32   dz2 \
	OrthoOrbital Ag 32   dxz \
	OrthoOrbital Ag 32   dx2-y2 \
	OrthoOrbital Ag 33   s \
	OrthoOrbital Ag 33   p \
	OrthoOrbital Ag 33   px \
	OrthoOrbital Ag 33   py \
	OrthoOrbital Ag 33   pz \
	OrthoOrbital Ag 33   d \
	OrthoOrbital Ag 33   dxy \
	OrthoOrbital Ag 33   dyz \
	OrthoOrbital Ag 33   dz2 \
	OrthoOrbital Ag 33   dxz \
	OrthoOrbital Ag 33   dx2-y2 \
	OrthoOrbital Ag 34   s \
	OrthoOrbital Ag 34   p \
	OrthoOrbital Ag 34   px \
	OrthoOrbital Ag 34   py \
	OrthoOrbital Ag 34   pz \
	OrthoOrbital Ag 34   d \
	OrthoOrbital Ag 34   dxy \
	OrthoOrbital Ag 34   dyz \
	OrthoOrbital Ag 34   dz2 \
	OrthoOrbital Ag 34   dxz \
	OrthoOrbital Ag 34   dx2-y2 \
	OrthoOrbital Ag 35   s \
	OrthoOrbital Ag 35   p \
	OrthoOrbital Ag 35   px \
	OrthoOrbital Ag 35   py \
	OrthoOrbital Ag 35   pz \
	OrthoOrbital Ag 35   d \
	OrthoOrbital Ag 35   dxy \
	OrthoOrbital Ag 35   dyz \
	OrthoOrbital Ag 35   dz2 \
	OrthoOrbital Ag 35   dxz \
	OrthoOrbital Ag 35   dx2-y2 \
	OrthoOrbital Ag 36   s \
	OrthoOrbital Ag 36   p \
	OrthoOrbital Ag 36   px \
	OrthoOrbital Ag 36   py \
	OrthoOrbital Ag 36   pz \
	OrthoOrbital Ag 36   d \
	OrthoOrbital Ag 36   dxy \
	OrthoOrbital Ag 36   dyz \
	OrthoOrbital Ag 36   dz2 \
	OrthoOrbital Ag 36   dxz \
	OrthoOrbital Ag 36   dx2-y2 \
	OrthoOrbital Ag 37   s \
	OrthoOrbital Ag 37   p \
	OrthoOrbital Ag 37   px \
	OrthoOrbital Ag 37   py \
	OrthoOrbital Ag 37   pz \
	OrthoOrbital Ag 37   d \
	OrthoOrbital Ag 37   dxy \
	OrthoOrbital Ag 37   dyz \
	OrthoOrbital Ag 37   dz2 \
	OrthoOrbital Ag 37   dxz \
	OrthoOrbital Ag 37   dx2-y2 \
	OrthoOrbital Ag 38   s \
	OrthoOrbital Ag 38   p \
	OrthoOrbital Ag 38   px \
	OrthoOrbital Ag 38   py \
	OrthoOrbital Ag 38   pz \
	OrthoOrbital Ag 38   d \
	OrthoOrbital Ag 38   dxy \
	OrthoOrbital Ag 38   dyz \
	OrthoOrbital Ag 38   dz2 \
	OrthoOrbital Ag 38   dxz \
	OrthoOrbital Ag 38   dx2-y2 \
	OrthoOrbital Ag 39   s \
	OrthoOrbital Ag 39   p \
	OrthoOrbital Ag 39   px \
	OrthoOrbital Ag 39   py \
	OrthoOrbital Ag 39   pz \
	OrthoOrbital Ag 39   d \
	OrthoOrbital Ag 39   dxy \
	OrthoOrbital Ag 39   dyz \
	OrthoOrbital Ag 39   dz2 \
	OrthoOrbital Ag 39   dxz \
	OrthoOrbital Ag 39   dx2-y2 \
	OrthoOrbital Ag 40   s \
	OrthoOrbital Ag 40   p \
	OrthoOrbital Ag 40   px \
	OrthoOrbital Ag 40   py \
	OrthoOrbital Ag 40   pz \
	OrthoOrbital Ag 40   d \
	OrthoOrbital Ag 40   dxy \
	OrthoOrbital Ag 40   dyz \
	OrthoOrbital Ag 40   dz2 \
	OrthoOrbital Ag 40   dxz \
	OrthoOrbital Ag 40   dx2-y2 \
	OrthoOrbital Ag 41   s \
	OrthoOrbital Ag 41   p \
	OrthoOrbital Ag 41   px \
	OrthoOrbital Ag 41   py \
	OrthoOrbital Ag 41   pz \
	OrthoOrbital Ag 41   d \
	OrthoOrbital Ag 41   dxy \
	OrthoOrbital Ag 41   dyz \
	OrthoOrbital Ag 41   dz2 \
	OrthoOrbital Ag 41   dxz \
	OrthoOrbital Ag 41   dx2-y2 \
	OrthoOrbital Ag 42   s \
	OrthoOrbital Ag 42   p \
	OrthoOrbital Ag 42   px \
	OrthoOrbital Ag 42   py \
	OrthoOrbital Ag 42   pz \
	OrthoOrbital Ag 42   d \
	OrthoOrbital Ag 42   dxy \
	OrthoOrbital Ag 42   dyz \
	OrthoOrbital Ag 42   dz2 \
	OrthoOrbital Ag 42   dxz \
	OrthoOrbital Ag 42   dx2-y2 \
	OrthoOrbital Ag 43   s \
	OrthoOrbital Ag 43   p \
	OrthoOrbital Ag 43   px \
	OrthoOrbital Ag 43   py \
	OrthoOrbital Ag 43   pz \
	OrthoOrbital Ag 43   d \
	OrthoOrbital Ag 43   dxy \
	OrthoOrbital Ag 43   dyz \
	OrthoOrbital Ag 43   dz2 \
	OrthoOrbital Ag 43   dxz \
	OrthoOrbital Ag 43   dx2-y2 \
	OrthoOrbital Ag 44   s \
	OrthoOrbital Ag 44   p \
	OrthoOrbital Ag 44   px \
	OrthoOrbital Ag 44   py \
	OrthoOrbital Ag 44   pz \
	OrthoOrbital Ag 44   d \
	OrthoOrbital Ag 44   dxy \
	OrthoOrbital Ag 44   dyz \
	OrthoOrbital Ag 44   dz2 \
	OrthoOrbital Ag 44   dxz \
	OrthoOrbital Ag 44   dx2-y2 \
	OrthoOrbital Ag 45   s \
	OrthoOrbital Ag 45   p \
	OrthoOrbital Ag 45   px \
	OrthoOrbital Ag 45   py \
	OrthoOrbital Ag 45   pz \
	OrthoOrbital Ag 45   d \
	OrthoOrbital Ag 45   dxy \
	OrthoOrbital Ag 45   dyz \
	OrthoOrbital Ag 45   dz2 \
	OrthoOrbital Ag 45   dxz \
	OrthoOrbital Ag 45   dx2-y2 \
	OrthoOrbital Ag 46   s \
	OrthoOrbital Ag 46   p \
	OrthoOrbital Ag 46   px \
	OrthoOrbital Ag 46   py \
	OrthoOrbital Ag 46   pz \
	OrthoOrbital Ag 46   d \
	OrthoOrbital Ag 46   dxy \
	OrthoOrbital Ag 46   dyz \
	OrthoOrbital Ag 46   dz2 \
	OrthoOrbital Ag 46   dxz \
	OrthoOrbital Ag 46   dx2-y2 \
	OrthoOrbital Ag 47   s \
	OrthoOrbital Ag 47   p \
	OrthoOrbital Ag 47   px \
	OrthoOrbital Ag 47   py \
	OrthoOrbital Ag 47   pz \
	OrthoOrbital Ag 47   d \
	OrthoOrbital Ag 47   dxy \
	OrthoOrbital Ag 47   dyz \
	OrthoOrbital Ag 47   dz2 \
	OrthoOrbital Ag 47   dxz \
	OrthoOrbital Ag 47   dx2-y2 \
	OrthoOrbital Ag 48   s \
	OrthoOrbital Ag 48   p \
	OrthoOrbital Ag 48   px \
	OrthoOrbital Ag 48   py \
	OrthoOrbital Ag 48   pz \
	OrthoOrbital Ag 48   d \
	OrthoOrbital Ag 48   dxy \
	OrthoOrbital Ag 48   dyz \
	OrthoOrbital Ag 48   dz2 \
	OrthoOrbital Ag 48   dxz \
	OrthoOrbital Ag 48   dx2-y2 \
	OrthoOrbital C 1   s \
	OrthoOrbital C 1   p \
	OrthoOrbital C 1   px \
	OrthoOrbital C 1   py \
	OrthoOrbital C 1   pz \
	OrthoOrbital O 1   s \
	OrthoOrbital O 1   p \
	OrthoOrbital O 1   px \
	OrthoOrbital O 1   py \
	OrthoOrbital O 1   pz
dump End ElecDensity KEdensity BandEigs EigStats RhoAtom DOS Kpoints
dump Ionic State IonicPositions Lattice EigStats Ecomponents
dump 
dump 
dump 
dump 
dump 
dump 
dump 
dump 
dump-name jdft.$VAR
elec-cutoff 20
elec-eigen-algo Davidson
elec-ex-corr gga-PBE
elec-initial-magnetization 0.000000 no
elec-n-bands 554
elec-smearing Fermi 0.001
electronic-minimize  \
	dirUpdateScheme      FletcherReeves \
	linminMethod         DirUpdateRecommended \
	nIterations          100 \
	history              15 \
	knormThreshold       0 \
	energyDiffThreshold  1e-07 \
	nEnergyDiff          2 \
	alphaTstart          1 \
	alphaTmin            1e-10 \
	updateTestStepSize   yes \
	alphaTreduceFactor   0.1 \
	alphaTincreaseFactor 3 \
	nAlphaAdjustMax      3 \
	wolfeEnergy          0.0001 \
	wolfeGradient        0.9 \
	fdTest               no
exchange-regularization WignerSeitzTruncated
fluid LinearPCM 298.000000 1.013250
fluid-anion F- 0.5 MeanFieldLJ \
	epsBulk 1 \
	pMol 0 \
	epsInf 1 \
	Pvap 0 \
	sigmaBulk 0 \
	Rvdw 2.24877 \
	Res 0 \
	tauNuc 343133
fluid-cation Na+ 0.5 MeanFieldLJ \
	epsBulk 1 \
	pMol 0 \
	epsInf 1 \
	Pvap 0 \
	sigmaBulk 0 \
	Rvdw 2.19208 \
	Res 0 \
	tauNuc 343133
fluid-ex-corr lda-TF lda-PZ
fluid-gummel-loop 10 1.000000e-05
fluid-minimize  \
	dirUpdateScheme      PolakRibiere \
	linminMethod         DirUpdateRecommended \
	nIterations          400 \
	history              15 \
	knormThreshold       1e-11 \
	energyDiffThreshold  0 \
	nEnergyDiff          2 \
	alphaTstart          1 \
	alphaTmin            1e-10 \
	updateTestStepSize   yes \
	alphaTreduceFactor   0.1 \
	alphaTincreaseFactor 3 \
	nAlphaAdjustMax      6 \
	wolfeEnergy          0.0001 \
	wolfeGradient        0.9 \
	fdTest               no
fluid-solvent H2O 55.338 ScalarEOS \
	epsBulk 78.4 \
	pMol 0.92466 \
	epsInf 1.77 \
	Pvap 1.06736e-10 \
	sigmaBulk 4.62e-05 \
	Rvdw 2.61727 \
	Res 1.42 \
	tauNuc 343133 \
	poleEl 15 7 1
forces-output-coords Positions
initial-state jdft.$VAR
ion Ag  10.839213999999998  26.417100999999985  17.976664000000000 0
ion Ag  10.839213999999998  13.139773999999992  17.976664000000000 0
ion Ag   5.418766999999999  26.417100999999985  17.976664000000000 0
ion Ag   5.418766999999999  13.139773999999992  17.976664000000000 0
ion Ag   0.000217000000000   4.519150999999997   2.204173000000000 0
ion Ag   0.000217000000000  17.796477999999993   2.204173000000000 0
ion Ag   5.420663999999999   4.519150999999997   2.204173000000000 0
ion Ag   5.420663999999999  17.796477999999993   2.204173000000000 0
ion Ag   0.000954000000000   8.973428999999994   5.467986999999998 0
ion Ag   0.000954000000000  22.250755999999988   5.467986999999998 0
ion Ag   5.421401000000000   8.973428999999994   5.467986999999998 0
ion Ag   5.421401000000000  22.250755999999988   5.467986999999998 0
ion Ag  10.840016000000000   0.022810000000000   8.601168999999999 0
ion Ag  10.840016000000000  13.300137999999993   8.601168999999999 0
ion Ag   5.419558000000000   0.022810000000000   8.601168999999999 0
ion Ag   5.419558000000000  13.300137999999993   8.601168999999999 0
ion Ag   0.000022000000000   4.389802999999998  11.760488999999996 0
ion Ag   0.000022000000000  17.667103999999988  11.760488999999996 0
ion Ag   5.420469000000000   4.389802999999998  11.760488999999996 0
ion Ag   5.420469000000000  17.667103999999988  11.760488999999996 0
ion Ag   5.421032000000000   8.708757999999996  15.042160000000001 0
ion Ag   5.421032000000000  21.986085999999990  15.042160000000001 0
ion Ag   0.000585000000000   8.708757999999996  15.042160000000001 0
ion Ag   0.000585000000000  21.986085999999990  15.042160000000001 0
ion Ag   2.709595000000000   0.146449000000000   3.735190999999999 0
ion Ag   2.709595000000000  13.423749999999989   3.735190999999999 0
ion Ag   8.130042000000000   0.146449000000000   3.735190999999999 0
ion Ag   8.130042000000000  13.423749999999989   3.735190999999999 0
ion Ag   2.710256000000000   4.461951999999997   7.016861999999997 0
ion Ag   2.710256000000000  17.739278999999993   7.016861999999997 0
ion Ag   8.130702999999999   4.461951999999997   7.016861999999997 0
ion Ag   8.130702999999999  17.739278999999993   7.016861999999997 0
ion Ag   2.711004000000000   8.825173999999995  10.174547999999996 0
ion Ag   2.711004000000000  22.102500999999990  10.174547999999996 0
ion Ag   8.131451000000000   8.825173999999995  10.174547999999996 0
ion Ag   8.131451000000000  22.102500999999990  10.174547999999996 0
ion Ag   2.709269000000000  26.433883999999985  13.312124999999995 0
ion Ag   2.709269000000000  13.156556999999992  13.312124999999995 0
ion Ag   8.129716000000000  26.433883999999985  13.312124999999995 0
ion Ag   8.129716000000000  13.156556999999992  13.312124999999995 0
ion Ag   2.710104000000000   4.330638999999997  16.571093999999999 0
ion Ag   2.710104000000000  17.607966999999988  16.571093999999999 0
ion Ag   8.130540000000000   4.330638999999997  16.571093999999999 0
ion Ag   8.130540000000000  17.607966999999988  16.571093999999999 0
ion Ag   2.711904000000000   8.989520999999995   0.799449000000000 0
ion Ag   2.711904000000000  22.266847999999985   0.799449000000000 0
ion Ag   8.132351000000000   8.989520999999995   0.799449000000000 0
ion Ag   8.132351000000000  22.266847999999985   0.799449000000000 0
ion C   4.064434999999999   8.735206999999997  19.398518224223004 1  Linear 0 0 1
ion O   4.124526000000000   8.735206999999997  21.592070447013601 1  Linear 0 0 1
ion-species /projects/musgravc/apps/jdftx-1.6.0/build/pseudopotentials/GBRV_v1.5/$ID_pbe_v1.uspp
ion-species /projects/musgravc/apps/jdftx-1.6.0/build/pseudopotentials/GBRV_v1.5/$ID_pbe_v1.2.uspp
ion-species /projects/musgravc/apps/jdftx-1.6.0/build/pseudopotentials/GBRV_v1.5/$ID_pbe_v1.4.uspp
ion-species /projects/musgravc/apps/jdftx-1.6.0/build/pseudopotentials/GBRV_v1.5/$ID_pbe_v1.5.uspp
ion-width Ecut
ionic-minimize  \
	dirUpdateScheme      L-BFGS \
	linminMethod         DirUpdateRecommended \
	nIterations          100 \
	history              15 \
	knormThreshold       0.0001 \
	energyDiffThreshold  1e-06 \
	nEnergyDiff          2 \
	alphaTstart          1 \
	alphaTmin            1e-10 \
	updateTestStepSize   yes \
	alphaTreduceFactor   0.1 \
	alphaTincreaseFactor 3 \
	nAlphaAdjustMax      3 \
	wolfeEnergy          0.0001 \
	wolfeGradient        0.9 \
	fdTest               no
kpoint   0.000000000000   0.000000000000   0.000000000000  1.00000000000000
kpoint-folding 6 2 1 
latt-move-scale 0 0 0
latt-scale 1 1 1 
lattice  \
	  10.840894000000000    0.000000000000000    0.000000000000000  \
	   0.000000000000000   26.554655000000000    0.000000000000000  \
	   0.000000000000000    0.000000000000000   56.330927000000003 
lattice-minimize  \
	dirUpdateScheme      L-BFGS \
	linminMethod         DirUpdateRecommended \
	nIterations          0 \
	history              15 \
	knormThreshold       0 \
	energyDiffThreshold  1e-06 \
	nEnergyDiff          2 \
	alphaTstart          1 \
	alphaTmin            1e-10 \
	updateTestStepSize   yes \
	alphaTreduceFactor   0.1 \
	alphaTincreaseFactor 3 \
	nAlphaAdjustMax      3 \
	wolfeEnergy          0.0001 \
	wolfeGradient        0.9 \
	fdTest               no
lcao-params 30 1e-06 0.001
pcm-variant CANDLE
spintype z-spin
subspace-rotation-factor 1 yes
symmetries automatic
symmetry-threshold 0.0001
van-der-waals D3



---------- Setting up symmetries ----------

Found 8 point-group symmetries of the bravais lattice
Found 1 space-group symmetries with basis
Applied RMS atom displacement 0 bohrs to make symmetries exact.

---------- Initializing the Grid ----------
R = 
[      10.8409            0            0  ]
[            0      26.5547            0  ]
[            0            0      56.3309  ]
unit cell volume = 16216.3
G =
[   0.579582          0          0  ]
[          0   0.236613          0  ]
[          0          0   0.111541  ]
Minimum fftbox size, Smin = [  44  108  228  ]
Chosen fftbox size, S = [  48  108  240  ]

---------- Exchange Correlation functional ----------
Initalized PBE GGA exchange.
Initalized PBE GGA correlation.

---------- Setting up pseudopotentials ----------
Width of ionic core gaussian charges (only for fluid interactions / plotting) set to 0.397384

Reading pseudopotential file '/projects/musgravc/apps/jdftx-1.6.0/build/pseudopotentials/GBRV_v1.5/ag_pbe_v1.4.uspp':
  Title: Ag.  Created by USPP 7.3.6 on 1-4-15
  Reference state energy: -147.606242.  19 valence electrons in orbitals:
    |400>  occupation: 2  eigenvalue: -3.637437
    |410>  occupation: 6  eigenvalue: -2.297267
    |420>  occupation: 10  eigenvalue: -0.417763
    |500>  occupation: 0.5  eigenvalue: -0.283525
    |510>  occupation: 0  eigenvalue: -0.122889
  lMax: 2  lLocal: 0  QijEcut: 5.5
  6 projectors sampled on a log grid with 717 points:
    l: 0  eig: -0.283528  rCut: 1.5
    l: 0  eig: -3.637440  rCut: 1.5
    l: 1  eig: -0.122892  rCut: 1.5
    l: 1  eig: -2.297267  rCut: 1.5
    l: 2  eig: -0.417762  rCut: 1.7
    l: 2  eig: -1.000000  rCut: 1.7
  Partial core density with radius 1.2
  Transforming core density to a uniform radial grid of dG=0.02 with 1163 points.
  Transforming local potential to a uniform radial grid of dG=0.02 with 1163 points.
  Transforming nonlocal projectors to a uniform radial grid of dG=0.02 with 432 points.
  Transforming density augmentations to a uniform radial grid of dG=0.02 with 1163 points.
  Transforming atomic orbitals to a uniform radial grid of dG=0.02 with 432 points.
  Core radius for overlap checks: 1.70 bohrs.

Reading pseudopotential file '/projects/musgravc/apps/jdftx-1.6.0/build/pseudopotentials/GBRV_v1.5/c_pbe_v1.2.uspp':
  Title: C.  Created by USPP 7.3.6 on 3-2-2014
  Reference state energy: -5.406344.  4 valence electrons in orbitals:
    |200>  occupation: 2  eigenvalue: -0.504890
    |210>  occupation: 2  eigenvalue: -0.194356
  lMax: 1  lLocal: 2  QijEcut: 5
  4 projectors sampled on a log grid with 503 points:
    l: 0  eig: -0.504890  rCut: 1.3
    l: 0  eig: 0.000000  rCut: 1.3
    l: 1  eig: -0.194357  rCut: 1.3
    l: 1  eig: 0.000000  rCut: 1.3
  Partial core density with radius 1.1
  Transforming core density to a uniform radial grid of dG=0.02 with 1163 points.
  Transforming local potential to a uniform radial grid of dG=0.02 with 1163 points.
  Transforming nonlocal projectors to a uniform radial grid of dG=0.02 with 432 points.
  Transforming density augmentations to a uniform radial grid of dG=0.02 with 1163 points.
  Transforming atomic orbitals to a uniform radial grid of dG=0.02 with 432 points.
  Core radius for overlap checks: 1.30 bohrs.

Reading pseudopotential file '/projects/musgravc/apps/jdftx-1.6.0/build/pseudopotentials/GBRV_v1.5/o_pbe_v1.2.uspp':
  Title: O.  Created by USPP 7.3.6 on 3-2-2014
  Reference state energy: -15.894388.  6 valence electrons in orbitals:
    |200>  occupation: 2  eigenvalue: -0.878823
    |210>  occupation: 4  eigenvalue: -0.332131
  lMax: 2  lLocal: 2  QijEcut: 6
  5 projectors sampled on a log grid with 511 points:
    l: 0  eig: -0.878823  rCut: 1.25
    l: 0  eig: 0.000000  rCut: 1.25
    l: 1  eig: -0.332132  rCut: 1.25
    l: 1  eig: 0.000000  rCut: 1.25
    l: 2  eig: 1.000000  rCut: 1.25
  Partial core density with radius 0.7
  Transforming core density to a uniform radial grid of dG=0.02 with 1163 points.
  Transforming local potential to a uniform radial grid of dG=0.02 with 1163 points.
  Transforming nonlocal projectors to a uniform radial grid of dG=0.02 with 432 points.
  Transforming density augmentations to a uniform radial grid of dG=0.02 with 1163 points.
  Transforming atomic orbitals to a uniform radial grid of dG=0.02 with 432 points.
  Core radius for overlap checks: 1.25 bohrs.

Initialized 3 species with 50 total atoms.

Folded 1 k-points by 6x2x1 to 12 k-points.

---------- Setting up k-points, bands, fillings ----------
Adding inversion symmetry to k-mesh for non-inversion-symmetric unit cell.
Reduced to 8 k-points under symmetry. 
Computing the number of bands and number of electrons
Reading initial fillings from file jdft.fillings.
nElectrons: 922.000000   nBands: 554   nStates: 16

----- Setting up reduced wavefunction bases (one per k-point) -----
average nbasis = 69288.417 , ideal nbasis = 69277.411

----- Initializing Supercell corresponding to k-point mesh -----
Lattice vector linear combinations in supercell:
[   6   0   0  ]
[   0   2   0  ]
[   0   0   1  ]
Supercell lattice vectors:
[  65.0454  0  0  ]
[  0  53.1093  0  ]
[  0  0  56.3309  ]

Initializing DFT-D3 calculator:
	Parameters set for gga-PBE functional
	s6:  1.000  s_r6:  1.217
	s8:  0.722  s_r8:  1.000
	Per-atom parameters loaded for:
	Ag:  sqrtQ[a0]:  5.443  Rcov[a0]:  2.173  CN: [ 0.00 0.97 ]
	 C:  sqrtQ[a0]:  3.105  Rcov[a0]:  1.417  CN: [ 0.00 0.99 2.00 3.00 3.98 ]
	 O:  sqrtQ[a0]:  2.594  Rcov[a0]:  1.191  CN: [ 0.00 0.99 1.99 ]

Initializing DFT-D2 calculator for fluid / solvation:
	Ag:  C6:  427.91 Eh-a0^6  R0: 3.097 a0
	 C:  C6:   30.35 Eh-a0^6  R0: 2.744 a0
	 O:  C6:   12.14 Eh-a0^6  R0: 2.536 a0

---------- Setting up ewald sum ----------
Optimum gaussian width for ewald sums = 5.260972 bohr.
Real space sum over 455 unit cells with max indices [  6  3  2  ]
Reciprocal space sum over 7733 terms with max indices [  5  9  18  ]

Computing DFT-D3 correction:
# coordination-number Ag 5.463 5.495 5.463 5.957 6.738 6.738 6.738 6.738 8.993 8.993 8.993 8.993 8.975 8.975 8.975 8.975 8.934 8.934 8.934 8.934 8.190 7.497 7.541 7.497 7.499 7.499 7.499 7.499 8.932 8.932 8.932 8.932 8.980 8.979 8.980 8.979 8.996 8.999 8.996 8.997 6.884 6.743 6.756 6.742 5.455 5.455 5.455 5.455
# coordination-number C 2.391
# coordination-number O 1.043
# diagonal-C6 Ag 268.61 268.61 268.61 268.61 268.61 268.61 268.61 268.61 268.61 268.61 268.61 268.61 268.61 268.61 268.61 268.61 268.61 268.61 268.61 268.61 268.61 268.61 268.61 268.61 268.61 268.61 268.61 268.61 268.61 268.61 268.61 268.61 268.61 268.61 268.61 268.61 268.61 268.61 268.61 268.61 268.61 268.61 268.61 268.61 268.61 268.61 268.61 268.61
# diagonal-C6 C 28.27
# diagonal-C6 O 12.78
EvdW_6 =   -0.277456
EvdW_8 =   -0.386443

---------- Allocating electronic variables ----------
Initializing wave functions:  reading from 'jdft.wfns'
----- createFluidSolver() ----- (Fluid-side solver setup)
   Initializing fluid molecule 'H2O'
     Initializing site 'O'
       Electron density: proportional to exp(-r/0.36935)*erfc((r-0.51523)/0.36823) with norm 6.826
       Charge density: gaussian nuclear width 0.478731 with net site charge 0.826
       Polarizability: cuspless exponential with width 0.32 and norm 3.73
       Hard sphere radius: 2.57003 bohrs
       Positions in reference frame:
         [ +0.000000 +0.000000 +0.000000 ]
     Initializing site 'H'
       Electron density: proportional to exp(-r/0.34641)*erfc((r-0)/0.390882) with norm 0.587
       Charge density: gaussian nuclear width 0.377945 with net site charge -0.413
       Polarizability: cuspless exponential with width 0.39 and norm 3.3
       Positions in reference frame:
         [ +0.000000 -1.441945 +1.122523 ]
         [ +0.000000 +1.441945 +1.122523 ]
     Net charge: 0   dipole magnitude: 0.927204
     Initializing spherical shell mfKernel with radius 2.61727 Bohr
     deltaS corrections:
       site 'O': -7.54299
       site 'H': -6.83917
   Initializing fluid molecule 'Na+'
     Initializing site 'Na'
       Electron density: proportional to exp(-r/0.19682)*erfc((r-0.71491)/0.41314) with norm 8.1383
       Charge density: gaussian nuclear width 0.365347 with net site charge -1
       Hard sphere radius: 1.86327 bohrs
       Positions in reference frame:
         [ +0.000000 +0.000000 +0.000000 ]
     Net charge: -1   dipole magnitude: 0
     Initializing gaussian mfKernel with width: 1.55004 Bohr
     deltaS corrections:
       site 'Na': -22.3555
   Initializing fluid molecule 'F-'
     Initializing site 'F'
       Electron density: proportional to exp(-r/0.38886)*erfc((r-0)/0.438782) with norm 8
       Charge density: gaussian nuclear width 0.374796 with net site charge 1
       Hard sphere radius: 2.39995 bohrs
       Positions in reference frame:
         [ +0.000000 +0.000000 +0.000000 ]
     Net charge: 1   dipole magnitude: 0
     Initializing gaussian mfKernel with width: 1.59012 Bohr
     deltaS corrections:
       site 'F': -9.04335

Correction to mu due to finite nuclear width = -0.0564128
   Cavity determined by nc: 0.00142 and sigma: 0.707107
   Nonlocal vdW cavity from gaussian model electron density with norm = 8 and sigma = 0.993594 bohr
   Charge asymmetry in cavity with sensitivity pCavity = 36.5 e-bohr/Eh
   Electrostatic cavity expanded by eta = 1.46 bohrs
   Weighted density cavitation model constrained by Nbulk: 0.0049383 bohr^-3, Pvap: 3.14029 kPa, Rvdw: 2.61727 bohr and sigmaBulk: 4.62e-05 Eh/bohr^2 at T: 298 K.
   Weighted density dispersion model using vdW pair potentials with single solvent site with sqrtC6eff: 0.77 SI.
Reading fluid state from 'jdft.fluidState'


---- Citations for features of the code used in this run ----

   Software package:
      R. Sundararaman, K. Letchworth-Weaver, K.A. Schwarz, D. Gunceler, Y. Ozhabes and T.A. Arias, 'JDFTx: software for joint density-functional theory', SoftwareX 6, 278 (2017)

   gga-PBE exchange-correlation functional:
      J.P. Perdew, K. Burke and M. Ernzerhof, Phys. Rev. Lett. 77, 3865 (1996)

   Pseudopotentials:
      KF Garrity, JW Bennett, KM Rabe and D Vanderbilt, Comput. Mater. Sci. 81, 446 (2014)

   DFT-D3 dispersion correction:
      S. Grimme, J. Antony, S. Ehrlich and H. Krieg, J. Chem. Phys. 132, 154104 (2010)

   DFT-D2 dispersion correction:
      S. Grimme, J. Comput. Chem. 27, 1787 (2006)

   Charge-asymmetric nonlocally-determined local-electric (CANDLE) solvation model:
      R. Sundararaman and W.A. Goddard III, J. Chem. Phys. 142, 064107 (2015)

   Total energy minimization with Auxiliary Hamiltonian:
      C. Freysoldt, S. Boeck, and J. Neugebauer, Phys. Rev. B 79, 241103(R) (2009)

   Linear-tetrahedron sampling for density of states:
      G. Lehmann and M. Taut, Phys. status solidi (b) 54, 469 (1972)

This list may not be complete. Please suggest additional citations or
report any other bugs at https://github.com/shankar1729/jdftx/issues

Initialization completed successfully at t[s]:     45.64


Computing DFT-D3 correction:
# coordination-number Ag 5.463 5.495 5.463 5.957 6.738 6.738 6.738 6.738 8.993 8.993 8.993 8.993 8.975 8.975 8.975 8.975 8.934 8.934 8.934 8.934 8.190 7.497 7.541 7.497 7.499 7.499 7.499 7.499 8.932 8.932 8.932 8.932 8.980 8.979 8.980 8.979 8.996 8.999 8.996 8.997 6.884 6.743 6.756 6.742 5.455 5.455 5.455 5.455
# coordination-number C 2.391
# coordination-number O 1.043
# diagonal-C6 Ag 268.61 268.61 268.61 268.61 268.61 268.61 268.61 268.61 268.61 268.61 268.61 268.61 268.61 268.61 268.61 268.61 268.61 268.61 268.61 268.61 268.61 268.61 268.61 268.61 268.61 268.61 268.61 268.61 268.61 268.61 268.61 268.61 268.61 268.61 268.61 268.61 268.61 268.61 268.61 268.61 268.61 268.61 268.61 268.61 268.61 268.61 268.61 268.61
# diagonal-C6 C 28.27
# diagonal-C6 O 12.78
EvdW_6 =   -0.277456
EvdW_8 =   -0.386443

-------- Electronic minimization -----------
	Linear fluid (dielectric constant: 78.4, screening length: 8.12261 Bohr) occupying 0.506939 of unit cell:	Completed after 2 iterations at t[s]:     68.56
	FillingsUpdate:  mu: -0.145453587  nElectrons: 922.000000  magneticMoment: [ Abs: 0.00000  Tot: -0.00000 ]
ElecMinimize: Iter:   0  F: -7106.982808780156120  |grad|_K:  3.924e-08  alpha:  1.000e+00
	Linear fluid (dielectric constant: 78.4, screening length: 8.12261 Bohr) occupying 0.506958 of unit cell:	Completed after 11 iterations at t[s]:    260.64
	Linear fluid (dielectric constant: 78.4, screening length: 8.12261 Bohr) occupying 0.506940 of unit cell:	Completed after 11 iterations at t[s]:    325.87
	FillingsUpdate:  mu: -0.145400454  nElectrons: 922.000000  magneticMoment: [ Abs: 0.00000  Tot: -0.00000 ]
	SubspaceRotationAdjust: set factor to 0.708
ElecMinimize: Iter:   1  F: -7106.982808882814425  |grad|_K:  7.127e-09  alpha:  9.284e-02  linmin: -2.872e-03  t[s]:    413.96
	Linear fluid (dielectric constant: 78.4, screening length: 8.12261 Bohr) occupying 0.506941 of unit cell:	Completed after 0 iterations at t[s]:    501.99
ElecMinimize: 	Predicted alpha/alphaT>3.000000, increasing alphaT to 2.785337e-01.
	Linear fluid (dielectric constant: 78.4, screening length: 8.12261 Bohr) occupying 0.506941 of unit cell:	Completed after 2 iterations at t[s]:    564.98
	Linear fluid (dielectric constant: 78.4, screening length: 8.12261 Bohr) occupying 0.506941 of unit cell:	Completed after 0 iterations at t[s]:    626.77
	FillingsUpdate:  mu: -0.145387490  nElectrons: 922.000000  magneticMoment: [ Abs: 0.00000  Tot: -0.00000 ]
	SubspaceRotationAdjust: set factor to 0.433
ElecMinimize: Iter:   2  F: -7106.982808888808904  |grad|_K:  8.807e-09  alpha:  9.735e-02  linmin:  5.966e-03  t[s]:    715.25
ElecMinimize: 	Bad step direction: g.d > 0.
ElecMinimize: 	Undoing step.
	Linear fluid (dielectric constant: 78.4, screening length: 8.12261 Bohr) occupying 0.506941 of unit cell:	Completed after 0 iterations at t[s]:    803.22
ElecMinimize: 	Step failed: resetting search direction.
	FillingsUpdate:  mu: -0.145387490  nElectrons: 922.000000  magneticMoment: [ Abs: 0.00000  Tot: -0.00000 ]
	SubspaceRotationAdjust: set factor to 0.322
ElecMinimize: Iter:   3  F: -7106.982808888778891  |grad|_K:  7.374e-09  alpha:  0.000e+00
	Linear fluid (dielectric constant: 78.4, screening length: 8.12261 Bohr) occupying 0.506940 of unit cell:	Completed after 0 iterations at t[s]:    979.61
ElecMinimize: 	Wrong curvature in test step, increasing alphaT to 2.920373e-01.
	Linear fluid (dielectric constant: 78.4, screening length: 8.12261 Bohr) occupying 0.506940 of unit cell:	Completed after 0 iterations at t[s]:   1004.38
	FillingsUpdate:  mu: -0.145387524  nElectrons: 922.000000  magneticMoment: [ Abs: 0.00000  Tot: -0.00000 ]
	SubspaceRotationAdjust: set factor to 0.237
ElecMinimize: Iter:   4  F: -7106.982808895867493  |grad|_K:  6.132e-09  alpha: -5.672e-01  linmin: -1.100e-02  t[s]:   1092.77
	Linear fluid (dielectric constant: 78.4, screening length: 8.12261 Bohr) occupying 0.506938 of unit cell:	Completed after 7 iterations at t[s]:   1184.04
	Linear fluid (dielectric constant: 78.4, screening length: 8.12261 Bohr) occupying 0.506940 of unit cell:	Completed after 5 iterations at t[s]:   1247.52
ElecMinimize: 	Step increased F by 1.065746e-08, reducing alpha to 8.226304e-03.
	Linear fluid (dielectric constant: 78.4, screening length: 8.12261 Bohr) occupying 0.506940 of unit cell:	Completed after 0 iterations at t[s]:   1394.24
ElecMinimize: 	Step increased F by 5.724360e-09, reducing alpha to 8.226304e-04.
	Linear fluid (dielectric constant: 78.4, screening length: 8.12261 Bohr) occupying 0.506940 of unit cell:	Completed after 0 iterations at t[s]:   1540.48
ElecMinimize: 	Step increased F by 4.481990e-09, reducing alpha to 8.226304e-05.
ElecMinimize: 	Step failed to reduce F after 3 attempts. Quitting step.
ElecMinimize: 	Undoing step.
	Linear fluid (dielectric constant: 78.4, screening length: 8.12261 Bohr) occupying 0.506940 of unit cell:	Completed after 0 iterations at t[s]:   1686.63
ElecMinimize: 	Step failed: resetting search direction.
	FillingsUpdate:  mu: -0.145419808  nElectrons: 922.000000  magneticMoment: [ Abs: 0.00000  Tot: -0.00000 ]
	SubspaceRotationAdjust: set factor to 0.136
ElecMinimize: Iter:   5  F: -7106.982808891399145  |grad|_K:  6.724e-09  alpha:  8.226e-05
	Linear fluid (dielectric constant: 78.4, screening length: 8.12261 Bohr) occupying 0.506942 of unit cell:	Completed after 4 iterations at t[s]:   1865.00
	Linear fluid (dielectric constant: 78.4, screening length: 8.12261 Bohr) occupying 0.506941 of unit cell:	Completed after 2 iterations at t[s]:   1927.58
ElecMinimize: 	Step increased F by 8.786628e-09, reducing alpha to 1.921265e-02.
	Linear fluid (dielectric constant: 78.4, screening length: 8.12261 Bohr) occupying 0.506941 of unit cell:	Completed after 0 iterations at t[s]:   2074.41
ElecMinimize: 	Step increased F by 3.621608e-09, reducing alpha to 1.921265e-03.
	Linear fluid (dielectric constant: 78.4, screening length: 8.12261 Bohr) occupying 0.506940 of unit cell:	Completed after 0 iterations at t[s]:   2220.05
ElecMinimize: 	Step increased F by 2.647539e-09, reducing alpha to 1.921265e-04.
ElecMinimize: 	Step failed to reduce F after 3 attempts. Quitting step.
ElecMinimize: 	Undoing step.
	Linear fluid (dielectric constant: 78.4, screening length: 8.12261 Bohr) occupying 0.506940 of unit cell:	Completed after 0 iterations at t[s]:   2366.15
ElecMinimize: 	Step failed along negative gradient direction.
ElecMinimize: Probably at roundoff error limit. (Stopping)
Setting wave functions to eigenvectors of Hamiltonian
Converging empty states (this may take a while): |deigs|: 3.473e-09

Computing DFT-D3 correction:
# coordination-number Ag 5.463 5.495 5.463 5.957 6.738 6.738 6.738 6.738 8.993 8.993 8.993 8.993 8.975 8.975 8.975 8.975 8.934 8.934 8.934 8.934 8.190 7.497 7.541 7.497 7.499 7.499 7.499 7.499 8.932 8.932 8.932 8.932 8.980 8.979 8.980 8.979 8.996 8.999 8.996 8.997 6.884 6.743 6.756 6.742 5.455 5.455 5.455 5.455
# coordination-number C 2.391
# coordination-number O 1.043
# diagonal-C6 Ag 268.61 268.61 268.61 268.61 268.61 268.61 268.61 268.61 268.61 268.61 268.61 268.61 268.61 268.61 268.61 268.61 268.61 268.61 268.61 268.61 268.61 268.61 268.61 268.61 268.61 268.61 268.61 268.61 268.61 268.61 268.61 268.61 268.61 268.61 268.61 268.61 268.61 268.61 268.61 268.61 268.61 268.61 268.61 268.61 268.61 268.61 268.61 268.61
# diagonal-C6 C 28.27
# diagonal-C6 O 12.78
EvdW_6 =   -0.277456
EvdW_8 =   -0.386443

# Ionic positions in cartesian coordinates:
ion Ag  10.839213999999998  26.417100999999985  17.976664000000000 0
ion Ag  10.839213999999998  13.139773999999992  17.976664000000000 0
ion Ag   5.418766999999999  26.417100999999985  17.976664000000000 0
ion Ag   5.418766999999999  13.139773999999992  17.976664000000000 0
ion Ag   0.000217000000000   4.519150999999997   2.204173000000000 0
ion Ag   0.000217000000000  17.796477999999993   2.204173000000000 0
ion Ag   5.420663999999999   4.519150999999997   2.204173000000000 0
ion Ag   5.420663999999999  17.796477999999993   2.204173000000000 0
ion Ag   0.000954000000000   8.973428999999994   5.467986999999998 0
ion Ag   0.000954000000000  22.250755999999988   5.467986999999998 0
ion Ag   5.421401000000000   8.973428999999994   5.467986999999998 0
ion Ag   5.421401000000000  22.250755999999988   5.467986999999998 0
ion Ag  10.840016000000000   0.022810000000000   8.601168999999999 0
ion Ag  10.840016000000000  13.300137999999993   8.601168999999999 0
ion Ag   5.419558000000000   0.022810000000000   8.601168999999999 0
ion Ag   5.419558000000000  13.300137999999993   8.601168999999999 0
ion Ag   0.000022000000000   4.389802999999998  11.760488999999996 0
ion Ag   0.000022000000000  17.667103999999988  11.760488999999996 0
ion Ag   5.420469000000000   4.389802999999998  11.760488999999996 0
ion Ag   5.420469000000000  17.667103999999988  11.760488999999996 0
ion Ag   5.421032000000000   8.708757999999996  15.042160000000001 0
ion Ag   5.421032000000000  21.986085999999990  15.042160000000001 0
ion Ag   0.000585000000000   8.708757999999996  15.042160000000001 0
ion Ag   0.000585000000000  21.986085999999990  15.042160000000001 0
ion Ag   2.709595000000000   0.146449000000000   3.735190999999999 0
ion Ag   2.709595000000000  13.423749999999989   3.735190999999999 0
ion Ag   8.130042000000000   0.146449000000000   3.735190999999999 0
ion Ag   8.130042000000000  13.423749999999989   3.735190999999999 0
ion Ag   2.710256000000000   4.461951999999997   7.016861999999997 0
ion Ag   2.710256000000000  17.739278999999993   7.016861999999997 0
ion Ag   8.130702999999999   4.461951999999997   7.016861999999997 0
ion Ag   8.130702999999999  17.739278999999993   7.016861999999997 0
ion Ag   2.711004000000000   8.825173999999995  10.174547999999996 0
ion Ag   2.711004000000000  22.102500999999990  10.174547999999996 0
ion Ag   8.131451000000000   8.825173999999995  10.174547999999996 0
ion Ag   8.131451000000000  22.102500999999990  10.174547999999996 0
ion Ag   2.709269000000000  26.433883999999985  13.312124999999995 0
ion Ag   2.709269000000000  13.156556999999992  13.312124999999995 0
ion Ag   8.129716000000000  26.433883999999985  13.312124999999995 0
ion Ag   8.129716000000000  13.156556999999992  13.312124999999995 0
ion Ag   2.710104000000000   4.330638999999997  16.571093999999999 0
ion Ag   2.710104000000000  17.607966999999988  16.571093999999999 0
ion Ag   8.130540000000000   4.330638999999997  16.571093999999999 0
ion Ag   8.130540000000000  17.607966999999988  16.571093999999999 0
ion Ag   2.711904000000000   8.989520999999995   0.799449000000000 0
ion Ag   2.711904000000000  22.266847999999985   0.799449000000000 0
ion Ag   8.132351000000000   8.989520999999995   0.799449000000000 0
ion Ag   8.132351000000000  22.266847999999985   0.799449000000000 0
ion C   4.064434999999999   8.735206999999997  19.398518224223004 1  Linear 0 0 1
ion O   4.124526000000000   8.735206999999997  21.592070447013601 1  Linear 0 0 1

# Forces in Cartesian coordinates:
force Ag  -0.000060883111386   0.000311283945664  -0.000012019453384 0
force Ag  -0.001664740369521   0.002215677805984  -0.000299035162494 0
force Ag   0.000108949429769   0.000161235078424  -0.000022581215748 0
force Ag   0.000988296632310   0.003668208836502  -0.000166539302939 0
force Ag   0.000319712569122   0.000189631240762  -0.000104745383767 0
force Ag  -0.000023348362890   0.000376665543801   0.000357058803285 0
force Ag  -0.000292975536516   0.000278949169895  -0.000044436650512 0
force Ag   0.000069555153072   0.000091085674264  -0.000099484920147 0
force Ag   0.000207335091724   0.000225148007214   0.000020572812626 0
force Ag  -0.000003933969582  -0.000097267278620  -0.000683748655388 0
force Ag  -0.000217069193935  -0.000012912398482  -0.000714667220270 0
force Ag   0.000160473689019  -0.000009213807657  -0.000618009488346 0
force Ag   0.000016511088949   0.000804264553573   0.000501616631108 0
force Ag  -0.000338461246121   0.000475194431165  -0.000017898409440 0
force Ag   0.000081162390825   0.000506043680918   0.000201170613161 0
force Ag   0.000295185682806   0.000298906273930  -0.000197723389538 0
force Ag   0.000082804827481   0.000494621261341   0.000144539906194 0
force Ag  -0.000285230212687  -0.000058942658457  -0.000280446238214 0
force Ag  -0.000029386875742   0.000735740806947  -0.000232893148771 0
force Ag   0.000262254199098   0.000069656135037  -0.000496795318673 0
force Ag   0.002679044655264  -0.002062815270444  -0.000268125047211 0
force Ag   0.000347932099560   0.000097965358302  -0.000380094337744 0
force Ag  -0.004347017729893  -0.000385048408744  -0.003516989971682 0
force Ag  -0.000292076214261  -0.000129355773150  -0.000121870385345 0
force Ag  -0.000181141318126  -0.000198360775989  -0.000045199962517 0
force Ag  -0.000010801221234  -0.000276170791422  -0.000069580698474 0
force Ag   0.000089104630335  -0.000362657994932  -0.000164214605575 0
force Ag  -0.000006640714740  -0.000222518177604  -0.000291820244300 0
force Ag  -0.000011068916372  -0.000197647317537  -0.000000969904952 0
force Ag  -0.000176109973907  -0.000225182378957   0.000842599256554 0
force Ag  -0.000130482874782  -0.000386182931796   0.000576521698300 0
force Ag   0.000143734914959  -0.000270828448204   0.000331482059616 0
force Ag   0.000444103128667  -0.000079272816653   0.001557462685532 0
force Ag  -0.000039165425018  -0.000293309206981   0.000403904292273 0
force Ag  -0.000778332977921  -0.000121562291476   0.001161037803731 0
force Ag  -0.000057754462398   0.000122646007253   0.000145092337246 0
force Ag  -0.000206584584091   0.000160842344953   0.000525420886448 0
force Ag  -0.000792070799906   0.001560004880897  -0.001850105884428 0
force Ag   0.000246670178832  -0.000471270857187   0.000066614599122 0
force Ag   0.000624776530859   0.000087782360966   0.000473656054602 0
force Ag  -0.000782384425916  -0.002396691880439   0.000606151128145 0
force Ag   0.000133308919076  -0.000696906922654  -0.000207138736860 0
force Ag   0.001680358969230  -0.001786186803960  -0.000760371729136 0
force Ag  -0.000202015857710  -0.000520030880571  -0.000236634080888 0
force Ag   0.000199860327508  -0.000251880767294   0.000407566348596 0
force Ag  -0.000057683983628   0.000241217631118   0.000170620995657 0
force Ag  -0.000253205536080   0.000016648999359   0.000518984717708 0
force Ag   0.000024165037336   0.000202503179247   0.000631990414842 0
force C   0.003238800537807   0.004335000308657  -0.000648329658811 1  Linear 0 0 1
force O  -0.001380267860228  -0.006136911656669   0.003771325362358 1  Linear 0 0 1

# Energy components:
   A_diel =       -0.0039856620754084
   Eewald =    32737.9580839703849051
       EH =    39157.0359175205521751
     Eloc =   -80123.3467005925485864
      Enl =      192.5047513232331653
     EvdW =       -0.6638993538156654
      Exc =     -700.7405974490923199
 Exc_core =       10.0909310872825841
       KE =     1620.1839311259832357
  MuShift =        0.0000000000002052
-------------------------------------
     Etot =    -7106.9815680300926033
       TS =        0.0012408590135489
-------------------------------------
        F =    -7106.9828088891063089


Dumping 'jdft.fillings' ... done
Dumping 'jdft.wfns' ... done
Dumping 'jdft.fluidState' ... done
Dumping 'jdft.ionpos' ... done
Dumping 'jdft.lattice' ... done
Dumping 'jdft.eigenvals' ... done
Dumping 'jdft.eigStats' ... 
	eMin: -3.532712 at state 0 ( [ +0.000000 +0.000000 +0.000000 ] spin 1 )
	HOMO: -0.145760 at state 1 ( [ +0.000000 +0.500000 +0.000000 ] spin 1 )
	mu  : -0.145392
	LUMO: -0.143889 at state 14 ( [ +0.500000 +0.000000 +0.000000 ] spin -1 )
	eMax: +0.148948 at state 0 ( [ +0.000000 +0.000000 +0.000000 ] spin 1 )
	HOMO-LUMO gap: +0.001871
	Optical gap  : +0.003413 at state 1 ( [ +0.000000 +0.500000 +0.000000 ] spin 1 )
Dumping 'jdft.Ecomponents' ... done
IonicMinimize: Iter:   0  F: -7106.982808889106309  |grad|_K:  2.706e-03  t[s]:   2711.71

#--- Lowdin population analysis ---
# oxidation-state Ag +0.089 +0.075 +0.091 +0.009 +0.014 +0.012 +0.010 +0.012 -0.036 -0.035 -0.036 -0.034 -0.003 -0.005 -0.003 -0.001 -0.005 -0.008 -0.006 -0.004 -0.073 -0.023 -0.019 -0.026 -0.027 -0.025 -0.028 -0.025 -0.004 -0.003 -0.004 -0.003 -0.006 -0.002 -0.002 -0.001 -0.035 -0.031 -0.038 -0.039 -0.032 +0.012 +0.009 +0.012 +0.092 +0.095 +0.094 +0.094
# magnetic-moments Ag -0.000 -0.000 -0.000 -0.000 -0.000 -0.000 -0.000 -0.000 -0.000 -0.000 -0.000 -0.000 -0.000 -0.000 -0.000 -0.000 -0.000 -0.000 -0.000 -0.000 -0.000 -0.000 -0.000 -0.000 -0.000 -0.000 -0.000 -0.000 -0.000 -0.000 -0.000 -0.000 -0.000 -0.000 -0.000 -0.000 -0.000 -0.000 -0.000 -0.000 -0.000 -0.000 -0.000 -0.000 -0.000 -0.000 -0.000 -0.000
# oxidation-state C +0.374
# magnetic-moments C -0.000
# oxidation-state O -0.103
# magnetic-moments O -0.000


Computing DFT-D3 correction:
# coordination-number Ag 5.463 5.495 5.463 5.957 6.738 6.738 6.738 6.738 8.993 8.993 8.993 8.993 8.975 8.975 8.975 8.975 8.934 8.934 8.934 8.934 8.190 7.497 7.542 7.497 7.499 7.499 7.499 7.499 8.932 8.932 8.932 8.932 8.980 8.979 8.980 8.979 8.996 8.999 8.996 8.997 6.884 6.743 6.756 6.742 5.455 5.455 5.455 5.455
# coordination-number C 2.392
# coordination-number O 1.043
# diagonal-C6 Ag 268.61 268.61 268.61 268.61 268.61 268.61 268.61 268.61 268.61 268.61 268.61 268.61 268.61 268.61 268.61 268.61 268.61 268.61 268.61 268.61 268.61 268.61 268.61 268.61 268.61 268.61 268.61 268.61 268.61 268.61 268.61 268.61 268.61 268.61 268.61 268.61 268.61 268.61 268.61 268.61 268.61 268.61 268.61 268.61 268.61 268.61 268.61 268.61
# diagonal-C6 C 28.27
# diagonal-C6 O 12.78
EvdW_6 =   -0.277455
EvdW_8 =   -0.386439

-------- Electronic minimization -----------
	Linear fluid (dielectric constant: 78.4, screening length: 8.12261 Bohr) occupying 0.506921 of unit cell:	Completed after 7 iterations at t[s]:   2815.12
	FillingsUpdate:  mu: -0.145491975  nElectrons: 922.000000  magneticMoment: [ Abs: 0.00000  Tot: -0.00000 ]
ElecMinimize: Iter:   0  F: -7106.982807000259527  |grad|_K:  1.243e-07  alpha:  1.000e+00
	Linear fluid (dielectric constant: 78.4, screening length: 8.12261 Bohr) occupying 0.506926 of unit cell:	Completed after 8 iterations at t[s]:   3007.63
	Linear fluid (dielectric constant: 78.4, screening length: 8.12261 Bohr) occupying 0.506923 of unit cell:	Completed after 7 iterations at t[s]:   3072.60
	FillingsUpdate:  mu: -0.145446650  nElectrons: 922.000000  magneticMoment: [ Abs: 0.00000  Tot: -0.00000 ]
	SubspaceRotationAdjust: set factor to 0.178
ElecMinimize: Iter:   1  F: -7106.982810743226764  |grad|_K:  5.468e-08  alpha:  3.928e-01  linmin:  9.426e-05  t[s]:   3161.27
	Linear fluid (dielectric constant: 78.4, screening length: 8.12261 Bohr) occupying 0.506924 of unit cell:	Completed after 2 iterations at t[s]:   3250.89
	Linear fluid (dielectric constant: 78.4, screening length: 8.12261 Bohr) occupying 0.506924 of unit cell:	Completed after 2 iterations at t[s]:   3313.96
	FillingsUpdate:  mu: -0.145444055  nElectrons: 922.000000  magneticMoment: [ Abs: 0.00000  Tot: -0.00000 ]
	SubspaceRotationAdjust: set factor to 0.229
ElecMinimize: Iter:   2  F: -7106.982811727977605  |grad|_K:  4.935e-08  alpha:  5.368e-01  linmin: -3.251e-05  t[s]:   3402.40
	Linear fluid (dielectric constant: 78.4, screening length: 8.12261 Bohr) occupying 0.506926 of unit cell:	Completed after 3 iterations at t[s]:   3492.42
	Linear fluid (dielectric constant: 78.4, screening length: 8.12261 Bohr) occupying 0.506926 of unit cell:	Completed after 0 iterations at t[s]:   3554.89
	FillingsUpdate:  mu: -0.145454288  nElectrons: 922.000000  magneticMoment: [ Abs: 0.00000  Tot: -0.00000 ]
	SubspaceRotationAdjust: set factor to 0.295
ElecMinimize: Iter:   3  F: -7106.982812511530938  |grad|_K:  4.344e-08  alpha:  5.210e-01  linmin:  3.865e-05  t[s]:   3643.48
	Linear fluid (dielectric constant: 78.4, screening length: 8.12261 Bohr) occupying 0.506928 of unit cell:	Completed after 3 iterations at t[s]:   3733.44
	Linear fluid (dielectric constant: 78.4, screening length: 8.12261 Bohr) occupying 0.506928 of unit cell:	Completed after 0 iterations at t[s]:   3795.63
	FillingsUpdate:  mu: -0.145461130  nElectrons: 922.000000  magneticMoment: [ Abs: 0.00000  Tot: -0.00000 ]
	SubspaceRotationAdjust: set factor to 0.36
ElecMinimize: Iter:   4  F: -7106.982813040637666  |grad|_K:  3.772e-08  alpha:  4.568e-01  linmin:  1.036e-04  t[s]:   3884.06
	Linear fluid (dielectric constant: 78.4, screening length: 8.12261 Bohr) occupying 0.506930 of unit cell:	Completed after 2 iterations at t[s]:   3973.88
	Linear fluid (dielectric constant: 78.4, screening length: 8.12261 Bohr) occupying 0.506930 of unit cell:	Completed after 0 iterations at t[s]:   4036.26
	FillingsUpdate:  mu: -0.145457163  nElectrons: 922.000000  magneticMoment: [ Abs: 0.00000  Tot: -0.00000 ]
	SubspaceRotationAdjust: set factor to 0.44
ElecMinimize: Iter:   5  F: -7106.982813462295780  |grad|_K:  2.848e-08  alpha:  4.853e-01  linmin: -2.042e-04  t[s]:   4124.81
	Linear fluid (dielectric constant: 78.4, screening length: 8.12261 Bohr) occupying 0.506932 of unit cell:	Completed after 2 iterations at t[s]:   4214.58
	Linear fluid (dielectric constant: 78.4, screening length: 8.12261 Bohr) occupying 0.506932 of unit cell:	Completed after 0 iterations at t[s]:   4276.82
	FillingsUpdate:  mu: -0.145457727  nElectrons: 922.000000  magneticMoment: [ Abs: 0.00000  Tot: -0.00000 ]
	SubspaceRotationAdjust: set factor to 0.513
ElecMinimize: Iter:   6  F: -7106.982813714039366  |grad|_K:  2.070e-08  alpha:  4.864e-01  linmin: -2.799e-05  t[s]:   4365.41
	Linear fluid (dielectric constant: 78.4, screening length: 8.12261 Bohr) occupying 0.506934 of unit cell:	Completed after 2 iterations at t[s]:   4456.06
	Linear fluid (dielectric constant: 78.4, screening length: 8.12261 Bohr) occupying 0.506934 of unit cell:	Completed after 0 iterations at t[s]:   4518.36
	FillingsUpdate:  mu: -0.145454884  nElectrons: 922.000000  magneticMoment: [ Abs: 0.00000  Tot: -0.00000 ]
	SubspaceRotationAdjust: set factor to 0.607
ElecMinimize: Iter:   7  F: -7106.982813837777030  |grad|_K:  1.291e-08  alpha:  4.659e-01  linmin:  1.172e-05  t[s]:   4606.72
	Linear fluid (dielectric constant: 78.4, screening length: 8.12261 Bohr) occupying 0.506935 of unit cell:	Completed after 0 iterations at t[s]:   4695.44
	Linear fluid (dielectric constant: 78.4, screening length: 8.12261 Bohr) occupying 0.506935 of unit cell:	Completed after 1 iterations at t[s]:   4758.58
	FillingsUpdate:  mu: -0.145448768  nElectrons: 922.000000  magneticMoment: [ Abs: 0.00000  Tot: -0.00000 ]
	SubspaceRotationAdjust: set factor to 0.599
ElecMinimize: Iter:   8  F: -7106.982813879091736  |grad|_K:  9.462e-09  alpha:  5.099e-01  linmin:  8.269e-04  t[s]:   4847.12
	Linear fluid (dielectric constant: 78.4, screening length: 8.12261 Bohr) occupying 0.506935 of unit cell:	Completed after 0 iterations at t[s]:   4936.40
	Linear fluid (dielectric constant: 78.4, screening length: 8.12261 Bohr) occupying 0.506935 of unit cell:	Completed after 0 iterations at t[s]:   4998.70
	FillingsUpdate:  mu: -0.145448289  nElectrons: 922.000000  magneticMoment: [ Abs: 0.00000  Tot: +0.00000 ]
	SubspaceRotationAdjust: set factor to 0.703
ElecMinimize: Iter:   9  F: -7106.982813896729567  |grad|_K:  6.211e-09  alpha:  4.019e-01  linmin: -3.203e-04  t[s]:   5087.28
ElecMinimize: Converged (|Delta F|<1.000000e-07 for 2 iters).
Setting wave functions to eigenvectors of Hamiltonian
Converging empty states (this may take a while): |deigs|: 8.640e-10

Computing DFT-D3 correction:
# coordination-number Ag 5.463 5.495 5.463 5.957 6.738 6.738 6.738 6.738 8.993 8.993 8.993 8.993 8.975 8.975 8.975 8.975 8.934 8.934 8.934 8.934 8.190 7.497 7.542 7.497 7.499 7.499 7.499 7.499 8.932 8.932 8.932 8.932 8.980 8.979 8.980 8.979 8.996 8.999 8.996 8.997 6.884 6.743 6.756 6.742 5.455 5.455 5.455 5.455
# coordination-number C 2.392
# coordination-number O 1.043
# diagonal-C6 Ag 268.61 268.61 268.61 268.61 268.61 268.61 268.61 268.61 268.61 268.61 268.61 268.61 268.61 268.61 268.61 268.61 268.61 268.61 268.61 268.61 268.61 268.61 268.61 268.61 268.61 268.61 268.61 268.61 268.61 268.61 268.61 268.61 268.61 268.61 268.61 268.61 268.61 268.61 268.61 268.61 268.61 268.61 268.61 268.61 268.61 268.61 268.61 268.61
# diagonal-C6 C 28.27
# diagonal-C6 O 12.78
EvdW_6 =   -0.277455
EvdW_8 =   -0.386439

# Ionic positions in cartesian coordinates:
ion Ag  10.839213999999998  26.417100999999985  17.976664000000000 0
ion Ag  10.839213999999998  13.139773999999992  17.976664000000000 0
ion Ag   5.418766999999999  26.417100999999985  17.976664000000000 0
ion Ag   5.418766999999999  13.139773999999992  17.976664000000000 0
ion Ag   0.000217000000000   4.519150999999997   2.204173000000000 0
ion Ag   0.000217000000000  17.796477999999993   2.204173000000000 0
ion Ag   5.420663999999999   4.519150999999997   2.204173000000000 0
ion Ag   5.420663999999999  17.796477999999993   2.204173000000000 0
ion Ag   0.000954000000000   8.973428999999994   5.467986999999998 0
ion Ag   0.000954000000000  22.250755999999988   5.467986999999998 0
ion Ag   5.421401000000000   8.973428999999994   5.467986999999998 0
ion Ag   5.421401000000000  22.250755999999988   5.467986999999998 0
ion Ag  10.840016000000000   0.022810000000000   8.601168999999999 0
ion Ag  10.840016000000000  13.300137999999993   8.601168999999999 0
ion Ag   5.419558000000000   0.022810000000000   8.601168999999999 0
ion Ag   5.419558000000000  13.300137999999993   8.601168999999999 0
ion Ag   0.000022000000000   4.389802999999998  11.760488999999996 0
ion Ag   0.000022000000000  17.667103999999988  11.760488999999996 0
ion Ag   5.420469000000000   4.389802999999998  11.760488999999996 0
ion Ag   5.420469000000000  17.667103999999988  11.760488999999996 0
ion Ag   5.421032000000000   8.708757999999996  15.042160000000001 0
ion Ag   5.421032000000000  21.986085999999990  15.042160000000001 0
ion Ag   0.000585000000000   8.708757999999996  15.042160000000001 0
ion Ag   0.000585000000000  21.986085999999990  15.042160000000001 0
ion Ag   2.709595000000000   0.146449000000000   3.735190999999999 0
ion Ag   2.709595000000000  13.423749999999989   3.735190999999999 0
ion Ag   8.130042000000000   0.146449000000000   3.735190999999999 0
ion Ag   8.130042000000000  13.423749999999989   3.735190999999999 0
ion Ag   2.710256000000000   4.461951999999997   7.016861999999997 0
ion Ag   2.710256000000000  17.739278999999993   7.016861999999997 0
ion Ag   8.130702999999999   4.461951999999997   7.016861999999997 0
ion Ag   8.130702999999999  17.739278999999993   7.016861999999997 0
ion Ag   2.711004000000000   8.825173999999995  10.174547999999996 0
ion Ag   2.711004000000000  22.102500999999990  10.174547999999996 0
ion Ag   8.131451000000000   8.825173999999995  10.174547999999996 0
ion Ag   8.131451000000000  22.102500999999990  10.174547999999996 0
ion Ag   2.709269000000000  26.433883999999985  13.312124999999995 0
ion Ag   2.709269000000000  13.156556999999992  13.312124999999995 0
ion Ag   8.129716000000000  26.433883999999985  13.312124999999995 0
ion Ag   8.129716000000000  13.156556999999992  13.312124999999995 0
ion Ag   2.710104000000000   4.330638999999997  16.571093999999999 0
ion Ag   2.710104000000000  17.607966999999988  16.571093999999999 0
ion Ag   8.130540000000000   4.330638999999997  16.571093999999999 0
ion Ag   8.130540000000000  17.607966999999988  16.571093999999999 0
ion Ag   2.711904000000000   8.989520999999995   0.799449000000000 0
ion Ag   2.711904000000000  22.266847999999985   0.799449000000000 0
ion Ag   8.132351000000000   8.989520999999995   0.799449000000000 0
ion Ag   8.132351000000000  22.266847999999985   0.799449000000000 0
ion C   4.064434999999999   8.735206999999997  19.397869894564195 1  Linear 0 0 1
ion O   4.124526000000000   8.735206999999997  21.595841772375959 1  Linear 0 0 1

# Forces in Cartesian coordinates:
force Ag  -0.000060723133470   0.000320433904235   0.000072531642428 0
force Ag  -0.001654738117571   0.002188882538688  -0.000202070081829 0
force Ag   0.000109080149062   0.000168630838403   0.000063472610747 0
force Ag   0.000968457281923   0.003587548870576  -0.000039022871835 0
force Ag   0.000320196597113   0.000181953834519  -0.000095873712190 0
force Ag  -0.000024694297675   0.000375685255485   0.000356994338508 0
force Ag  -0.000293540635118   0.000270705907123  -0.000036629624258 0
force Ag   0.000070761059368   0.000090010951725  -0.000099813938736 0
force Ag   0.000208852675272   0.000219835656688  -0.000034974269168 0
force Ag  -0.000002682894675  -0.000094601440593  -0.000730421036742 0
force Ag  -0.000217844287157  -0.000016749941338  -0.000772302252089 0
force Ag   0.000160345424861  -0.000007238108886  -0.000661445949088 0
force Ag   0.000019368291116   0.000805297179706   0.000411994465515 0
force Ag  -0.000338848172749   0.000479848138278  -0.000117772398350 0
force Ag   0.000081779852947   0.000503329764422   0.000113099192928 0
force Ag   0.000295636733023   0.000303164890119  -0.000298960776950 0
force Ag   0.000083537857572   0.000490107075923   0.000089855987022 0
force Ag  -0.000287911583950  -0.000049337401740  -0.000339181277118 0
force Ag  -0.000029379409183   0.000735908488601  -0.000285377578529 0
force Ag   0.000263788294304   0.000083164479424  -0.000558417076836 0
force Ag   0.002682675784858  -0.002070101258119  -0.000197710475295 0
force Ag   0.000350050020775   0.000103691293520  -0.000369524231484 0
force Ag  -0.004348836082652  -0.000389620264614  -0.003461940285279 0
force Ag  -0.000293816937394  -0.000121351247565  -0.000112817502577 0
force Ag  -0.000181619646471  -0.000194730129297  -0.000068049359902 0
force Ag  -0.000010559624692  -0.000279798516041  -0.000091284604520 0
force Ag   0.000089282205644  -0.000359778858683  -0.000186931382249 0
force Ag  -0.000006770019322  -0.000225986220564  -0.000312443642102 0
force Ag  -0.000012440415504  -0.000200685769276  -0.000087139883696 0
force Ag  -0.000175248778608  -0.000219163996145   0.000763058902709 0
force Ag  -0.000131287070254  -0.000388706425061   0.000489264384721 0
force Ag   0.000143530272293  -0.000264272850716   0.000249628319369 0
force Ag   0.000442487401091  -0.000084114049675   0.001473123663638 0
force Ag  -0.000041395840378  -0.000288219768551   0.000322030683530 0
force Ag  -0.000778657362706  -0.000127003051621   0.001078491230880 0
force Ag  -0.000057358202853   0.000129444519480   0.000062067040033 0
force Ag  -0.000208138947039   0.000160784230275   0.000502656423769 0
force Ag  -0.000791045916123   0.001555522589718  -0.001852075947506 0
force Ag   0.000246445358997  -0.000473688964906   0.000046353074131 0
force Ag   0.000623440658753   0.000085122392030   0.000469517530197 0
force Ag  -0.000770332471153  -0.002366752481921   0.000699934464883 0
force Ag   0.000133469414605  -0.000703574382218  -0.000149362692934 0
force Ag   0.001675983890603  -0.001774834661875  -0.000692244221232 0
force Ag  -0.000201763599248  -0.000526411798000  -0.000181827025093 0
force Ag   0.000200556091573  -0.000256539918025   0.000451794088368 0
force Ag  -0.000058192585772   0.000244756485966   0.000195104543813 0
force Ag  -0.000253840170441   0.000013308869308   0.000562858546657 0
force Ag   0.000024826997568   0.000206163395474   0.000659204105205 0
force C   0.003342074740678   0.004363659206996   0.003506905408654 1  Linear 0 0 1
force O  -0.001477485920460  -0.006119998088294  -0.000533807762176 1  Linear 0 0 1

# Energy components:
   A_diel =       -0.0040126907690845
   Eewald =    32737.7194325193850091
       EH =    39156.7606159615970682
     Eloc =   -80122.8279191732290201
      Enl =      192.5033731469247300
     EvdW =       -0.6638934942988499
      Exc =     -700.7388273663868858
 Exc_core =       10.0909311075577630
       KE =     1620.1787296510337910
  MuShift =        0.0000000000002052
-------------------------------------
     Etot =    -7106.9815703381864296
       TS =        0.0012435585428046
-------------------------------------
        F =    -7106.9828138967295672


Dumping 'jdft.fillings' ... done
Dumping 'jdft.wfns' ... done
Dumping 'jdft.fluidState' ... done
Dumping 'jdft.ionpos' ... done
Dumping 'jdft.lattice' ... done
Dumping 'jdft.eigenvals' ... done
Dumping 'jdft.eigStats' ... 
	eMin: -3.532772 at state 0 ( [ +0.000000 +0.000000 +0.000000 ] spin 1 )
	HOMO: -0.145799 at state 1 ( [ +0.000000 +0.500000 +0.000000 ] spin 1 )
	mu  : -0.145448
	LUMO: -0.143936 at state 6 ( [ +0.500000 +0.000000 +0.000000 ] spin 1 )
	eMax: +0.148917 at state 8 ( [ +0.000000 +0.000000 +0.000000 ] spin -1 )
	HOMO-LUMO gap: +0.001863
	Optical gap  : +0.003376 at state 1 ( [ +0.000000 +0.500000 +0.000000 ] spin 1 )
Dumping 'jdft.Ecomponents' ... done
IonicMinimize: Iter:   1  F: -7106.982813896729567  |grad|_K:  2.508e-03  alpha:  1.000e+00  linmin:  8.314e-02  t[s]:   5346.17

#--- Lowdin population analysis ---
# oxidation-state Ag +0.090 +0.075 +0.092 +0.009 +0.014 +0.012 +0.010 +0.012 -0.036 -0.035 -0.036 -0.034 -0.003 -0.005 -0.003 -0.001 -0.005 -0.008 -0.006 -0.004 -0.073 -0.023 -0.019 -0.026 -0.027 -0.025 -0.028 -0.025 -0.004 -0.003 -0.004 -0.003 -0.007 -0.002 -0.002 -0.001 -0.035 -0.031 -0.038 -0.039 -0.032 +0.012 +0.009 +0.012 +0.093 +0.096 +0.095 +0.094
# magnetic-moments Ag +0.000 -0.000 -0.000 +0.000 +0.000 -0.000 -0.000 -0.000 -0.000 +0.000 +0.000 +0.000 +0.000 +0.000 -0.000 +0.000 +0.000 -0.000 -0.000 -0.000 +0.000 +0.000 +0.000 +0.000 -0.000 -0.000 +0.000 -0.000 +0.000 -0.000 -0.000 -0.000 -0.000 -0.000 +0.000 -0.000 +0.000 -0.000 -0.000 -0.000 -0.000 -0.000 +0.000 -0.000 -0.000 +0.000 +0.000 +0.000
# oxidation-state C +0.373
# magnetic-moments C -0.000
# oxidation-state O -0.105
# magnetic-moments O -0.000


Computing DFT-D3 correction:
# coordination-number Ag 5.463 5.495 5.463 5.957 6.738 6.738 6.738 6.738 8.993 8.993 8.993 8.993 8.975 8.975 8.975 8.975 8.934 8.934 8.934 8.934 8.189 7.497 7.541 7.497 7.499 7.499 7.499 7.499 8.932 8.932 8.932 8.932 8.980 8.979 8.980 8.979 8.996 8.999 8.996 8.997 6.884 6.743 6.756 6.742 5.455 5.455 5.455 5.455
# coordination-number C 2.390
# coordination-number O 1.043
# diagonal-C6 Ag 268.61 268.61 268.61 268.61 268.61 268.61 268.61 268.61 268.61 268.61 268.61 268.61 268.61 268.61 268.61 268.61 268.61 268.61 268.61 268.61 268.61 268.61 268.61 268.61 268.61 268.61 268.61 268.61 268.61 268.61 268.61 268.61 268.61 268.61 268.61 268.61 268.61 268.61 268.61 268.61 268.61 268.61 268.61 268.61 268.61 268.61 268.61 268.61
# diagonal-C6 C 28.28
# diagonal-C6 O 12.78
EvdW_6 =   -0.277456
EvdW_8 =   -0.386439

-------- Electronic minimization -----------
	Linear fluid (dielectric constant: 78.4, screening length: 8.12261 Bohr) occupying 0.506933 of unit cell:	Completed after 2 iterations at t[s]:   5448.00
	FillingsUpdate:  mu: -0.145461875  nElectrons: 922.000000  magneticMoment: [ Abs: 0.00000  Tot: -0.00000 ]
ElecMinimize: Iter:   0  F: -7106.982817379660446  |grad|_K:  4.386e-08  alpha:  1.000e+00
	Linear fluid (dielectric constant: 78.4, screening length: 8.12261 Bohr) occupying 0.506936 of unit cell:	Completed after 7 iterations at t[s]:   5641.28
	Linear fluid (dielectric constant: 78.4, screening length: 8.12261 Bohr) occupying 0.506934 of unit cell:	Completed after 6 iterations at t[s]:   5705.89
	FillingsUpdate:  mu: -0.145381128  nElectrons: 922.000000  magneticMoment: [ Abs: 0.00000  Tot: -0.00000 ]
	SubspaceRotationAdjust: set factor to 0.488
ElecMinimize: Iter:   1  F: -7106.982817760690523  |grad|_K:  3.213e-08  alpha:  3.096e-01  linmin:  2.907e-04  t[s]:   5794.31
	Linear fluid (dielectric constant: 78.4, screening length: 8.12261 Bohr) occupying 0.506931 of unit cell:	Completed after 6 iterations at t[s]:   5885.27
	Linear fluid (dielectric constant: 78.4, screening length: 8.12261 Bohr) occupying 0.506932 of unit cell:	Completed after 2 iterations at t[s]:   5949.15
	FillingsUpdate:  mu: -0.145439338  nElectrons: 922.000000  magneticMoment: [ Abs: 0.00000  Tot: +0.00000 ]
	SubspaceRotationAdjust: set factor to 0.346
ElecMinimize: Iter:   2  F: -7106.982817875204091  |grad|_K:  1.980e-08  alpha:  1.946e-01  linmin:  2.351e-04  t[s]:   6037.60
	Linear fluid (dielectric constant: 78.4, screening length: 8.12261 Bohr) occupying 0.506931 of unit cell:	Completed after 0 iterations at t[s]:   6126.65
	Linear fluid (dielectric constant: 78.4, screening length: 8.12261 Bohr) occupying 0.506930 of unit cell:	Completed after 2 iterations at t[s]:   6189.82
	FillingsUpdate:  mu: -0.145451020  nElectrons: 922.000000  magneticMoment: [ Abs: 0.00000  Tot: +0.00000 ]
	SubspaceRotationAdjust: set factor to 0.329
ElecMinimize: Iter:   3  F: -7106.982817953090489  |grad|_K:  1.619e-08  alpha:  4.615e-01  linmin:  1.323e-03  t[s]:   6278.29
	Linear fluid (dielectric constant: 78.4, screening length: 8.12261 Bohr) occupying 0.506930 of unit cell:	Completed after 2 iterations at t[s]:   6367.97
	Linear fluid (dielectric constant: 78.4, screening length: 8.12261 Bohr) occupying 0.506930 of unit cell:	Completed after 0 iterations at t[s]:   6430.23
	FillingsUpdate:  mu: -0.145435254  nElectrons: 922.000000  magneticMoment: [ Abs: 0.00000  Tot: +0.00000 ]
	SubspaceRotationAdjust: set factor to 0.37
ElecMinimize: Iter:   4  F: -7106.982817990849071  |grad|_K:  9.351e-09  alpha:  3.173e-01  linmin:  4.130e-04  t[s]:   6518.67
ElecMinimize: Converged (|Delta F|<1.000000e-07 for 2 iters).
Setting wave functions to eigenvectors of Hamiltonian
Converging empty states (this may take a while): |deigs|: 3.608e-10

Computing DFT-D3 correction:
# coordination-number Ag 5.463 5.495 5.463 5.957 6.738 6.738 6.738 6.738 8.993 8.993 8.993 8.993 8.975 8.975 8.975 8.975 8.934 8.934 8.934 8.934 8.189 7.497 7.541 7.497 7.499 7.499 7.499 7.499 8.932 8.932 8.932 8.932 8.980 8.979 8.980 8.979 8.996 8.999 8.996 8.997 6.884 6.743 6.756 6.742 5.455 5.455 5.455 5.455
# coordination-number C 2.390
# coordination-number O 1.043
# diagonal-C6 Ag 268.61 268.61 268.61 268.61 268.61 268.61 268.61 268.61 268.61 268.61 268.61 268.61 268.61 268.61 268.61 268.61 268.61 268.61 268.61 268.61 268.61 268.61 268.61 268.61 268.61 268.61 268.61 268.61 268.61 268.61 268.61 268.61 268.61 268.61 268.61 268.61 268.61 268.61 268.61 268.61 268.61 268.61 268.61 268.61 268.61 268.61 268.61 268.61
# diagonal-C6 C 28.28
# diagonal-C6 O 12.78
EvdW_6 =   -0.277456
EvdW_8 =   -0.386439

# Ionic positions in cartesian coordinates:
ion Ag  10.839213999999998  26.417100999999985  17.976664000000000 0
ion Ag  10.839213999999998  13.139773999999992  17.976664000000000 0
ion Ag   5.418766999999999  26.417100999999985  17.976664000000000 0
ion Ag   5.418766999999999  13.139773999999992  17.976664000000000 0
ion Ag   0.000217000000000   4.519150999999997   2.204173000000000 0
ion Ag   0.000217000000000  17.796477999999993   2.204173000000000 0
ion Ag   5.420663999999999   4.519150999999997   2.204173000000000 0
ion Ag   5.420663999999999  17.796477999999993   2.204173000000000 0
ion Ag   0.000954000000000   8.973428999999994   5.467986999999998 0
ion Ag   0.000954000000000  22.250755999999988   5.467986999999998 0
ion Ag   5.421401000000000   8.973428999999994   5.467986999999998 0
ion Ag   5.421401000000000  22.250755999999988   5.467986999999998 0
ion Ag  10.840016000000000   0.022810000000000   8.601168999999999 0
ion Ag  10.840016000000000  13.300137999999993   8.601168999999999 0
ion Ag   5.419558000000000   0.022810000000000   8.601168999999999 0
ion Ag   5.419558000000000  13.300137999999993   8.601168999999999 0
ion Ag   0.000022000000000   4.389802999999998  11.760488999999996 0
ion Ag   0.000022000000000  17.667103999999988  11.760488999999996 0
ion Ag   5.420469000000000   4.389802999999998  11.760488999999996 0
ion Ag   5.420469000000000  17.667103999999988  11.760488999999996 0
ion Ag   5.421032000000000   8.708757999999996  15.042160000000001 0
ion Ag   5.421032000000000  21.986085999999990  15.042160000000001 0
ion Ag   0.000585000000000   8.708757999999996  15.042160000000001 0
ion Ag   0.000585000000000  21.986085999999990  15.042160000000001 0
ion Ag   2.709595000000000   0.146449000000000   3.735190999999999 0
ion Ag   2.709595000000000  13.423749999999989   3.735190999999999 0
ion Ag   8.130042000000000   0.146449000000000   3.735190999999999 0
ion Ag   8.130042000000000  13.423749999999989   3.735190999999999 0
ion Ag   2.710256000000000   4.461951999999997   7.016861999999997 0
ion Ag   2.710256000000000  17.739278999999993   7.016861999999997 0
ion Ag   8.130702999999999   4.461951999999997   7.016861999999997 0
ion Ag   8.130702999999999  17.739278999999993   7.016861999999997 0
ion Ag   2.711004000000000   8.825173999999995  10.174547999999996 0
ion Ag   2.711004000000000  22.102500999999990  10.174547999999996 0
ion Ag   8.131451000000000   8.825173999999995  10.174547999999996 0
ion Ag   8.131451000000000  22.102500999999990  10.174547999999996 0
ion Ag   2.709269000000000  26.433883999999985  13.312124999999995 0
ion Ag   2.709269000000000  13.156556999999992  13.312124999999995 0
ion Ag   8.129716000000000  26.433883999999985  13.312124999999995 0
ion Ag   8.129716000000000  13.156556999999992  13.312124999999995 0
ion Ag   2.710104000000000   4.330638999999997  16.571093999999999 0
ion Ag   2.710104000000000  17.607966999999988  16.571093999999999 0
ion Ag   8.130540000000000   4.330638999999997  16.571093999999999 0
ion Ag   8.130540000000000  17.607966999999988  16.571093999999999 0
ion Ag   2.711904000000000   8.989520999999995   0.799449000000000 0
ion Ag   2.711904000000000  22.266847999999985   0.799449000000000 0
ion Ag   8.132351000000000   8.989520999999995   0.799449000000000 0
ion Ag   8.132351000000000  22.266847999999985   0.799449000000000 0
ion C   4.064434999999999   8.735206999999997  19.399214802770494 1  Linear 0 0 1
ion O   4.124526000000000   8.735206999999997  21.596144112899353 1  Linear 0 0 1

# Forces in Cartesian coordinates:
force Ag  -0.000060143488230   0.000300566250237   0.000032653942564 0
force Ag  -0.001659681340197   0.002175604037607  -0.000222082968083 0
force Ag   0.000108729597538   0.000150990402246   0.000022875448754 0
force Ag   0.000971524134252   0.003578100655860  -0.000064106746756 0
force Ag   0.000319149329767   0.000183553028661  -0.000082906558131 0
force Ag  -0.000024390768233   0.000387265792984   0.000358643515642 0
force Ag  -0.000292359614050   0.000272177189780  -0.000024039080076 0
force Ag   0.000070506630401   0.000101973183151  -0.000098172495477 0
force Ag   0.000208942617810   0.000209744665022  -0.000019981459733 0
force Ag  -0.000000951590919  -0.000085406919691  -0.000703173480129 0
force Ag  -0.000217760385087  -0.000028613153222  -0.000756028435000 0
force Ag   0.000159234373732   0.000002368067121  -0.000636065851072 0
force Ag   0.000020374028789   0.000804026906734   0.000428434884372 0
force Ag  -0.000338853564590   0.000484966209219  -0.000116331712937 0
force Ag   0.000082275240306   0.000502708804885   0.000129726186192 0
force Ag   0.000295837513984   0.000310894292453  -0.000299844258079 0
force Ag   0.000084149154671   0.000467236519609   0.000048125165684 0
force Ag  -0.000286581400102  -0.000026068483269  -0.000371257448220 0
force Ag  -0.000029802548609   0.000711864197322  -0.000324641815925 0
force Ag   0.000262240796724   0.000107927508483  -0.000591405295507 0
force Ag   0.002670708809419  -0.002081729748954  -0.000233097568511 0
force Ag   0.000348944975561   0.000110885991258  -0.000430374566021 0
force Ag  -0.004347893310697  -0.000403484782923  -0.003506508321107 0
force Ag  -0.000292876852993  -0.000114148486569  -0.000172577847627 0
force Ag  -0.000181394752122  -0.000199460906201  -0.000043351982754 0
force Ag  -0.000011711946126  -0.000282558239427  -0.000076679526620 0
force Ag   0.000088727023455  -0.000363128401464  -0.000160724946853 0
force Ag  -0.000005560984027  -0.000229661792195  -0.000298884590750 0
force Ag  -0.000011581028563  -0.000211525106317  -0.000068934239831 0
force Ag  -0.000174870935399  -0.000205775214046   0.000782031983231 0
force Ag  -0.000132868794618  -0.000400455886667   0.000507705521446 0
force Ag   0.000143251420905  -0.000250757590622   0.000267232193401 0
force Ag   0.000440271293705  -0.000092387849330   0.001448434342156 0
force Ag  -0.000041542441949  -0.000271346940698   0.000320474582406 0
force Ag  -0.000775847459167  -0.000134862849237   0.001048968297925 0
force Ag  -0.000057506365181   0.000147680782803   0.000058646130637 0
force Ag  -0.000208027455467   0.000145643608102   0.000447363672898 0
force Ag  -0.000790100592555   0.001560774455257  -0.001898693090692 0
force Ag   0.000245595477500  -0.000488089334800  -0.000009177123222 0
force Ag   0.000623548601499   0.000092213116060   0.000419749471823 0
force Ag  -0.000771987839245  -0.002377318344503   0.000647757890320 0
force Ag   0.000133601302004  -0.000675739430019  -0.000193367025521 0
force Ag   0.001678307030900  -0.001783012852822  -0.000731626192318 0
force Ag  -0.000202008836849  -0.000495263315161  -0.000226793808743 0
force Ag   0.000200546943222  -0.000267114481157   0.000444744895073 0
force Ag  -0.000057486579919   0.000243028387507   0.000192878038478 0
force Ag  -0.000253774650095   0.000003730894604   0.000558152011487 0
force Ag   0.000024006810200   0.000203282781038   0.000655676554543 0
force C   0.003309725717242   0.004369828686964   0.002605542384881 1  Linear 0 0 1
force O  -0.001453091660405  -0.006123814653151   0.000360960810831 1  Linear 0 0 1

# Energy components:
   A_diel =       -0.0040026712443544
   Eewald =    32737.6417389144007757
       EH =    39156.6885498517804081
     Eloc =   -80122.6794782527140342
      Enl =      192.5039243816881367
     EvdW =       -0.6638949172296618
      Exc =     -700.7391989309494420
 Exc_core =       10.0909311301831934
       KE =     1620.1798552376476437
  MuShift =        0.0000000000002052
-------------------------------------
     Etot =    -7106.9815752564409195
       TS =        0.0012427344080451
[...]
force Ag   0.000072680213335  -0.000214635634875  -0.000028536124384 0
force Ag  -0.000142461985270  -0.000200113421116   0.000707865405243 0
force Ag  -0.000172385569883  -0.000391116835124   0.000543529328922 0
force Ag   0.000113933539111  -0.000194350229055   0.000204782384095 0
force Ag   0.000287586487513  -0.000059340330001   0.001501992212233 0
force Ag  -0.000059109790093  -0.000280083589258   0.000239332872000 0
force Ag  -0.000508869101691  -0.000062920380545   0.000620569990950 0
force Ag  -0.000010186253577   0.000121316030465   0.000032328663261 0
force Ag  -0.000193945900926   0.000092561682452   0.000498866295565 0
force Ag  -0.000606089257391   0.001101968679044  -0.001354122457795 0
force Ag   0.000228411537453  -0.000427435148688   0.000090958365793 0
force Ag   0.000445802756831   0.000017903502130   0.000708913915355 0
force Ag  -0.000468022204015  -0.001649200034095   0.000796655709795 0
force Ag   0.000117381317622  -0.000698911851204  -0.000205685381235 0
force Ag   0.001238184611758  -0.001295742315633  -0.000558532106398 0
force Ag  -0.000178893716439  -0.000440686485589  -0.000278101887458 0
force Ag   0.000083794954576  -0.000251285244240   0.000301621583453 0
force Ag   0.000010840207849   0.000197594241785   0.000132877564623 0
force Ag  -0.000134818369168   0.000021172403060   0.000416157785436 0
force Ag  -0.000039778834220   0.000167769144146   0.000557060356779 0
force C   0.003205632910719   0.004905080885409   0.000547436895522 1  Linear 0 0 1
force O  -0.000927214680648  -0.004461004499900  -0.000674216956161 1  Linear 0 0 1

# Energy components:
   A_diel =       -0.0036532966995716
   Eewald =    32699.3089062715444015
       EH =    39118.3643502666309359
     Eloc =   -80046.0174373871413991
      Enl =      192.5029022281497646
     EvdW =       -0.6635132924555203
      Exc =     -700.7255677516861851
 Exc_core =       10.0909418045039132
       KE =     1620.1611077351226413
  MuShift =        0.0000000000002052
-------------------------------------
     Etot =    -7106.9819634220311855
       TS =        0.0012214183574082
-------------------------------------
        F =    -7106.9831848403882759


Dumping 'jdft.fillings' ... done
Dumping 'jdft.wfns' ... done
Dumping 'jdft.fluidState' ... done
Dumping 'jdft.ionpos' ... done
Dumping 'jdft.lattice' ... done
Dumping 'jdft.eigenvals' ... done
Dumping 'jdft.eigStats' ... 
	eMin: -3.529087 at state 0 ( [ +0.000000 +0.000000 +0.000000 ] spin 1 )
	HOMO: -0.145835 at state 10 ( [ +0.166667 +0.000000 +0.000000 ] spin -1 )
	mu  : -0.145443
	LUMO: -0.144682 at state 14 ( [ +0.500000 +0.000000 +0.000000 ] spin -1 )
	eMax: +0.148796 at state 0 ( [ +0.000000 +0.000000 +0.000000 ] spin 1 )
	HOMO-LUMO gap: +0.001153
	Optical gap  : +0.003085 at state 14 ( [ +0.500000 +0.000000 +0.000000 ] spin -1 )
Dumping 'jdft.Ecomponents' ... done
IonicMinimize: Iter:   9  F: -7106.983184840388276  |grad|_K:  6.141e-04  alpha:  1.038e-01  linmin: -8.560e-03  t[s]:  40264.71

#--- Lowdin population analysis ---
# oxidation-state Ag +0.090 +0.071 +0.091 -0.001 +0.014 +0.012 +0.011 +0.012 -0.035 -0.035 -0.036 -0.035 -0.003 -0.006 -0.003 -0.002 -0.005 -0.007 -0.006 -0.004 -0.056 -0.023 -0.018 -0.026 -0.027 -0.025 -0.027 -0.026 -0.004 -0.003 -0.004 -0.003 -0.005 -0.002 -0.001 -0.001 -0.035 -0.033 -0.038 -0.039 -0.033 +0.012 +0.007 +0.014 +0.092 +0.094 +0.093 +0.093
# magnetic-moments Ag +0.000 -0.000 -0.000 +0.000 +0.000 +0.000 +0.000 -0.000 -0.000 +0.000 -0.000 -0.000 -0.000 -0.000 +0.000 -0.000 -0.000 -0.000 +0.000 +0.000 +0.000 -0.000 -0.000 +0.000 +0.000 +0.000 +0.000 +0.000 +0.000 +0.000 -0.000 -0.000 -0.000 +0.000 +0.000 +0.000 -0.000 +0.000 -0.000 +0.000 -0.000 -0.000 +0.000 -0.000 -0.000 +0.000 +0.000 -0.000
# oxidation-state C +0.375
# magnetic-moments C +0.000
# oxidation-state O -0.099
# magnetic-moments O -0.000


Computing DFT-D3 correction:
# coordination-number Ag 5.463 5.489 5.463 5.861 6.738 6.738 6.738 6.738 8.993 8.993 8.993 8.993 8.975 8.975 8.975 8.975 8.934 8.934 8.934 8.934 7.915 7.497 7.524 7.497 7.499 7.499 7.499 7.499 8.932 8.932 8.932 8.932 8.980 8.979 8.980 8.979 8.996 8.998 8.996 8.997 6.835 6.742 6.753 6.742 5.455 5.455 5.455 5.455
# coordination-number C 1.956
# coordination-number O 1.030
# diagonal-C6 Ag 268.61 268.61 268.61 268.61 268.61 268.61 268.61 268.61 268.61 268.61 268.61 268.61 268.61 268.61 268.61 268.61 268.61 268.61 268.61 268.61 268.61 268.61 268.61 268.61 268.61 268.61 268.61 268.61 268.61 268.61 268.61 268.61 268.61 268.61 268.61 268.61 268.61 268.61 268.61 268.61 268.61 268.61 268.61 268.61 268.61 268.61 268.61 268.61
# diagonal-C6 C 29.59
# diagonal-C6 O 12.79
EvdW_6 =   -0.277381
EvdW_8 =   -0.386139

-------- Electronic minimization -----------
	Linear fluid (dielectric constant: 78.4, screening length: 8.12261 Bohr) occupying 0.505326 of unit cell:	Completed after 5 iterations at t[s]:  40367.92
	FillingsUpdate:  mu: -0.145462153  nElectrons: 922.000000  magneticMoment: [ Abs: 0.00000  Tot: +0.00000 ]
ElecMinimize: Iter:   0  F: -7106.983180977868869  |grad|_K:  1.216e-07  alpha:  1.000e+00
	Linear fluid (dielectric constant: 78.4, screening length: 8.12261 Bohr) occupying 0.505326 of unit cell:	Completed after 8 iterations at t[s]:  40560.41
	Linear fluid (dielectric constant: 78.4, screening length: 8.12261 Bohr) occupying 0.505326 of unit cell:	Completed after 7 iterations at t[s]:  40625.16
	FillingsUpdate:  mu: -0.145435650  nElectrons: 922.000000  magneticMoment: [ Abs: 0.00000  Tot: +0.00000 ]
	SubspaceRotationAdjust: set factor to 0.377
ElecMinimize: Iter:   1  F: -7106.983183762536100  |grad|_K:  4.983e-08  alpha:  3.031e-01  linmin: -7.874e-05  t[s]:  40714.59
	Linear fluid (dielectric constant: 78.4, screening length: 8.12261 Bohr) occupying 0.505326 of unit cell:	Completed after 2 iterations at t[s]:  40804.19
	Linear fluid (dielectric constant: 78.4, screening length: 8.12261 Bohr) occupying 0.505326 of unit cell:	Completed after 0 iterations at t[s]:  40866.30
	FillingsUpdate:  mu: -0.145437588  nElectrons: 922.000000  magneticMoment: [ Abs: 0.00000  Tot: +0.00000 ]
	SubspaceRotationAdjust: set factor to 0.457
ElecMinimize: Iter:   2  F: -7106.983184371981224  |grad|_K:  2.602e-08  alpha:  3.918e-01  linmin: -1.800e-03  t[s]:  40954.70
	Linear fluid (dielectric constant: 78.4, screening length: 8.12261 Bohr) occupying 0.505326 of unit cell:	Completed after 2 iterations at t[s]:  41045.62
	Linear fluid (dielectric constant: 78.4, screening length: 8.12261 Bohr) occupying 0.505325 of unit cell:	Completed after 0 iterations at t[s]:  41107.65
	FillingsUpdate:  mu: -0.145438920  nElectrons: 922.000000  magneticMoment: [ Abs: 0.00000  Tot: +0.00000 ]
	SubspaceRotationAdjust: set factor to 0.483
ElecMinimize: Iter:   3  F: -7106.983184659658946  |grad|_K:  2.076e-08  alpha:  6.138e-01  linmin: -2.084e-03  t[s]:  41196.08
	Linear fluid (dielectric constant: 78.4, screening length: 8.12261 Bohr) occupying 0.505325 of unit cell:	Completed after 2 iterations at t[s]:  41285.77
	Linear fluid (dielectric constant: 78.4, screening length: 8.12261 Bohr) occupying 0.505325 of unit cell:	Completed after 0 iterations at t[s]:  41348.33
	FillingsUpdate:  mu: -0.145437564  nElectrons: 922.000000  magneticMoment: [ Abs: 0.00000  Tot: +0.00000 ]
	SubspaceRotationAdjust: set factor to 0.51
ElecMinimize: Iter:   4  F: -7106.983184813106163  |grad|_K:  1.954e-08  alpha:  5.058e-01  linmin:  3.238e-04  t[s]:  41436.82
	Linear fluid (dielectric constant: 78.4, screening length: 8.12261 Bohr) occupying 0.505325 of unit cell:	Completed after 2 iterations at t[s]:  41526.56
	Linear fluid (dielectric constant: 78.4, screening length: 8.12261 Bohr) occupying 0.505325 of unit cell:	Completed after 0 iterations at t[s]:  41588.84
	FillingsUpdate:  mu: -0.145437206  nElectrons: 922.000000  magneticMoment: [ Abs: 0.00000  Tot: -0.00000 ]
	SubspaceRotationAdjust: set factor to 0.468
ElecMinimize: Iter:   5  F: -7106.983184893606449  |grad|_K:  1.242e-08  alpha:  3.645e-01  linmin:  1.841e-04  t[s]:  41677.12
	Linear fluid (dielectric constant: 78.4, screening length: 8.12261 Bohr) occupying 0.505325 of unit cell:	Completed after 1 iterations at t[s]:  41766.59
	Linear fluid (dielectric constant: 78.4, screening length: 8.12261 Bohr) occupying 0.505325 of unit cell:	Completed after 0 iterations at t[s]:  41828.75
	FillingsUpdate:  mu: -0.145437874  nElectrons: 922.000000  magneticMoment: [ Abs: 0.00000  Tot: +0.00000 ]
	SubspaceRotationAdjust: set factor to 0.461
ElecMinimize: Iter:   6  F: -7106.983184918693041  |grad|_K:  6.139e-09  alpha:  2.853e-01  linmin: -1.038e-03  t[s]:  41918.11
ElecMinimize: Converged (|Delta F|<1.000000e-07 for 2 iters).
Setting wave functions to eigenvectors of Hamiltonian
Converging empty states (this may take a while): |deigs|: 5.505e-10

Computing DFT-D3 correction:
# coordination-number Ag 5.463 5.489 5.463 5.861 6.738 6.738 6.738 6.738 8.993 8.993 8.993 8.993 8.975 8.975 8.975 8.975 8.934 8.934 8.934 8.934 7.915 7.497 7.524 7.497 7.499 7.499 7.499 7.499 8.932 8.932 8.932 8.932 8.980 8.979 8.980 8.979 8.996 8.998 8.996 8.997 6.835 6.742 6.753 6.742 5.455 5.455 5.455 5.455
# coordination-number C 1.956
# coordination-number O 1.030
# diagonal-C6 Ag 268.61 268.61 268.61 268.61 268.61 268.61 268.61 268.61 268.61 268.61 268.61 268.61 268.61 268.61 268.61 268.61 268.61 268.61 268.61 268.61 268.61 268.61 268.61 268.61 268.61 268.61 268.61 268.61 268.61 268.61 268.61 268.61 268.61 268.61 268.61 268.61 268.61 268.61 268.61 268.61 268.61 268.61 268.61 268.61 268.61 268.61 268.61 268.61
# diagonal-C6 C 29.59
# diagonal-C6 O 12.79
EvdW_6 =   -0.277381
EvdW_8 =   -0.386139

# Ionic positions in cartesian coordinates:
ion Ag  10.839213999999998  26.417100999999985  17.976664000000000 0
ion Ag  10.839213999999998  13.139773999999992  17.976664000000000 0
ion Ag   5.418766999999999  26.417100999999985  17.976664000000000 0
ion Ag   5.418766999999999  13.139773999999992  17.976664000000000 0
ion Ag   0.000217000000000   4.519150999999997   2.204173000000000 0
ion Ag   0.000217000000000  17.796477999999993   2.204173000000000 0
ion Ag   5.420663999999999   4.519150999999997   2.204173000000000 0
ion Ag   5.420663999999999  17.796477999999993   2.204173000000000 0
ion Ag   0.000954000000000   8.973428999999994   5.467986999999998 0
ion Ag   0.000954000000000  22.250755999999988   5.467986999999998 0
ion Ag   5.421401000000000   8.973428999999994   5.467986999999998 0
ion Ag   5.421401000000000  22.250755999999988   5.467986999999998 0
ion Ag  10.840016000000000   0.022810000000000   8.601168999999999 0
ion Ag  10.840016000000000  13.300137999999993   8.601168999999999 0
ion Ag   5.419558000000000   0.022810000000000   8.601168999999999 0
ion Ag   5.419558000000000  13.300137999999993   8.601168999999999 0
ion Ag   0.000022000000000   4.389802999999998  11.760488999999996 0
ion Ag   0.000022000000000  17.667103999999988  11.760488999999996 0
ion Ag   5.420469000000000   4.389802999999998  11.760488999999996 0
ion Ag   5.420469000000000  17.667103999999988  11.760488999999996 0
ion Ag   5.421032000000000   8.708757999999996  15.042160000000001 0
ion Ag   5.421032000000000  21.986085999999990  15.042160000000001 0
ion Ag   0.000585000000000   8.708757999999996  15.042160000000001 0
ion Ag   0.000585000000000  21.986085999999990  15.042160000000001 0
ion Ag   2.709595000000000   0.146449000000000   3.735190999999999 0
ion Ag   2.709595000000000  13.423749999999989   3.735190999999999 0
ion Ag   8.130042000000000   0.146449000000000   3.735190999999999 0
ion Ag   8.130042000000000  13.423749999999989   3.735190999999999 0
ion Ag   2.710256000000000   4.461951999999997   7.016861999999997 0
ion Ag   2.710256000000000  17.739278999999993   7.016861999999997 0
ion Ag   8.130702999999999   4.461951999999997   7.016861999999997 0
ion Ag   8.130702999999999  17.739278999999993   7.016861999999997 0
ion Ag   2.711004000000000   8.825173999999995  10.174547999999996 0
ion Ag   2.711004000000000  22.102500999999990  10.174547999999996 0
ion Ag   8.131451000000000   8.825173999999995  10.174547999999996 0
ion Ag   8.131451000000000  22.102500999999990  10.174547999999996 0
ion Ag   2.709269000000000  26.433883999999985  13.312124999999995 0
ion Ag   2.709269000000000  13.156556999999992  13.312124999999995 0
ion Ag   8.129716000000000  26.433883999999985  13.312124999999995 0
ion Ag   8.129716000000000  13.156556999999992  13.312124999999995 0
ion Ag   2.710104000000000   4.330638999999997  16.571093999999999 0
ion Ag   2.710104000000000  17.607966999999988  16.571093999999999 0
ion Ag   8.130540000000000   4.330638999999997  16.571093999999999 0
ion Ag   8.130540000000000  17.607966999999988  16.571093999999999 0
ion Ag   2.711904000000000   8.989520999999995   0.799449000000000 0
ion Ag   2.711904000000000  22.266847999999985   0.799449000000000 0
ion Ag   8.132351000000000   8.989520999999995   0.799449000000000 0
ion Ag   8.132351000000000  22.266847999999985   0.799449000000000 0
ion C   4.064434999999999   8.735206999999997  19.743470745827416 1  Linear 0 0 1
ion O   4.124526000000000   8.735206999999997  21.932312005796483 1  Linear 0 0 1

# Forces in Cartesian coordinates:
force Ag  -0.000046468743682   0.000224463280918   0.000121354896922 0
force Ag  -0.001376700307628   0.001707954154267  -0.000037641692102 0
force Ag   0.000081794177735   0.000209830926141   0.000048520378275 0
force Ag   0.000227705829323   0.000881410303431   0.001406196953601 0
force Ag   0.000236056423278   0.000248132945585  -0.000017350920557 0
force Ag  -0.000006451080277   0.000372358748478   0.000317706930586 0
force Ag  -0.000217290550538   0.000304640732392  -0.000004350375508 0
force Ag   0.000039140603007   0.000151864806444  -0.000083156794074 0
force Ag   0.000194755249874   0.000235805135895  -0.000173481478173 0
force Ag   0.000014295769964  -0.000102421538315  -0.000717112747014 0
force Ag  -0.000211880682932  -0.000026648788106  -0.000655591018026 0
force Ag   0.000100220410404  -0.000007144888434  -0.000692054821785 0
force Ag   0.000043733748008   0.000741312499987   0.000358864913182 0
force Ag  -0.000332544775721   0.000416314474755  -0.000015097752818 0
force Ag   0.000024435242418   0.000519894970211   0.000113393791052 0
force Ag   0.000299283545852   0.000341655242056  -0.000291188844925 0
force Ag   0.000110384291314   0.000390337426316   0.000124995481400 0
force Ag  -0.000209045738587  -0.000080936035373  -0.000322123743205 0
force Ag  -0.000075839889317   0.000625598952576  -0.000035496508936 0
force Ag   0.000189158069252   0.000071005962613  -0.000517711565945 0
force Ag   0.002024265091680  -0.001655574973030   0.000163327116707 0
force Ag   0.000265894263427   0.000073002371126  -0.000276956395112 0
force Ag  -0.003600735140631  -0.000368739654193  -0.003279533932198 0
force Ag  -0.000222549806391  -0.000111757597311  -0.000078459912618 0
force Ag  -0.000164010676753  -0.000212179151579  -0.000022242503074 0
force Ag  -0.000042753054550  -0.000256882995382  -0.000070342152088 0
force Ag   0.000097422885787  -0.000327053795000  -0.000086254939900 0
force Ag   0.000028840101606  -0.000252681947159  -0.000261019988428 0
force Ag   0.000072090737749  -0.000204127769441  -0.000040345496421 0
force Ag  -0.000142183323309  -0.000209440068564   0.000692905784784 0
force Ag  -0.000172246750525  -0.000381354887035   0.000531819478551 0
force Ag   0.000113782626452  -0.000203983297476   0.000188722370932 0
force Ag   0.000290914164566  -0.000059051825083   0.001500482626613 0
force Ag  -0.000058924497205  -0.000281000998232   0.000216549669981 0
force Ag  -0.000513349827613  -0.000062436254694   0.000619078934838 0
force Ag  -0.000010739879694   0.000120556613239   0.000008422370712 0
force Ag  -0.000193525034217   0.000104302504688   0.000495680014680 0
force Ag  -0.000604751293837   0.001086299723986  -0.001348696022011 0
force Ag   0.000227850263936  -0.000417504454835   0.000087391632142 0
force Ag   0.000444085291498   0.000000611307667   0.000715613588603 0
force Ag  -0.000464716419117  -0.001639437061832   0.000781183462033 0
force Ag   0.000117815449034  -0.000715865811021  -0.000179346688618 0
force Ag   0.001237396483290  -0.001290864981130  -0.000577892547460 0
force Ag  -0.000179406161842  -0.000456086624826  -0.000251745706040 0
force Ag   0.000084724673450  -0.000247598461689   0.000309959537654 0
force Ag   0.000010671686547   0.000201638117301   0.000145461622096 0
force Ag  -0.000135749434585   0.000024662168118   0.000424311852978 0
force Ag  -0.000039633007564   0.000171030600235   0.000570556198753 0
force C   0.003222136754846   0.004918440767546   0.000331146704166 1  Linear 0 0 1
force O  -0.000931792127620  -0.004478830372344  -0.000265672138064 1  Linear 0 0 1

# Energy components:
   A_diel =       -0.0036542257449730
   Eewald =    32699.7578673406205780
       EH =    39118.8161964825703762
     Eloc =   -80046.9185411600337829
      Enl =      192.5029224509738981
     EvdW =       -0.6635203471418462
      Exc =     -700.7258096231457785
 Exc_core =       10.0909416912519685
       KE =     1620.1616336966785639
  MuShift =        0.0000000000002052
-------------------------------------
     Etot =    -7106.9819636939664633
       TS =        0.0012212247269666
-------------------------------------
        F =    -7106.9831849186930413


Dumping 'jdft.fillings' ... done
Dumping 'jdft.wfns' ... done
Dumping 'jdft.fluidState' ... done
Dumping 'jdft.ionpos' ... done
Dumping 'jdft.lattice' ... done
Dumping 'jdft.eigenvals' ... done
Dumping 'jdft.eigStats' ... 
	eMin: -3.529083 at state 8 ( [ +0.000000 +0.000000 +0.000000 ] spin -1 )
	HOMO: -0.145831 at state 10 ( [ +0.166667 +0.000000 +0.000000 ] spin -1 )
	mu  : -0.145438
	LUMO: -0.144669 at state 6 ( [ +0.500000 +0.000000 +0.000000 ] spin 1 )
	eMax: +0.148800 at state 8 ( [ +0.000000 +0.000000 +0.000000 ] spin -1 )
	HOMO-LUMO gap: +0.001162
	Optical gap  : +0.003094 at state 6 ( [ +0.500000 +0.000000 +0.000000 ] spin 1 )
Dumping 'jdft.Ecomponents' ... done
IonicMinimize: Iter:  10  F: -7106.983184918693041  |grad|_K:  3.002e-04  alpha:  1.000e+00  linmin:  2.687e-03  t[s]:  42176.42
IonicMinimize: Converged (|Delta F|<1.000000e-06 for 2 iters).

#--- Lowdin population analysis ---
# oxidation-state Ag +0.090 +0.071 +0.091 -0.001 +0.014 +0.012 +0.011 +0.012 -0.035 -0.035 -0.036 -0.035 -0.003 -0.006 -0.003 -0.002 -0.005 -0.007 -0.006 -0.004 -0.056 -0.023 -0.018 -0.026 -0.027 -0.025 -0.027 -0.026 -0.004 -0.003 -0.004 -0.003 -0.005 -0.002 -0.001 -0.001 -0.035 -0.033 -0.038 -0.039 -0.033 +0.012 +0.007 +0.014 +0.092 +0.094 +0.093 +0.093
# magnetic-moments Ag +0.000 -0.000 -0.000 +0.000 -0.000 -0.000 +0.000 +0.000 +0.000 +0.000 -0.000 -0.000 -0.000 -0.000 -0.000 +0.000 -0.000 +0.000 +0.000 +0.000 +0.000 -0.000 +0.000 -0.000 +0.000 +0.000 +0.000 -0.000 -0.000 +0.000 -0.000 -0.000 -0.000 +0.000 -0.000 -0.000 -0.000 -0.000 +0.000 -0.000 +0.000 +0.000 -0.000 -0.000 -0.000 +0.000 +0.000 +0.000
# oxidation-state C +0.375
# magnetic-moments C -0.000
# oxidation-state O -0.099
# magnetic-moments O +0.000


Dumping 'jdft.n_up' ... done
Dumping 'jdft.n_dn' ... done
Dumping 'jdft.tau_up' ... done
Dumping 'jdft.tau_dn' ... done
Dumping 'jdft.eigenvals' ... done
Dumping 'jdft.eigStats' ... 
	eMin: -3.529083 at state 8 ( [ +0.000000 +0.000000 +0.000000 ] spin -1 )
	HOMO: -0.145831 at state 10 ( [ +0.166667 +0.000000 +0.000000 ] spin -1 )
	mu  : -0.145438
	LUMO: -0.144669 at state 6 ( [ +0.500000 +0.000000 +0.000000 ] spin 1 )
	eMax: +0.148800 at state 8 ( [ +0.000000 +0.000000 +0.000000 ] spin -1 )
	HOMO-LUMO gap: +0.001162
	Optical gap  : +0.003094 at state 6 ( [ +0.500000 +0.000000 +0.000000 ] spin 1 )
Dumping 'jdft.kPts' ... done
Dumping 'jdft.kMap' ... done
Dumping 'jdft.dosUp' ... done.
Dumping 'jdft.dosDn' ... done.
End date and time: Sun Feb 20 10:35:06 2022  (Duration: 0-11:45:08.13)
Done!
