
*************** JDFTx 1.6.0  ***************

Start date and time: Mon Dec  6 17:19:22 2021
Executable /projects/musgravc/apps/jdftx-1.6.1/build/jdftx with command-line: -i in
Running on hosts (process indices):  shas0819.rc.int.colorado.edu (0-23)
Divided in process groups (process indices):  0 (0)  1 (1)  2 (2)  3 (3)  4 (4)  5 (5)  6 (6)  7 (7)  8 (8)  9 (9)  10 (10)  11 (11)  12 (12)  13 (13)  14 (14)  15 (15)  16 (16)  17 (17)  18 (18)  19 (19)  20 (20)  21 (21)  22 (22)  23 (23)
Resource initialization completed at t[s]:      0.00
Run totals: 24 processes, 24 threads, 0 GPUs


Input parsed successfully to the following command list (including defaults):

basis kpoint-dependent
converge-empty-states yes
coords-type Cartesian
core-overlap-check none
coulomb-interaction Periodic
davidson-band-ratio 1.1
density-of-states Etol 1.000000e-06 Esigma 1.000000e-03 \
		Complete \
	Total \
	OrthoOrbital Ag 1   s \
	OrthoOrbital Ag 1   p \
	OrthoOrbital Ag 1   px \
	OrthoOrbital Ag 1   py \
	OrthoOrbital Ag 1   pz \
	OrthoOrbital Ag 1   d \
	OrthoOrbital Ag 1   dxy \
	OrthoOrbital Ag 1   dyz \
	OrthoOrbital Ag 1   dz2 \
	OrthoOrbital Ag 1   dxz \
	OrthoOrbital Ag 1   dx2-y2 \
	OrthoOrbital Ag 2   s \
	OrthoOrbital Ag 2   p \
	OrthoOrbital Ag 2   px \
	OrthoOrbital Ag 2   py \
	OrthoOrbital Ag 2   pz \
	OrthoOrbital Ag 2   d \
	OrthoOrbital Ag 2   dxy \
	OrthoOrbital Ag 2   dyz \
	OrthoOrbital Ag 2   dz2 \
	OrthoOrbital Ag 2   dxz \
	OrthoOrbital Ag 2   dx2-y2 \
	OrthoOrbital Ag 3   s \
	OrthoOrbital Ag 3   p \
	OrthoOrbital Ag 3   px \
	OrthoOrbital Ag 3   py \
	OrthoOrbital Ag 3   pz \
	OrthoOrbital Ag 3   d \
	OrthoOrbital Ag 3   dxy \
	OrthoOrbital Ag 3   dyz \
	OrthoOrbital Ag 3   dz2 \
	OrthoOrbital Ag 3   dxz \
	OrthoOrbital Ag 3   dx2-y2 \
	OrthoOrbital Ag 4   s \
	OrthoOrbital Ag 4   p \
	OrthoOrbital Ag 4   px \
	OrthoOrbital Ag 4   py \
	OrthoOrbital Ag 4   pz \
	OrthoOrbital Ag 4   d \
	OrthoOrbital Ag 4   dxy \
	OrthoOrbital Ag 4   dyz \
	OrthoOrbital Ag 4   dz2 \
	OrthoOrbital Ag 4   dxz \
	OrthoOrbital Ag 4   dx2-y2 \
	OrthoOrbital Ag 5   s \
	OrthoOrbital Ag 5   p \
	OrthoOrbital Ag 5   px \
	OrthoOrbital Ag 5   py \
	OrthoOrbital Ag 5   pz \
	OrthoOrbital Ag 5   d \
	OrthoOrbital Ag 5   dxy \
	OrthoOrbital Ag 5   dyz \
	OrthoOrbital Ag 5   dz2 \
	OrthoOrbital Ag 5   dxz \
	OrthoOrbital Ag 5   dx2-y2 \
	OrthoOrbital Ag 6   s \
	OrthoOrbital Ag 6   p \
	OrthoOrbital Ag 6   px \
	OrthoOrbital Ag 6   py \
	OrthoOrbital Ag 6   pz \
	OrthoOrbital Ag 6   d \
	OrthoOrbital Ag 6   dxy \
	OrthoOrbital Ag 6   dyz \
	OrthoOrbital Ag 6   dz2 \
	OrthoOrbital Ag 6   dxz \
	OrthoOrbital Ag 6   dx2-y2 \
	OrthoOrbital Ag 7   s \
	OrthoOrbital Ag 7   p \
	OrthoOrbital Ag 7   px \
	OrthoOrbital Ag 7   py \
	OrthoOrbital Ag 7   pz \
	OrthoOrbital Ag 7   d \
	OrthoOrbital Ag 7   dxy \
	OrthoOrbital Ag 7   dyz \
	OrthoOrbital Ag 7   dz2 \
	OrthoOrbital Ag 7   dxz \
	OrthoOrbital Ag 7   dx2-y2 \
	OrthoOrbital Ag 8   s \
	OrthoOrbital Ag 8   p \
	OrthoOrbital Ag 8   px \
	OrthoOrbital Ag 8   py \
	OrthoOrbital Ag 8   pz \
	OrthoOrbital Ag 8   d \
	OrthoOrbital Ag 8   dxy \
	OrthoOrbital Ag 8   dyz \
	OrthoOrbital Ag 8   dz2 \
	OrthoOrbital Ag 8   dxz \
	OrthoOrbital Ag 8   dx2-y2 \
	OrthoOrbital Ag 9   s \
	OrthoOrbital Ag 9   p \
	OrthoOrbital Ag 9   px \
	OrthoOrbital Ag 9   py \
	OrthoOrbital Ag 9   pz \
	OrthoOrbital Ag 9   d \
	OrthoOrbital Ag 9   dxy \
	OrthoOrbital Ag 9   dyz \
	OrthoOrbital Ag 9   dz2 \
	OrthoOrbital Ag 9   dxz \
	OrthoOrbital Ag 9   dx2-y2 \
	OrthoOrbital Ag 10   s \
	OrthoOrbital Ag 10   p \
	OrthoOrbital Ag 10   px \
	OrthoOrbital Ag 10   py \
	OrthoOrbital Ag 10   pz \
	OrthoOrbital Ag 10   d \
	OrthoOrbital Ag 10   dxy \
	OrthoOrbital Ag 10   dyz \
	OrthoOrbital Ag 10   dz2 \
	OrthoOrbital Ag 10   dxz \
	OrthoOrbital Ag 10   dx2-y2 \
	OrthoOrbital Ag 11   s \
	OrthoOrbital Ag 11   p \
	OrthoOrbital Ag 11   px \
	OrthoOrbital Ag 11   py \
	OrthoOrbital Ag 11   pz \
	OrthoOrbital Ag 11   d \
	OrthoOrbital Ag 11   dxy \
	OrthoOrbital Ag 11   dyz \
	OrthoOrbital Ag 11   dz2 \
	OrthoOrbital Ag 11   dxz \
	OrthoOrbital Ag 11   dx2-y2 \
	OrthoOrbital Ag 12   s \
	OrthoOrbital Ag 12   p \
	OrthoOrbital Ag 12   px \
	OrthoOrbital Ag 12   py \
	OrthoOrbital Ag 12   pz \
	OrthoOrbital Ag 12   d \
	OrthoOrbital Ag 12   dxy \
	OrthoOrbital Ag 12   dyz \
	OrthoOrbital Ag 12   dz2 \
	OrthoOrbital Ag 12   dxz \
	OrthoOrbital Ag 12   dx2-y2 \
	OrthoOrbital Ag 13   s \
	OrthoOrbital Ag 13   p \
	OrthoOrbital Ag 13   px \
	OrthoOrbital Ag 13   py \
	OrthoOrbital Ag 13   pz \
	OrthoOrbital Ag 13   d \
	OrthoOrbital Ag 13   dxy \
	OrthoOrbital Ag 13   dyz \
	OrthoOrbital Ag 13   dz2 \
	OrthoOrbital Ag 13   dxz \
	OrthoOrbital Ag 13   dx2-y2 \
	OrthoOrbital Ag 14   s \
	OrthoOrbital Ag 14   p \
	OrthoOrbital Ag 14   px \
	OrthoOrbital Ag 14   py \
	OrthoOrbital Ag 14   pz \
	OrthoOrbital Ag 14   d \
	OrthoOrbital Ag 14   dxy \
	OrthoOrbital Ag 14   dyz \
	OrthoOrbital Ag 14   dz2 \
	OrthoOrbital Ag 14   dxz \
	OrthoOrbital Ag 14   dx2-y2 \
	OrthoOrbital Ag 15   s \
	OrthoOrbital Ag 15   p \
	OrthoOrbital Ag 15   px \
	OrthoOrbital Ag 15   py \
	OrthoOrbital Ag 15   pz \
	OrthoOrbital Ag 15   d \
	OrthoOrbital Ag 15   dxy \
	OrthoOrbital Ag 15   dyz \
	OrthoOrbital Ag 15   dz2 \
	OrthoOrbital Ag 15   dxz \
	OrthoOrbital Ag 15   dx2-y2 \
	OrthoOrbital Ag 16   s \
	OrthoOrbital Ag 16   p \
	OrthoOrbital Ag 16   px \
	OrthoOrbital Ag 16   py \
	OrthoOrbital Ag 16   pz \
	OrthoOrbital Ag 16   d \
	OrthoOrbital Ag 16   dxy \
	OrthoOrbital Ag 16   dyz \
	OrthoOrbital Ag 16   dz2 \
	OrthoOrbital Ag 16   dxz \
	OrthoOrbital Ag 16   dx2-y2 \
	OrthoOrbital Ag 17   s \
	OrthoOrbital Ag 17   p \
	OrthoOrbital Ag 17   px \
	OrthoOrbital Ag 17   py \
	OrthoOrbital Ag 17   pz \
	OrthoOrbital Ag 17   d \
	OrthoOrbital Ag 17   dxy \
	OrthoOrbital Ag 17   dyz \
	OrthoOrbital Ag 17   dz2 \
	OrthoOrbital Ag 17   dxz \
	OrthoOrbital Ag 17   dx2-y2 \
	OrthoOrbital Ag 18   s \
	OrthoOrbital Ag 18   p \
	OrthoOrbital Ag 18   px \
	OrthoOrbital Ag 18   py \
	OrthoOrbital Ag 18   pz \
	OrthoOrbital Ag 18   d \
	OrthoOrbital Ag 18   dxy \
	OrthoOrbital Ag 18   dyz \
	OrthoOrbital Ag 18   dz2 \
	OrthoOrbital Ag 18   dxz \
	OrthoOrbital Ag 18   dx2-y2
dump End ElecDensity KEdensity BandEigs EigStats RhoAtom DOS Kpoints
dump Ionic State IonicPositions Lattice EigStats Ecomponents
dump 
dump 
dump 
dump 
dump 
dump 
dump 
dump 
dump-name jdft.$VAR
elec-cutoff 20
elec-eigen-algo Davidson
elec-ex-corr gga-PBE
elec-initial-magnetization 0.000000 no
elec-n-bands 206
elec-smearing Fermi 0.001
electronic-minimize  \
	dirUpdateScheme      FletcherReeves \
	linminMethod         DirUpdateRecommended \
	nIterations          100 \
	history              15 \
	knormThreshold       0 \
	energyDiffThreshold  1e-07 \
	nEnergyDiff          2 \
	alphaTstart          1 \
	alphaTmin            1e-10 \
	updateTestStepSize   yes \
	alphaTreduceFactor   0.1 \
	alphaTincreaseFactor 3 \
	nAlphaAdjustMax      3 \
	wolfeEnergy          0.0001 \
	wolfeGradient        0.9 \
	fdTest               no
exchange-regularization WignerSeitzTruncated
fluid LinearPCM 298.000000 1.013250
fluid-anion F- 0.5 MeanFieldLJ \
	epsBulk 1 \
	pMol 0 \
	epsInf 1 \
	Pvap 0 \
	sigmaBulk 0 \
	Rvdw 2.24877 \
	Res 0 \
	tauNuc 343133
fluid-cation Na+ 0.5 MeanFieldLJ \
	epsBulk 1 \
	pMol 0 \
	epsInf 1 \
	Pvap 0 \
	sigmaBulk 0 \
	Rvdw 2.19208 \
	Res 0 \
	tauNuc 343133
fluid-ex-corr lda-TF lda-PZ
fluid-gummel-loop 10 1.000000e-05
fluid-minimize  \
	dirUpdateScheme      PolakRibiere \
	linminMethod         DirUpdateRecommended \
	nIterations          400 \
	history              15 \
	knormThreshold       1e-11 \
	energyDiffThreshold  0 \
	nEnergyDiff          2 \
	alphaTstart          1 \
	alphaTmin            1e-10 \
	updateTestStepSize   yes \
	alphaTreduceFactor   0.1 \
	alphaTincreaseFactor 3 \
	nAlphaAdjustMax      6 \
	wolfeEnergy          0.0001 \
	wolfeGradient        0.9 \
	fdTest               no
fluid-solvent H2O 55.338 ScalarEOS \
	epsBulk 78.4 \
	pMol 0.92466 \
	epsInf 1.77 \
	Pvap 1.06736e-10 \
	sigmaBulk 4.62e-05 \
	Rvdw 2.61727 \
	Res 1.42 \
	tauNuc 343133 \
	poleEl 15 7 1
forces-output-coords Positions
ion Ag   0.000000000000000   7.227255000000000  67.074583000000004 1
ion Ag   0.000000000000000  14.454525000000000  64.519362999999998 1
ion Ag   5.420447000000000   0.000000000000000  46.632821000000000 1
ion Ag   0.000000000000000   5.420441000000000  61.964142000000002 1
ion Ag   0.000000000000000  12.647711999999999  59.408921999999997 1
ion Ag   5.420447000000000   3.613627000000000  56.853701999999998 1
ion Ag   5.420447000000000  10.840897999999997  54.298482000000007 1
ion Ag   5.420447000000000   1.806814000000000  51.743260999999997 1
ion Ag   5.420447000000000   9.034084000000000  49.188041000000005 1
ion Ag   2.710223000000000   9.937482999999999  63.241787000000002 1
ion Ag   2.710223000000000   0.903415000000000  60.686566999999997 1
ion Ag   2.710223000000000   2.710229000000000  65.797006999999994 1
ion Ag   2.710223000000000   8.130668999999999  58.131346999999998 1
ion Ag   2.710223000000000  15.357924000000001  55.576126000000002 1
ion Ag   2.710223000000000   6.323855999999999  53.020905999999997 1
ion Ag   2.710223000000000  13.551110000000000  50.465617000000002 1
ion Ag   2.710223000000000   4.517042000000000  47.910397000000003 1
ion Ag   2.710223000000000  11.744297000000000  68.352226999999999 1
ion-species /projects/musgravc/apps/jdftx-1.6.0/build/pseudopotentials/GBRV_v1.5/$ID_pbe_v1.uspp
ion-species /projects/musgravc/apps/jdftx-1.6.0/build/pseudopotentials/GBRV_v1.5/$ID_pbe_v1.2.uspp
ion-species /projects/musgravc/apps/jdftx-1.6.0/build/pseudopotentials/GBRV_v1.5/$ID_pbe_v1.4.uspp
ion-species /projects/musgravc/apps/jdftx-1.6.0/build/pseudopotentials/GBRV_v1.5/$ID_pbe_v1.5.uspp
ion-width Ecut
ionic-minimize  \
	dirUpdateScheme      L-BFGS \
	linminMethod         DirUpdateRecommended \
	nIterations          100 \
	history              15 \
	knormThreshold       0.0001 \
	energyDiffThreshold  1e-06 \
	nEnergyDiff          2 \
	alphaTstart          1 \
	alphaTmin            1e-10 \
	updateTestStepSize   yes \
	alphaTreduceFactor   0.1 \
	alphaTincreaseFactor 3 \
	nAlphaAdjustMax      3 \
	wolfeEnergy          0.0001 \
	wolfeGradient        0.9 \
	fdTest               no
kpoint   0.000000000000   0.000000000000   0.000000000000  1.00000000000000
kpoint-folding 12 4 1 
latt-move-scale 0 0 0
latt-scale 1 1 1 
lattice  \
	   5.420447000000000    0.000000000000000    0.000000000000000  \
	   0.000000000000000   16.261339000000000    0.000000000000000  \
	  -0.000000000000000    0.000000000000000   68.991015000000004 
lattice-minimize  \
	dirUpdateScheme      L-BFGS \
	linminMethod         DirUpdateRecommended \
	nIterations          0 \
	history              15 \
	knormThreshold       0 \
	energyDiffThreshold  1e-06 \
	nEnergyDiff          2 \
	alphaTstart          1 \
	alphaTmin            1e-10 \
	updateTestStepSize   yes \
	alphaTreduceFactor   0.1 \
	alphaTincreaseFactor 3 \
	nAlphaAdjustMax      3 \
	wolfeEnergy          0.0001 \
	wolfeGradient        0.9 \
	fdTest               no
lcao-params 30 1e-06 0.001
pcm-variant CANDLE
spintype z-spin
subspace-rotation-factor 1 yes
symmetries none
symmetry-threshold 0.0001
target-mu -0.1713 no

van-der-waals D3


Applied RMS atom displacement 0 bohrs to make symmetries exact.

---------- Initializing the Grid ----------
R = 
[      5.42045            0            0  ]
[            0      16.2613            0  ]
[            0            0       68.991  ]
unit cell volume = 6081.13
G =
[    1.15916          0          0  ]
[         -0   0.386388          0  ]
[          0         -0  0.0910725  ]
Minimum fftbox size, Smin = [  24  68  280  ]
Chosen fftbox size, S = [  24  70  280  ]

---------- Exchange Correlation functional ----------
Initalized PBE GGA exchange.
Initalized PBE GGA correlation.

---------- Setting up pseudopotentials ----------
Width of ionic core gaussian charges (only for fluid interactions / plotting) set to 0.397384

Reading pseudopotential file '/projects/musgravc/apps/jdftx-1.6.0/build/pseudopotentials/GBRV_v1.5/ag_pbe_v1.4.uspp':
  Title: Ag.  Created by USPP 7.3.6 on 1-4-15
  Reference state energy: -147.606242.  19 valence electrons in orbitals:
    |400>  occupation: 2  eigenvalue: -3.637437
    |410>  occupation: 6  eigenvalue: -2.297267
    |420>  occupation: 10  eigenvalue: -0.417763
    |500>  occupation: 0.5  eigenvalue: -0.283525
    |510>  occupation: 0  eigenvalue: -0.122889
  lMax: 2  lLocal: 0  QijEcut: 5.5
  6 projectors sampled on a log grid with 717 points:
    l: 0  eig: -0.283528  rCut: 1.5
    l: 0  eig: -3.637440  rCut: 1.5
    l: 1  eig: -0.122892  rCut: 1.5
    l: 1  eig: -2.297267  rCut: 1.5
    l: 2  eig: -0.417762  rCut: 1.7
    l: 2  eig: -1.000000  rCut: 1.7
  Partial core density with radius 1.2
  Transforming core density to a uniform radial grid of dG=0.02 with 1166 points.
  Transforming local potential to a uniform radial grid of dG=0.02 with 1166 points.
  Transforming nonlocal projectors to a uniform radial grid of dG=0.02 with 432 points.
  Transforming density augmentations to a uniform radial grid of dG=0.02 with 1166 points.
  Transforming atomic orbitals to a uniform radial grid of dG=0.02 with 432 points.
  Core radius for overlap checks: 1.70 bohrs.

Initialized 1 species with 18 total atoms.

Folded 1 k-points by 12x4x1 to 48 k-points.

---------- Setting up k-points, bands, fillings ----------
No reducable k-points. 
Computing the number of bands and number of electrons
Calculating initial fillings.
nElectrons: 342.000000   nBands: 206   nStates: 96

----- Setting up reduced wavefunction bases (one per k-point) -----
average nbasis = 25983.646 , ideal nbasis = 25979.030

----- Initializing Supercell corresponding to k-point mesh -----
Lattice vector linear combinations in supercell:
[  12   0   0  ]
[   0   4   0  ]
[   0   0   1  ]
Supercell lattice vectors:
[  65.0454  0  0  ]
[  0  65.0454  0  ]
[  0  0  68.991  ]

Initializing DFT-D3 calculator:
	Parameters set for gga-PBE functional
	s6:  1.000  s_r6:  1.217
	s8:  0.722  s_r8:  1.000
	Per-atom parameters loaded for:
	Ag:  sqrtQ[a0]:  5.443  Rcov[a0]:  2.173  CN: [ 0.00 0.97 ]

Initializing DFT-D2 calculator for fluid / solvation:
	Ag:  C6:  427.91 Eh-a0^6  R0: 3.097 a0

---------- Setting up ewald sum ----------
Optimum gaussian width for ewald sums = 4.498067 bohr.
Real space sum over 855 unit cells with max indices [  9  4  2  ]
Reciprocal space sum over 5355 terms with max indices [  3  7  25  ]

Computing DFT-D3 correction:
# coordination-number Ag 6.867 8.403 5.359 9.200 9.208 9.209 9.203 9.194 6.895 9.194 9.204 6.895 9.209 9.208 9.200 8.403 6.867 5.359
# diagonal-C6 Ag 268.61 268.61 268.61 268.61 268.61 268.61 268.61 268.61 268.61 268.61 268.61 268.61 268.61 268.61 268.61 268.61 268.61 268.61
EvdW_6 =   -0.111205
EvdW_8 =   -0.152109

---------- Allocating electronic variables ----------
Initializing wave functions:  linear combination of atomic orbitals
Ag pseudo-atom occupations:   s ( 2 1 )  p ( 6 0 )  d ( 10 )
	FillingsUpdate:  mu: -0.171300000  nElectrons: 342.000000  magneticMoment: [ Abs: 0.00095  Tot: +0.00003 ]
LCAOMinimize: Iter:   0  G: -2598.0568116676849968  |grad|_K:  6.650e-04  alpha:  1.000e+00
	FillingsUpdate:  mu: -0.171300000  nElectrons: 342.000000  magneticMoment: [ Abs: 0.00077  Tot: -0.00001 ]
LCAOMinimize: Iter:   1  G: -2598.0673881016032283  |grad|_K:  9.362e-04  alpha:  1.921e-01  linmin:  8.192e-02  cgtest: -6.606e-01  t[s]:    148.52
LCAOMinimize: 	Bad step direction: g.d > 0.
LCAOMinimize: 	Undoing step.
LCAOMinimize: 	Step failed: resetting search direction.
	FillingsUpdate:  mu: -0.171300000  nElectrons: 342.000000  magneticMoment: [ Abs: 0.00077  Tot: -0.00001 ]
LCAOMinimize: Iter:   2  G: -2598.0673881016032283  |grad|_K:  9.362e-04  alpha:  0.000e+00
	FillingsUpdate:  mu: -0.171300000  nElectrons: 342.000000  magneticMoment: [ Abs: 0.00077  Tot: -0.00002 ]
LCAOMinimize: Iter:   3  G: -2598.2422829758147600  |grad|_K:  2.182e-04  alpha:  6.207e-02  linmin: -1.274e-01  cgtest:  6.104e-01  t[s]:    252.48
LCAOMinimize: Encountered beta<0, resetting CG.
LCAOMinimize: 	Predicted alpha/alphaT>3.000000, increasing alphaT to 1.862096e-01.
	FillingsUpdate:  mu: -0.171300000  nElectrons: 342.000000  magneticMoment: [ Abs: 0.00071  Tot: -0.00004 ]
LCAOMinimize: Iter:   4  G: -2598.2732489248542151  |grad|_K:  2.703e-04  alpha:  2.448e-01  linmin: -5.842e-04  cgtest:  2.602e-02  t[s]:    327.23
	FillingsUpdate:  mu: -0.171300000  nElectrons: 342.000000  magneticMoment: [ Abs: 0.00063  Tot: -0.00004 ]
LCAOMinimize: Iter:   5  G: -2598.3005230568423940  |grad|_K:  5.094e-05  alpha:  1.497e-01  linmin:  5.622e-03  cgtest: -2.908e-01  t[s]:    386.82
	FillingsUpdate:  mu: -0.171300000  nElectrons: 342.000000  magneticMoment: [ Abs: 0.00063  Tot: -0.00004 ]
LCAOMinimize: Iter:   6  G: -2598.3007319570697291  |grad|_K:  2.543e-05  alpha:  3.209e-02  linmin:  2.820e-04  cgtest:  7.520e-02  t[s]:    446.14
LCAOMinimize: 	Predicted alpha/alphaT>3.000000, increasing alphaT to 9.626532e-02.
	FillingsUpdate:  mu: -0.171300000  nElectrons: 342.000000  magneticMoment: [ Abs: 0.00063  Tot: -0.00004 ]
LCAOMinimize: Iter:   7  G: -2598.3009273855077481  |grad|_K:  1.619e-05  alpha:  1.129e-01  linmin: -1.417e-02  cgtest:  8.305e-02  t[s]:    521.70
	FillingsUpdate:  mu: -0.171300000  nElectrons: 342.000000  magneticMoment: [ Abs: 0.00063  Tot: -0.00003 ]
LCAOMinimize: Iter:   8  G: -2598.3010455387420734  |grad|_K:  9.846e-06  alpha:  1.629e-01  linmin:  9.778e-03  cgtest: -2.829e-01  t[s]:    581.26
	FillingsUpdate:  mu: -0.171300000  nElectrons: 342.000000  magneticMoment: [ Abs: 0.00063  Tot: -0.00003 ]
LCAOMinimize: Iter:   9  G: -2598.3010569699222287  |grad|_K:  7.987e-06  alpha:  4.900e-02  linmin:  7.575e-04  cgtest:  1.629e-01  t[s]:    640.96
	FillingsUpdate:  mu: -0.171300000  nElectrons: 342.000000  magneticMoment: [ Abs: 0.00063  Tot: -0.00003 ]
LCAOMinimize: Iter:  10  G: -2598.3010699064329856  |grad|_K:  3.660e-06  alpha:  7.565e-02  linmin: -1.231e-02  cgtest: -1.926e-02  t[s]:    700.39
LCAOMinimize: 	Wrong curvature in test step, increasing alphaT to 2.269491e-01.
	FillingsUpdate:  mu: -0.171300000  nElectrons: 342.000000  magneticMoment: [ Abs: 0.00063  Tot: -0.00003 ]
LCAOMinimize: Iter:  11  G: -2598.3010756101029983  |grad|_K:  2.383e-06  alpha: -3.930e+00  linmin: -8.598e-02  cgtest:  7.646e-01  t[s]:    759.21
LCAOMinimize: Encountered beta<0, resetting CG.
	FillingsUpdate:  mu: -0.171300000  nElectrons: 342.000000  magneticMoment: [ Abs: 0.00063  Tot: -0.00003 ]
LCAOMinimize: Iter:  12  G: -2598.3010782266937895  |grad|_K:  3.134e-06  alpha:  1.059e-01  linmin:  6.052e-03  cgtest: -6.126e-02  t[s]:    819.16
	FillingsUpdate:  mu: -0.171300000  nElectrons: 342.000000  magneticMoment: [ Abs: 0.00063  Tot: -0.00003 ]
LCAOMinimize: Iter:  13  G: -2598.3010807313826263  |grad|_K:  3.601e-06  alpha:  1.026e-01  linmin:  3.109e-02  cgtest: -4.025e-01  t[s]:    878.93
	FillingsUpdate:  mu: -0.171300000  nElectrons: 342.000000  magneticMoment: [ Abs: 0.00063  Tot: -0.00003 ]
LCAOMinimize: Iter:  14  G: -2598.3010808314729729  |grad|_K:  3.589e-06  alpha:  5.938e-03  linmin:  8.934e-04  cgtest:  9.990e-01  t[s]:    938.33
LCAOMinimize: Encountered beta<0, resetting CG.
	FillingsUpdate:  mu: -0.171300000  nElectrons: 342.000000  magneticMoment: [ Abs: 0.00063  Tot: -0.00003 ]
LCAOMinimize: Iter:  15  G: -2598.3010812117563546  |grad|_K:  2.861e-06  alpha:  8.842e-03  linmin: -1.023e-01  cgtest:  9.888e-01  t[s]:    997.77
LCAOMinimize: Encountered beta<0, resetting CG.
LCAOMinimize: Converged (|Delta G|<1.000000e-06 for 2 iters).
----- createFluidSolver() ----- (Fluid-side solver setup)
   Initializing fluid molecule 'H2O'
     Initializing site 'O'
       Electron density: proportional to exp(-r/0.36935)*erfc((r-0.51523)/0.36823) with norm 6.826
       Charge density: gaussian nuclear width 0.478731 with net site charge 0.826
       Polarizability: cuspless exponential with width 0.32 and norm 3.73
       Hard sphere radius: 2.57003 bohrs
       Positions in reference frame:
         [ +0.000000 +0.000000 +0.000000 ]
     Initializing site 'H'
       Electron density: proportional to exp(-r/0.34641)*erfc((r-0)/0.390882) with norm 0.587
       Charge density: gaussian nuclear width 0.377945 with net site charge -0.413
       Polarizability: cuspless exponential with width 0.39 and norm 3.3
       Positions in reference frame:
         [ +0.000000 -1.441945 +1.122523 ]
         [ +0.000000 +1.441945 +1.122523 ]
     Net charge: 0   dipole magnitude: 0.927204
     Initializing spherical shell mfKernel with radius 2.61727 Bohr
     deltaS corrections:
       site 'O': -7.54299
       site 'H': -6.83917
   Initializing fluid molecule 'Na+'
     Initializing site 'Na'
       Electron density: proportional to exp(-r/0.19682)*erfc((r-0.71491)/0.41314) with norm 8.1383
       Charge density: gaussian nuclear width 0.365347 with net site charge -1
       Hard sphere radius: 1.86327 bohrs
       Positions in reference frame:
         [ +0.000000 +0.000000 +0.000000 ]
     Net charge: -1   dipole magnitude: 0
     Initializing gaussian mfKernel with width: 1.55004 Bohr
     deltaS corrections:
       site 'Na': -22.3555
   Initializing fluid molecule 'F-'
     Initializing site 'F'
       Electron density: proportional to exp(-r/0.38886)*erfc((r-0)/0.438782) with norm 8
       Charge density: gaussian nuclear width 0.374796 with net site charge 1
       Hard sphere radius: 2.39995 bohrs
       Positions in reference frame:
         [ +0.000000 +0.000000 +0.000000 ]
     Net charge: 1   dipole magnitude: 0
     Initializing gaussian mfKernel with width: 1.59012 Bohr
     deltaS corrections:
       site 'F': -9.04335

Correction to mu due to finite nuclear width = -0.055801
   Cavity determined by nc: 0.00142 and sigma: 0.707107
   Nonlocal vdW cavity from gaussian model electron density with norm = 8 and sigma = 0.993594 bohr
   Charge asymmetry in cavity with sensitivity pCavity = 36.5 e-bohr/Eh
   Electrostatic cavity expanded by eta = 1.46 bohrs
   Weighted density cavitation model constrained by Nbulk: 0.0049383 bohr^-3, Pvap: 3.14029 kPa, Rvdw: 2.61727 bohr and sigmaBulk: 4.62e-05 Eh/bohr^2 at T: 298 K.
   Weighted density dispersion model using vdW pair potentials with single solvent site with sqrtC6eff: 0.77 SI.


---- Citations for features of the code used in this run ----

   Software package:
      R. Sundararaman, K. Letchworth-Weaver, K.A. Schwarz, D. Gunceler, Y. Ozhabes and T.A. Arias, 'JDFTx: software for joint density-functional theory', SoftwareX 6, 278 (2017)

   gga-PBE exchange-correlation functional:
      J.P. Perdew, K. Burke and M. Ernzerhof, Phys. Rev. Lett. 77, 3865 (1996)

   Pseudopotentials:
      KF Garrity, JW Bennett, KM Rabe and D Vanderbilt, Comput. Mater. Sci. 81, 446 (2014)

   DFT-D3 dispersion correction:
      S. Grimme, J. Antony, S. Ehrlich and H. Krieg, J. Chem. Phys. 132, 154104 (2010)

   DFT-D2 dispersion correction:
      S. Grimme, J. Comput. Chem. 27, 1787 (2006)

   Charge-asymmetric nonlocally-determined local-electric (CANDLE) solvation model:
      R. Sundararaman and W.A. Goddard III, J. Chem. Phys. 142, 064107 (2015)

   Total energy minimization with Auxiliary Hamiltonian:
      C. Freysoldt, S. Boeck, and J. Neugebauer, Phys. Rev. B 79, 241103(R) (2009)

   Grand-canonical (fixed-potential) DFT:
      R. Sundararaman, W. A. Goddard III and T. A. Arias, J. Chem. Phys. 146, 114104 (2017)

   Linear-tetrahedron sampling for density of states:
      G. Lehmann and M. Taut, Phys. status solidi (b) 54, 469 (1972)

This list may not be complete. Please suggest additional citations or
report any other bugs at https://github.com/shankar1729/jdftx/issues

Initialization completed successfully at t[s]:   1011.13


Computing DFT-D3 correction:
# coordination-number Ag 6.867 8.403 5.359 9.200 9.208 9.209 9.203 9.194 6.895 9.194 9.204 6.895 9.209 9.208 9.200 8.403 6.867 5.359
# diagonal-C6 Ag 268.61 268.61 268.61 268.61 268.61 268.61 268.61 268.61 268.61 268.61 268.61 268.61 268.61 268.61 268.61 268.61 268.61 268.61
EvdW_6 =   -0.111205
EvdW_8 =   -0.152109
Fluid solver invoked on fresh (random / LCAO) wavefunctions
Running a vacuum solve first:

-------- Initial electronic minimization -----------
	FillingsUpdate:  mu: +0.107442163  nElectrons: 342.000000  magneticMoment: [ Abs: 0.00063  Tot: -0.00003 ]
ElecMinimize: Iter:   0  G: -2598.301653729270583  |grad|_K:  1.846e-05  alpha:  1.000e+00
	FillingsUpdate:  mu: +0.113240388  nElectrons: 342.000000  magneticMoment: [ Abs: 0.00049  Tot: -0.00004 ]
	SubspaceRotationAdjust: set factor to 0.999
ElecMinimize: Iter:   1  G: -2598.378519389777011  |grad|_K:  1.289e-05  alpha:  4.387e-01  linmin:  1.912e-05  t[s]:   1154.71
	FillingsUpdate:  mu: +0.108112304  nElectrons: 342.000000  magneticMoment: [ Abs: 0.00039  Tot: -0.00003 ]
	SubspaceRotationAdjust: set factor to 0.573
ElecMinimize: Iter:   2  G: -2598.398870684337453  |grad|_K:  1.585e-05  alpha:  2.369e-01  linmin: -2.411e-05  t[s]:   1244.02
	FillingsUpdate:  mu: +0.109635090  nElectrons: 342.000000  magneticMoment: [ Abs: 0.00037  Tot: -0.00002 ]
	SubspaceRotationAdjust: set factor to 0.302
ElecMinimize: Iter:   3  G: -2598.403184051642711  |grad|_K:  5.735e-06  alpha:  3.338e-02  linmin:  5.496e-05  t[s]:   1333.12
ElecMinimize: 	Predicted alpha/alphaT>3.000000, increasing alphaT to 1.001258e-01.
ElecMinimize: 	Predicted alpha/alphaT>3.000000, increasing alphaT to 3.003775e-01.
	FillingsUpdate:  mu: +0.109470345  nElectrons: 342.000000  magneticMoment: [ Abs: 0.00027  Tot: -0.00001 ]
	SubspaceRotationAdjust: set factor to 0.201
ElecMinimize: Iter:   4  G: -2598.408845412651772  |grad|_K:  5.573e-06  alpha:  3.355e-01  linmin:  9.016e-06  t[s]:   1467.49
	FillingsUpdate:  mu: +0.112033414  nElectrons: 342.000000  magneticMoment: [ Abs: 0.00023  Tot: -0.00001 ]
	SubspaceRotationAdjust: set factor to 0.146
ElecMinimize: Iter:   5  G: -2598.410557748820338  |grad|_K:  2.835e-06  alpha:  1.070e-01  linmin:  4.802e-06  t[s]:   1556.68
	FillingsUpdate:  mu: +0.110794618  nElectrons: 342.000000  magneticMoment: [ Abs: 0.00018  Tot: -0.00001 ]
	SubspaceRotationAdjust: set factor to 0.12
	SubspaceRotationAdjust: resetting CG because factor has changed by 0.120482
ElecMinimize: 	State modified externally: resetting search direction.
ElecMinimize: Iter:   6  G: -2598.411881649195493  |grad|_K:  2.406e-06  alpha:  3.196e-01
	FillingsUpdate:  mu: +0.112414156  nElectrons: 342.000000  magneticMoment: [ Abs: 0.00017  Tot: -0.00001 ]
	SubspaceRotationAdjust: set factor to 0.113
ElecMinimize: Iter:   7  G: -2598.412548189544850  |grad|_K:  1.132e-06  alpha:  2.232e-01  linmin: -2.332e-06  t[s]:   1783.62
ElecMinimize: 	Predicted alpha/alphaT>3.000000, increasing alphaT to 6.695968e-01.
	FillingsUpdate:  mu: +0.113202034  nElectrons: 342.000000  magneticMoment: [ Abs: 0.00014  Tot: -0.00001 ]
	SubspaceRotationAdjust: set factor to 0.127
ElecMinimize: Iter:   8  G: -2598.413011781510249  |grad|_K:  9.460e-07  alpha:  7.018e-01  linmin:  2.680e-05  t[s]:   1894.90
	FillingsUpdate:  mu: +0.113630124  nElectrons: 342.000000  magneticMoment: [ Abs: 0.00013  Tot: -0.00000 ]
	SubspaceRotationAdjust: set factor to 0.147
ElecMinimize: Iter:   9  G: -2598.413264376365078  |grad|_K:  8.024e-07  alpha:  5.470e-01  linmin:  7.957e-06  t[s]:   1984.08
	FillingsUpdate:  mu: +0.113926689  nElectrons: 342.000000  magneticMoment: [ Abs: 0.00013  Tot: -0.00000 ]
	SubspaceRotationAdjust: set factor to 0.181
ElecMinimize: Iter:  10  G: -2598.413405282999065  |grad|_K:  6.229e-07  alpha:  4.238e-01  linmin:  1.232e-05  t[s]:   2073.42
	FillingsUpdate:  mu: +0.114423461  nElectrons: 342.000000  magneticMoment: [ Abs: 0.00014  Tot: -0.00000 ]
	SubspaceRotationAdjust: set factor to 0.22
ElecMinimize: Iter:  11  G: -2598.413532651483365  |grad|_K:  5.942e-07  alpha:  6.399e-01  linmin:  5.730e-05  t[s]:   2162.67
	FillingsUpdate:  mu: +0.114743064  nElectrons: 342.000000  magneticMoment: [ Abs: 0.00014  Tot: -0.00000 ]
	SubspaceRotationAdjust: set factor to 0.257
ElecMinimize: Iter:  12  G: -2598.413624733114375  |grad|_K:  5.086e-07  alpha:  5.098e-01  linmin:  1.621e-05  t[s]:   2252.08
	FillingsUpdate:  mu: +0.114956563  nElectrons: 342.000000  magneticMoment: [ Abs: 0.00012  Tot: +0.00000 ]
	SubspaceRotationAdjust: set factor to 0.236
ElecMinimize: Iter:  13  G: -2598.413690693007993  |grad|_K:  6.528e-07  alpha:  4.962e-01  linmin:  1.311e-05  t[s]:   2341.74
	FillingsUpdate:  mu: +0.115186434  nElectrons: 342.000000  magneticMoment: [ Abs: 0.00011  Tot: +0.00000 ]
	SubspaceRotationAdjust: set factor to 0.161
ElecMinimize: Iter:  14  G: -2598.413738474550883  |grad|_K:  4.490e-07  alpha:  2.153e-01  linmin: -2.012e-05  t[s]:   2431.01
	FillingsUpdate:  mu: +0.115386917  nElectrons: 342.000000  magneticMoment: [ Abs: 0.00009  Tot: +0.00000 ]
	SubspaceRotationAdjust: set factor to 0.168
ElecMinimize: Iter:  15  G: -2598.413772139235334  |grad|_K:  2.703e-07  alpha:  3.212e-01  linmin:  1.476e-05  t[s]:   2520.15
	FillingsUpdate:  mu: +0.115443114  nElectrons: 342.000000  magneticMoment: [ Abs: 0.00007  Tot: +0.00000 ]
	SubspaceRotationAdjust: set factor to 0.175
ElecMinimize: Iter:  16  G: -2598.413786166408045  |grad|_K:  2.117e-07  alpha:  3.745e-01  linmin:  1.283e-06  t[s]:   2611.08
	FillingsUpdate:  mu: +0.115457502  nElectrons: 342.000000  magneticMoment: [ Abs: 0.00005  Tot: +0.00000 ]
	SubspaceRotationAdjust: set factor to 0.16
ElecMinimize: Iter:  17  G: -2598.413794407422301  |grad|_K:  1.901e-07  alpha:  3.565e-01  linmin: -2.069e-07  t[s]:   2700.56
	FillingsUpdate:  mu: +0.115453529  nElectrons: 342.000000  magneticMoment: [ Abs: 0.00003  Tot: +0.00000 ]
	SubspaceRotationAdjust: set factor to 0.173
ElecMinimize: Iter:  18  G: -2598.413801272511137  |grad|_K:  1.429e-07  alpha:  3.683e-01  linmin:  2.387e-07  t[s]:   2790.02
	FillingsUpdate:  mu: +0.115428013  nElectrons: 342.000000  magneticMoment: [ Abs: 0.00003  Tot: +0.00000 ]
	SubspaceRotationAdjust: set factor to 0.232
ElecMinimize: Iter:  19  G: -2598.413805335187135  |grad|_K:  1.114e-07  alpha:  3.859e-01  linmin:  1.484e-07  t[s]:   2879.28
	FillingsUpdate:  mu: +0.115385027  nElectrons: 342.000000  magneticMoment: [ Abs: 0.00003  Tot: +0.00000 ]
	SubspaceRotationAdjust: set factor to 0.184
ElecMinimize: Iter:  20  G: -2598.413808362835880  |grad|_K:  1.273e-07  alpha:  4.734e-01  linmin:  1.239e-06  t[s]:   2968.56
	FillingsUpdate:  mu: +0.115334117  nElectrons: 342.000000  magneticMoment: [ Abs: 0.00004  Tot: +0.00000 ]
	SubspaceRotationAdjust: set factor to 0.186
ElecMinimize: Iter:  21  G: -2598.413810417695004  |grad|_K:  1.010e-07  alpha:  2.457e-01  linmin: -6.548e-07  t[s]:   3057.65
	FillingsUpdate:  mu: +0.115252375  nElectrons: 342.000000  magneticMoment: [ Abs: 0.00004  Tot: +0.00000 ]
	SubspaceRotationAdjust: set factor to 0.241
ElecMinimize: Iter:  22  G: -2598.413812802548819  |grad|_K:  9.157e-08  alpha:  4.541e-01  linmin:  4.439e-06  t[s]:   3146.92
	FillingsUpdate:  mu: +0.115199996  nElectrons: 342.000000  magneticMoment: [ Abs: 0.00004  Tot: +0.00000 ]
	SubspaceRotationAdjust: set factor to 0.241
ElecMinimize: Iter:  23  G: -2598.413814626272142  |grad|_K:  1.033e-07  alpha:  4.239e-01  linmin:  1.552e-06  t[s]:   3237.44
	FillingsUpdate:  mu: +0.115177140  nElectrons: 342.000000  magneticMoment: [ Abs: 0.00004  Tot: +0.00000 ]
	SubspaceRotationAdjust: set factor to 0.191
ElecMinimize: Iter:  24  G: -2598.413815899186829  |grad|_K:  8.377e-08  alpha:  2.312e-01  linmin: -6.179e-07  t[s]:   3326.55
	FillingsUpdate:  mu: +0.115155487  nElectrons: 342.000000  magneticMoment: [ Abs: 0.00004  Tot: +0.00000 ]
	SubspaceRotationAdjust: set factor to 0.227
ElecMinimize: Iter:  25  G: -2598.413817097460196  |grad|_K:  5.715e-08  alpha:  3.311e-01  linmin:  1.720e-06  t[s]:   3415.92
	FillingsUpdate:  mu: +0.115127655  nElectrons: 342.000000  magneticMoment: [ Abs: 0.00003  Tot: -0.00000 ]
	SubspaceRotationAdjust: set factor to 0.238
ElecMinimize: Iter:  26  G: -2598.413817752781142  |grad|_K:  5.390e-08  alpha:  3.902e-01  linmin:  1.601e-08  t[s]:   3505.97
	FillingsUpdate:  mu: +0.115124262  nElectrons: 342.000000  magneticMoment: [ Abs: 0.00002  Tot: -0.00000 ]
	SubspaceRotationAdjust: set factor to 0.209
ElecMinimize: Iter:  27  G: -2598.413818155400804  |grad|_K:  5.068e-08  alpha:  2.688e-01  linmin: -1.349e-07  t[s]:   3595.25
	FillingsUpdate:  mu: +0.115139762  nElectrons: 342.000000  magneticMoment: [ Abs: 0.00002  Tot: -0.00000 ]
	SubspaceRotationAdjust: set factor to 0.249
ElecMinimize: Iter:  28  G: -2598.413818584601358  |grad|_K:  3.714e-08  alpha:  3.242e-01  linmin:  6.316e-07  t[s]:   3684.64
	FillingsUpdate:  mu: +0.115145831  nElectrons: 342.000000  magneticMoment: [ Abs: 0.00002  Tot: -0.00000 ]
	SubspaceRotationAdjust: set factor to 0.31
ElecMinimize: Iter:  29  G: -2598.413818875521883  |grad|_K:  3.160e-08  alpha:  4.091e-01  linmin: -7.007e-08  t[s]:   3774.47
	FillingsUpdate:  mu: +0.115146452  nElectrons: 342.000000  magneticMoment: [ Abs: 0.00002  Tot: -0.00000 ]
	SubspaceRotationAdjust: set factor to 0.242
ElecMinimize: Iter:  30  G: -2598.413819057226192  |grad|_K:  3.608e-08  alpha:  3.532e-01  linmin:  3.881e-07  t[s]:   3863.79
	FillingsUpdate:  mu: +0.115154529  nElectrons: 342.000000  magneticMoment: [ Abs: 0.00002  Tot: -0.00000 ]
	SubspaceRotationAdjust: set factor to 0.238
ElecMinimize: Iter:  31  G: -2598.413819182079351  |grad|_K:  2.689e-08  alpha:  1.853e-01  linmin: -9.482e-08  t[s]:   3952.86
	FillingsUpdate:  mu: +0.115177700  nElectrons: 342.000000  magneticMoment: [ Abs: 0.00002  Tot: -0.00000 ]
	SubspaceRotationAdjust: set factor to 0.317
ElecMinimize: Iter:  32  G: -2598.413819332184630  |grad|_K:  2.295e-08  alpha:  4.028e-01  linmin: -1.094e-07  t[s]:   4041.99
	FillingsUpdate:  mu: +0.115182105  nElectrons: 342.000000  magneticMoment: [ Abs: 0.00002  Tot: -0.00000 ]
	SubspaceRotationAdjust: set factor to 0.294
ElecMinimize: Iter:  33  G: -2598.413819424280518  |grad|_K:  2.544e-08  alpha:  3.389e-01  linmin:  3.934e-07  t[s]:   4132.32
	FillingsUpdate:  mu: +0.115181285  nElectrons: 342.000000  magneticMoment: [ Abs: 0.00001  Tot: -0.00000 ]
	SubspaceRotationAdjust: set factor to 0.237
ElecMinimize: Iter:  34  G: -2598.413819482786494  |grad|_K:  2.072e-08  alpha:  1.755e-01  linmin:  1.461e-07  t[s]:   4221.60
ElecMinimize: Converged (|Delta G|<1.000000e-07 for 2 iters).
Setting wave functions to eigenvectors of Hamiltonian
Converging empty states (this may take a while): |deigs|: 1.199e-02
Vacuum energy after initial minimize, F = -2598.413819482786494

Shifting auxilliary hamiltonian by -0.286481 to set nElectrons=342.000000

-------- Electronic minimization -----------
	Linear fluid (dielectric constant: 78.4, screening length: 8.12261 Bohr) occupying 0.545449 of unit cell:	Completed after 22 iterations at t[s]:   4572.51
	FillingsUpdate:  mu: -0.171300000  nElectrons: 342.000000  magneticMoment: [ Abs: 0.00000  Tot: -0.00000 ]
ElecMinimize: Iter:   0  G: -2598.414819908856771  |grad|_K:  4.082e-06  alpha:  1.000e+00
	Linear fluid (dielectric constant: 78.4, screening length: 8.12261 Bohr) occupying 0.547679 of unit cell:	Completed after 24 iterations at t[s]:   4647.65
	Linear fluid (dielectric constant: 78.4, screening length: 8.12261 Bohr) occupying 0.545658 of unit cell:	Completed after 23 iterations at t[s]:   4675.06
	FillingsUpdate:  mu: -0.171300000  nElectrons: 341.927156  magneticMoment: [ Abs: 0.00000  Tot: -0.00000 ]
	SubspaceRotationAdjust: set factor to 0.138
ElecMinimize: Iter:   1  G: -2598.415245066196803  |grad|_K:  3.301e-06  alpha:  8.825e-02  linmin:  1.852e-02  t[s]:   4712.59
	Linear fluid (dielectric constant: 78.4, screening length: 8.12261 Bohr) occupying 0.545979 of unit cell:	Completed after 15 iterations at t[s]:   4744.86
ElecMinimize: 	Predicted alpha/alphaT>3.000000, increasing alphaT to 2.647644e-01.
	Linear fluid (dielectric constant: 78.4, screening length: 8.12261 Bohr) occupying 0.546599 of unit cell:	Completed after 16 iterations at t[s]:   4770.13
	Linear fluid (dielectric constant: 78.4, screening length: 8.12261 Bohr) occupying 0.546983 of unit cell:	Completed after 15 iterations at t[s]:   4795.25
	FillingsUpdate:  mu: -0.171300000  nElectrons: 341.883592  magneticMoment: [ Abs: 0.00000  Tot: -0.00000 ]
	SubspaceRotationAdjust: set factor to 0.0676
ElecMinimize: Iter:   2  G: -2598.416498266986764  |grad|_K:  1.775e-06  alpha:  3.779e-01  linmin:  2.069e-04  t[s]:   4832.51
	Linear fluid (dielectric constant: 78.4, screening length: 8.12261 Bohr) occupying 0.547735 of unit cell:	Completed after 17 iterations at t[s]:   4864.93
	Linear fluid (dielectric constant: 78.4, screening length: 8.12261 Bohr) occupying 0.547369 of unit cell:	Completed after 15 iterations at t[s]:   4890.18
	FillingsUpdate:  mu: -0.171300000  nElectrons: 341.843260  magneticMoment: [ Abs: 0.00000  Tot: -0.00000 ]
	SubspaceRotationAdjust: set factor to 0.0361
ElecMinimize: Iter:   3  G: -2598.416802456398273  |grad|_K:  1.078e-06  alpha:  1.923e-01  linmin:  5.404e-04  t[s]:   4927.53
	Linear fluid (dielectric constant: 78.4, screening length: 8.12261 Bohr) occupying 0.547625 of unit cell:	Completed after 15 iterations at t[s]:   4960.48
ElecMinimize: 	Predicted alpha/alphaT>3.000000, increasing alphaT to 5.767780e-01.
	Linear fluid (dielectric constant: 78.4, screening length: 8.12261 Bohr) occupying 0.548131 of unit cell:	Completed after 15 iterations at t[s]:   4985.68
	Linear fluid (dielectric constant: 78.4, screening length: 8.12261 Bohr) occupying 0.548457 of unit cell:	Completed after 15 iterations at t[s]:   5010.92
	FillingsUpdate:  mu: -0.171300000  nElectrons: 341.840638  magneticMoment: [ Abs: 0.00000  Tot: -0.00000 ]
	SubspaceRotationAdjust: set factor to 0.0327
ElecMinimize: Iter:   4  G: -2598.417294504326946  |grad|_K:  9.316e-07  alpha:  8.278e-01  linmin: -1.533e-04  t[s]:   5048.46
	Linear fluid (dielectric constant: 78.4, screening length: 8.12261 Bohr) occupying 0.549532 of unit cell:	Completed after 16 iterations at t[s]:   5080.79
	Linear fluid (dielectric constant: 78.4, screening length: 8.12261 Bohr) occupying 0.549263 of unit cell:	Completed after 12 iterations at t[s]:   5105.86
	FillingsUpdate:  mu: -0.171300000  nElectrons: 341.827131  magneticMoment: [ Abs: 0.00000  Tot: -0.00000 ]
	SubspaceRotationAdjust: set factor to 0.0387
ElecMinimize: Iter:   5  G: -2598.417572931067298  |grad|_K:  9.256e-07  alpha:  6.185e-01  linmin: -7.229e-06  t[s]:   5143.59
	Linear fluid (dielectric constant: 78.4, screening length: 8.12261 Bohr) occupying 0.550157 of unit cell:	Completed after 15 iterations at t[s]:   5175.73
	Linear fluid (dielectric constant: 78.4, screening length: 8.12261 Bohr) occupying 0.549962 of unit cell:	Completed after 12 iterations at t[s]:   5200.69
	FillingsUpdate:  mu: -0.171300000  nElectrons: 341.803242  magneticMoment: [ Abs: 0.00000  Tot: -0.00000 ]
	SubspaceRotationAdjust: set factor to 0.0404
ElecMinimize: Iter:   6  G: -2598.417785416647348  |grad|_K:  7.719e-07  alpha:  4.815e-01  linmin: -2.906e-05  t[s]:   5238.35
	Linear fluid (dielectric constant: 78.4, screening length: 8.12261 Bohr) occupying 0.550483 of unit cell:	Completed after 13 iterations at t[s]:   5271.11
	Linear fluid (dielectric constant: 78.4, screening length: 8.12261 Bohr) occupying 0.550585 of unit cell:	Completed after 9 iterations at t[s]:   5295.69
	FillingsUpdate:  mu: -0.171300000  nElectrons: 341.784833  magneticMoment: [ Abs: 0.00000  Tot: -0.00000 ]
	SubspaceRotationAdjust: set factor to 0.0464
ElecMinimize: Iter:   7  G: -2598.417963330804923  |grad|_K:  6.991e-07  alpha:  5.777e-01  linmin: -2.974e-05  t[s]:   5333.11
	Linear fluid (dielectric constant: 78.4, screening length: 8.12261 Bohr) occupying 0.551095 of unit cell:	Completed after 13 iterations at t[s]:   5365.09
	Linear fluid (dielectric constant: 78.4, screening length: 8.12261 Bohr) occupying 0.551104 of unit cell:	Completed after 2 iterations at t[s]:   5388.68
	FillingsUpdate:  mu: -0.171300000  nElectrons: 341.778784  magneticMoment: [ Abs: 0.00000  Tot: -0.00000 ]
	SubspaceRotationAdjust: set factor to 0.0459
ElecMinimize: Iter:   8  G: -2598.418111889096508  |grad|_K:  6.510e-07  alpha:  5.882e-01  linmin: -5.269e-05  t[s]:   5426.23
	Linear fluid (dielectric constant: 78.4, screening length: 8.12261 Bohr) occupying 0.551554 of unit cell:	Completed after 14 iterations at t[s]:   5458.31
	Linear fluid (dielectric constant: 78.4, screening length: 8.12261 Bohr) occupying 0.551602 of unit cell:	Completed after 9 iterations at t[s]:   5482.88
	FillingsUpdate:  mu: -0.171300000  nElectrons: 341.762049  magneticMoment: [ Abs: 0.00000  Tot: -0.00000 ]
	SubspaceRotationAdjust: set factor to 0.0492
ElecMinimize: Iter:   9  G: -2598.418255361386400  |grad|_K:  5.958e-07  alpha:  6.541e-01  linmin:  1.009e-05  t[s]:   5520.65
	Linear fluid (dielectric constant: 78.4, screening length: 8.12261 Bohr) occupying 0.552029 of unit cell:	Completed after 12 iterations at t[s]:   5552.36
	Linear fluid (dielectric constant: 78.4, screening length: 8.12261 Bohr) occupying 0.552028 of unit cell:	Completed after 0 iterations at t[s]:   5576.52
	FillingsUpdate:  mu: -0.171300000  nElectrons: 341.750306  magneticMoment: [ Abs: 0.00000  Tot: -0.00000 ]
	SubspaceRotationAdjust: set factor to 0.0545
ElecMinimize: Iter:  10  G: -2598.418374738417242  |grad|_K:  5.594e-07  alpha:  6.523e-01  linmin: -5.049e-06  t[s]:   5613.96
	Linear fluid (dielectric constant: 78.4, screening length: 8.12261 Bohr) occupying 0.552448 of unit cell:	Completed after 13 iterations at t[s]:   5645.80
	Linear fluid (dielectric constant: 78.4, screening length: 8.12261 Bohr) occupying 0.552380 of unit cell:	Completed after 9 iterations at t[s]:   5670.41
	FillingsUpdate:  mu: -0.171300000  nElectrons: 341.746440  magneticMoment: [ Abs: 0.00000  Tot: -0.00000 ]
	SubspaceRotationAdjust: set factor to 0.0558
ElecMinimize: Iter:  11  G: -2598.418462417823321  |grad|_K:  4.854e-07  alpha:  5.433e-01  linmin: -1.471e-05  t[s]:   5708.09
	Linear fluid (dielectric constant: 78.4, screening length: 8.12261 Bohr) occupying 0.552702 of unit cell:	Completed after 13 iterations at t[s]:   5740.12
	Linear fluid (dielectric constant: 78.4, screening length: 8.12261 Bohr) occupying 0.552686 of unit cell:	Completed after 2 iterations at t[s]:   5763.91
	FillingsUpdate:  mu: -0.171300000  nElectrons: 341.737823  magneticMoment: [ Abs: 0.00000  Tot: -0.00000 ]
	SubspaceRotationAdjust: set factor to 0.0595
ElecMinimize: Iter:  12  G: -2598.418525273676551  |grad|_K:  3.987e-07  alpha:  5.164e-01  linmin:  1.730e-05  t[s]:   5801.54
	Linear fluid (dielectric constant: 78.4, screening length: 8.12261 Bohr) occupying 0.552942 of unit cell:	Completed after 10 iterations at t[s]:   5833.06
	Linear fluid (dielectric constant: 78.4, screening length: 8.12261 Bohr) occupying 0.552946 of unit cell:	Completed after 1 iterations at t[s]:   5857.47
	FillingsUpdate:  mu: -0.171300000  nElectrons: 341.733470  magneticMoment: [ Abs: 0.00000  Tot: -0.00000 ]
	SubspaceRotationAdjust: set factor to 0.0662
ElecMinimize: Iter:  13  G: -2598.418568301234700  |grad|_K:  3.334e-07  alpha:  5.253e-01  linmin: -1.982e-05  t[s]:   5895.09
	Linear fluid (dielectric constant: 78.4, screening length: 8.12261 Bohr) occupying 0.553168 of unit cell:	Completed after 11 iterations at t[s]:   5926.78
	Linear fluid (dielectric constant: 78.4, screening length: 8.12261 Bohr) occupying 0.553170 of unit cell:	Completed after 0 iterations at t[s]:   5950.31
	FillingsUpdate:  mu: -0.171300000  nElectrons: 341.731874  magneticMoment: [ Abs: 0.00000  Tot: -0.00000 ]
	SubspaceRotationAdjust: set factor to 0.071
ElecMinimize: Iter:  14  G: -2598.418598775664123  |grad|_K:  2.768e-07  alpha:  5.306e-01  linmin: -2.529e-05  t[s]:   5988.05
	Linear fluid (dielectric constant: 78.4, screening length: 8.12261 Bohr) occupying 0.553357 of unit cell:	Completed after 12 iterations at t[s]:   6019.70
	Linear fluid (dielectric constant: 78.4, screening length: 8.12261 Bohr) occupying 0.553359 of unit cell:	Completed after 0 iterations at t[s]:   6043.13
	FillingsUpdate:  mu: -0.171300000  nElectrons: 341.726082  magneticMoment: [ Abs: 0.00000  Tot: -0.00000 ]
	SubspaceRotationAdjust: set factor to 0.0701
ElecMinimize: Iter:  15  G: -2598.418619983164263  |grad|_K:  2.451e-07  alpha:  5.357e-01  linmin: -1.017e-05  t[s]:   6080.93
	Linear fluid (dielectric constant: 78.4, screening length: 8.12261 Bohr) occupying 0.553531 of unit cell:	Completed after 11 iterations at t[s]:   6112.54
	Linear fluid (dielectric constant: 78.4, screening length: 8.12261 Bohr) occupying 0.553526 of unit cell:	Completed after 2 iterations at t[s]:   6136.07
	FillingsUpdate:  mu: -0.171300000  nElectrons: 341.725917  magneticMoment: [ Abs: 0.00000  Tot: -0.00000 ]
	SubspaceRotationAdjust: set factor to 0.0685
ElecMinimize: Iter:  16  G: -2598.418636058943775  |grad|_K:  2.136e-07  alpha:  5.182e-01  linmin:  4.421e-05  t[s]:   6173.98
	Linear fluid (dielectric constant: 78.4, screening length: 8.12261 Bohr) occupying 0.553669 of unit cell:	Completed after 12 iterations at t[s]:   6205.64
	Linear fluid (dielectric constant: 78.4, screening length: 8.12261 Bohr) occupying 0.553670 of unit cell:	Completed after 0 iterations at t[s]:   6229.02
	FillingsUpdate:  mu: -0.171300000  nElectrons: 341.721877  magneticMoment: [ Abs: 0.00000  Tot: -0.00000 ]
	SubspaceRotationAdjust: set factor to 0.0671
ElecMinimize: Iter:  17  G: -2598.418648349219438  |grad|_K:  1.810e-07  alpha:  5.241e-01  linmin: -5.407e-05  t[s]:   6266.50
	Linear fluid (dielectric constant: 78.4, screening length: 8.12261 Bohr) occupying 0.553784 of unit cell:	Completed after 10 iterations at t[s]:   6298.27
	Linear fluid (dielectric constant: 78.4, screening length: 8.12261 Bohr) occupying 0.553783 of unit cell:	Completed after 0 iterations at t[s]:   6321.65
	FillingsUpdate:  mu: -0.171300000  nElectrons: 341.721606  magneticMoment: [ Abs: 0.00000  Tot: -0.00000 ]
	SubspaceRotationAdjust: set factor to 0.0683
ElecMinimize: Iter:  18  G: -2598.418657200771577  |grad|_K:  1.551e-07  alpha:  5.216e-01  linmin:  2.121e-05  t[s]:   6359.12
	Linear fluid (dielectric constant: 78.4, screening length: 8.12261 Bohr) occupying 0.553874 of unit cell:	Completed after 10 iterations at t[s]:   6390.66
	Linear fluid (dielectric constant: 78.4, screening length: 8.12261 Bohr) occupying 0.553868 of unit cell:	Completed after 2 iterations at t[s]:   6414.47
	FillingsUpdate:  mu: -0.171300000  nElectrons: 341.719621  magneticMoment: [ Abs: 0.00000  Tot: -0.00000 ]
	SubspaceRotationAdjust: set factor to 0.0732
ElecMinimize: Iter:  19  G: -2598.418663251795351  |grad|_K:  1.241e-07  alpha:  4.884e-01  linmin:  1.019e-05  t[s]:   6451.93
	Linear fluid (dielectric constant: 78.4, screening length: 8.12261 Bohr) occupying 0.553927 of unit cell:	Completed after 3 iterations at t[s]:   6483.46
	Linear fluid (dielectric constant: 78.4, screening length: 8.12261 Bohr) occupying 0.553931 of unit cell:	Completed after 0 iterations at t[s]:   6506.89
	FillingsUpdate:  mu: -0.171300000  nElectrons: 341.718597  magneticMoment: [ Abs: 0.00000  Tot: -0.00000 ]
	SubspaceRotationAdjust: set factor to 0.0818
ElecMinimize: Iter:  20  G: -2598.418667379732142  |grad|_K:  9.666e-08  alpha:  5.198e-01  linmin: -9.183e-05  t[s]:   6544.43
	Linear fluid (dielectric constant: 78.4, screening length: 8.12261 Bohr) occupying 0.553976 of unit cell:	Completed after 9 iterations at t[s]:   6575.78
	Linear fluid (dielectric constant: 78.4, screening length: 8.12261 Bohr) occupying 0.553978 of unit cell:	Completed after 0 iterations at t[s]:   6599.10
	FillingsUpdate:  mu: -0.171300000  nElectrons: 341.718140  magneticMoment: [ Abs: 0.00000  Tot: -0.00000 ]
	SubspaceRotationAdjust: set factor to 0.0874
ElecMinimize: Iter:  21  G: -2598.418670010426467  |grad|_K:  8.123e-08  alpha:  5.420e-01  linmin: -1.590e-04  t[s]:   6636.58
	Linear fluid (dielectric constant: 78.4, screening length: 8.12261 Bohr) occupying 0.554020 of unit cell:	Completed after 10 iterations at t[s]:   6668.49
	Linear fluid (dielectric constant: 78.4, screening length: 8.12261 Bohr) occupying 0.554010 of unit cell:	Completed after 8 iterations at t[s]:   6693.01
	FillingsUpdate:  mu: -0.171300000  nElectrons: 341.716390  magneticMoment: [ Abs: 0.00000  Tot: -0.00000 ]
	SubspaceRotationAdjust: set factor to 0.0771
ElecMinimize: Iter:  22  G: -2598.418671450811416  |grad|_K:  7.183e-08  alpha:  4.181e-01  linmin:  8.623e-05  t[s]:   6730.52
	Linear fluid (dielectric constant: 78.4, screening length: 8.12261 Bohr) occupying 0.554041 of unit cell:	Completed after 10 iterations at t[s]:   6762.79
	Linear fluid (dielectric constant: 78.4, screening length: 8.12261 Bohr) occupying 0.554039 of unit cell:	Completed after 0 iterations at t[s]:   6786.19
	FillingsUpdate:  mu: -0.171300000  nElectrons: 341.716766  magneticMoment: [ Abs: 0.00000  Tot: -0.00000 ]
	SubspaceRotationAdjust: set factor to 0.0598
ElecMinimize: Iter:  23  G: -2598.418672492057794  |grad|_K:  6.050e-08  alpha:  3.927e-01  linmin:  3.550e-04  t[s]:   6823.93
	Linear fluid (dielectric constant: 78.4, screening length: 8.12261 Bohr) occupying 0.554065 of unit cell:	Completed after 9 iterations at t[s]:   6855.24
	Linear fluid (dielectric constant: 78.4, screening length: 8.12261 Bohr) occupying 0.554066 of unit cell:	Completed after 0 iterations at t[s]:   6878.61
	FillingsUpdate:  mu: -0.171300000  nElectrons: 341.715636  magneticMoment: [ Abs: 0.00000  Tot: -0.00000 ]
	SubspaceRotationAdjust: set factor to 0.0596
ElecMinimize: Iter:  24  G: -2598.418673243633748  |grad|_K:  4.481e-08  alpha:  4.071e-01  linmin: -4.101e-04  t[s]:   6916.30
	Linear fluid (dielectric constant: 78.4, screening length: 8.12261 Bohr) occupying 0.554085 of unit cell:	Completed after 2 iterations at t[s]:   6946.88
	Linear fluid (dielectric constant: 78.4, screening length: 8.12261 Bohr) occupying 0.554089 of unit cell:	Completed after 0 iterations at t[s]:   6970.51
	FillingsUpdate:  mu: -0.171300000  nElectrons: 341.715107  magneticMoment: [ Abs: 0.00000  Tot: -0.00000 ]
	SubspaceRotationAdjust: set factor to 0.0678
ElecMinimize: Iter:  25  G: -2598.418673771692738  |grad|_K:  3.685e-08  alpha:  4.955e-01  linmin: -1.345e-04  t[s]:   7008.15
	Linear fluid (dielectric constant: 78.4, screening length: 8.12261 Bohr) occupying 0.554108 of unit cell:	Completed after 5 iterations at t[s]:   7039.12
	Linear fluid (dielectric constant: 78.4, screening length: 8.12261 Bohr) occupying 0.554108 of unit cell:	Completed after 0 iterations at t[s]:   7063.07
	FillingsUpdate:  mu: -0.171300000  nElectrons: 341.714983  magneticMoment: [ Abs: 0.00000  Tot: -0.00000 ]
	SubspaceRotationAdjust: set factor to 0.07
ElecMinimize: Iter:  26  G: -2598.418674109828771  |grad|_K:  3.149e-08  alpha:  4.787e-01  linmin:  4.923e-06  t[s]:   7100.79
	Linear fluid (dielectric constant: 78.4, screening length: 8.12261 Bohr) occupying 0.554125 of unit cell:	Completed after 6 iterations at t[s]:   7131.92
	Linear fluid (dielectric constant: 78.4, screening length: 8.12261 Bohr) occupying 0.554126 of unit cell:	Completed after 0 iterations at t[s]:   7155.39
	FillingsUpdate:  mu: -0.171300000  nElectrons: 341.714330  magneticMoment: [ Abs: 0.00000  Tot: -0.00000 ]
	SubspaceRotationAdjust: set factor to 0.0709
ElecMinimize: Iter:  27  G: -2598.418674360721070  |grad|_K:  2.785e-08  alpha:  4.915e-01  linmin: -1.726e-04  t[s]:   7193.01
	Linear fluid (dielectric constant: 78.4, screening length: 8.12261 Bohr) occupying 0.554142 of unit cell:	Completed after 2 iterations at t[s]:   7223.82
	Linear fluid (dielectric constant: 78.4, screening length: 8.12261 Bohr) occupying 0.554142 of unit cell:	Completed after 0 iterations at t[s]:   7247.16
	FillingsUpdate:  mu: -0.171300000  nElectrons: 341.714121  magneticMoment: [ Abs: 0.00000  Tot: -0.00000 ]
	SubspaceRotationAdjust: set factor to 0.0812
ElecMinimize: Iter:  28  G: -2598.418674557364284  |grad|_K:  2.612e-08  alpha:  4.842e-01  linmin: -1.498e-05  t[s]:   7284.64
	Linear fluid (dielectric constant: 78.4, screening length: 8.12261 Bohr) occupying 0.554159 of unit cell:	Completed after 6 iterations at t[s]:   7315.73
	Linear fluid (dielectric constant: 78.4, screening length: 8.12261 Bohr) occupying 0.554157 of unit cell:	Completed after 0 iterations at t[s]:   7339.17
	FillingsUpdate:  mu: -0.171300000  nElectrons: 341.714102  magneticMoment: [ Abs: 0.00000  Tot: -0.00000 ]
	SubspaceRotationAdjust: set factor to 0.0807
ElecMinimize: Iter:  29  G: -2598.418674711801941  |grad|_K:  2.652e-08  alpha:  4.398e-01  linmin:  2.156e-05  t[s]:   7377.56
	Linear fluid (dielectric constant: 78.4, screening length: 8.12261 Bohr) occupying 0.554175 of unit cell:	Completed after 9 iterations at t[s]:   7408.95
	Linear fluid (dielectric constant: 78.4, screening length: 8.12261 Bohr) occupying 0.554170 of unit cell:	Completed after 2 iterations at t[s]:   7432.81
	FillingsUpdate:  mu: -0.171300000  nElectrons: 341.713572  magneticMoment: [ Abs: 0.00000  Tot: -0.00000 ]
	SubspaceRotationAdjust: set factor to 0.0637
ElecMinimize: Iter:  30  G: -2598.418674823260517  |grad|_K:  2.407e-08  alpha:  3.093e-01  linmin:  3.000e-04  t[s]:   7470.48
	Linear fluid (dielectric constant: 78.4, screening length: 8.12261 Bohr) occupying 0.554181 of unit cell:	Completed after 3 iterations at t[s]:   7501.42
	Linear fluid (dielectric constant: 78.4, screening length: 8.12261 Bohr) occupying 0.554183 of unit cell:	Completed after 0 iterations at t[s]:   7524.79
	FillingsUpdate:  mu: -0.171300000  nElectrons: 341.713501  magneticMoment: [ Abs: 0.00000  Tot: -0.00000 ]
	SubspaceRotationAdjust: set factor to 0.0818
ElecMinimize: Iter:  31  G: -2598.418674933086095  |grad|_K:  1.856e-08  alpha:  3.759e-01  linmin: -4.441e-04  t[s]:   7562.30
	Linear fluid (dielectric constant: 78.4, screening length: 8.12261 Bohr) occupying 0.554192 of unit cell:	Completed after 6 iterations at t[s]:   7593.41
	Linear fluid (dielectric constant: 78.4, screening length: 8.12261 Bohr) occupying 0.554190 of unit cell:	Completed after 2 iterations at t[s]:   7617.24
	FillingsUpdate:  mu: -0.171300000  nElectrons: 341.713596  magneticMoment: [ Abs: 0.00000  Tot: -0.00000 ]
	SubspaceRotationAdjust: set factor to 0.0692
ElecMinimize: Iter:  32  G: -2598.418674979655407  |grad|_K:  1.895e-08  alpha:  2.797e-01  linmin: -5.311e-04  t[s]:   7654.74
	Linear fluid (dielectric constant: 78.4, screening length: 8.12261 Bohr) occupying 0.554197 of unit cell:	Completed after 6 iterations at t[s]:   7686.75
	Linear fluid (dielectric constant: 78.4, screening length: 8.12261 Bohr) occupying 0.554195 of unit cell:	Completed after 0 iterations at t[s]:   7710.24
	FillingsUpdate:  mu: -0.171300000  nElectrons: 341.713319  magneticMoment: [ Abs: 0.00000  Tot: -0.00000 ]
	SubspaceRotationAdjust: set factor to 0.0685
ElecMinimize: Iter:  33  G: -2598.418675024690401  |grad|_K:  1.280e-08  alpha:  2.309e-01  linmin:  3.478e-04  t[s]:   7747.94
ElecMinimize: Converged (|Delta G|<1.000000e-07 for 2 iters).
Setting wave functions to eigenvectors of Hamiltonian
Converging empty states (this may take a while): |deigs|: 2.287e-04
Single-point solvation energy estimate, DeltaG = -0.004855541903908

Computing DFT-D3 correction:
# coordination-number Ag 6.867 8.403 5.359 9.200 9.208 9.209 9.203 9.194 6.895 9.194 9.204 6.895 9.209 9.208 9.200 8.403 6.867 5.359
# diagonal-C6 Ag 268.61 268.61 268.61 268.61 268.61 268.61 268.61 268.61 268.61 268.61 268.61 268.61 268.61 268.61 268.61 268.61 268.61 268.61
EvdW_6 =   -0.111205
EvdW_8 =   -0.152109

# Ionic positions in cartesian coordinates:
ion Ag   0.000000000000000   7.227255000000000  67.074583000000004 1
ion Ag   0.000000000000000  14.454525000000000  64.519362999999998 1
ion Ag   5.420447000000000   0.000000000000000  46.632821000000000 1
ion Ag   0.000000000000000   5.420441000000000  61.964142000000002 1
ion Ag   0.000000000000000  12.647711999999999  59.408921999999997 1
ion Ag   5.420447000000000   3.613627000000000  56.853701999999998 1
ion Ag   5.420447000000000  10.840897999999997  54.298482000000007 1
ion Ag   5.420447000000000   1.806814000000000  51.743260999999997 1
ion Ag   5.420447000000000   9.034084000000000  49.188041000000005 1
ion Ag   2.710223000000000   9.937482999999999  63.241787000000002 1
ion Ag   2.710223000000000   0.903415000000000  60.686566999999997 1
ion Ag   2.710223000000000   2.710229000000000  65.797006999999994 1
ion Ag   2.710223000000000   8.130668999999999  58.131346999999998 1
ion Ag   2.710223000000000  15.357924000000001  55.576126000000002 1
ion Ag   2.710223000000000   6.323855999999999  53.020905999999997 1
ion Ag   2.710223000000000  13.551110000000000  50.465617000000002 1
ion Ag   2.710223000000000   4.517042000000000  47.910397000000003 1
ion Ag   2.710223000000000  11.744297000000000  68.352226999999999 1

# Forces in Cartesian coordinates:
force Ag   0.000012596898530  -0.001959794895112   0.002818984564420 1
force Ag   0.000006157224914   0.002436509202077   0.004011567947083 1
force Ag  -0.000003225025102  -0.001815288761559   0.001934239936765 1
force Ag   0.000002838094011  -0.000003618197623  -0.001548005368343 1
force Ag  -0.000000545470689  -0.000154104448002  -0.000692245170605 1
force Ag   0.000000163401126  -0.000012803182280  -0.000127988324885 1
force Ag  -0.000005630620714   0.000954385967242   0.001549249595240 1
force Ag  -0.000007401012628  -0.000740529324202   0.001446661808605 1
force Ag  -0.000006963447804   0.001907721754972  -0.004014283036291 1
force Ag   0.000002653048824   0.000894236183024  -0.001531046421160 1
force Ag   0.000008278592337  -0.000844214642110  -0.001529444110602 1
force Ag   0.000015363986028  -0.001790089058263   0.004119710620040 1
force Ag  -0.000000590733224   0.000039663381957   0.000043884950459 1
force Ag   0.000001973893892   0.000081200342296   0.000795909291624 1
force Ag  -0.000004333817749  -0.000130645208695   0.001567632943270 1
force Ag  -0.000009205327981  -0.002578474906639  -0.004130760079130 1
force Ag   0.000000644435125   0.001854297671566  -0.002481171011660 1
force Ag   0.000002069325200   0.001902109596213  -0.001788225870969 1

# Energy components:
   A_diel =        0.0503723808960054
   Eewald =    19453.1476244056248106
       EH =    21838.2622707906302821
     Eloc =   -44365.8945944577571936
      Enl =       71.0113248954214384
     EvdW =       -0.2633139445008357
      Exc =     -260.8112766233694515
 Exc_core =        3.7470747147398304
       KE =      603.7808906174954018
  MuShift =        0.0159970690863624
-------------------------------------
     Etot =    -2656.9536301517382526
       TS =        0.0005364461962998
-------------------------------------
        F =    -2656.9541665979345453
      muN =      -58.5354915732440446
-------------------------------------
        G =    -2598.4186750246904012


Dumping 'jdft.fillings' ... done
Dumping 'jdft.wfns' ... done
Dumping 'jdft.fluidState' ... done
Dumping 'jdft.ionpos' ... done
Dumping 'jdft.lattice' ... done
Dumping 'jdft.eigenvals' ... done
Dumping 'jdft.eigStats' ... 
	eMin: -3.554542 at state 48 ( [ +0.000000 +0.000000 +0.000000 ] spin -1 )
	HOMO: -0.171337 at state 0 ( [ +0.000000 +0.000000 +0.000000 ] spin 1 )
	mu  : -0.171300
	LUMO: -0.170586 at state 83 ( [ -0.333333 -0.250000 +0.000000 ] spin -1 )
	eMax: +0.166643 at state 74 ( [ +0.500000 +0.500000 +0.000000 ] spin -1 )
	HOMO-LUMO gap: +0.000751
	Optical gap  : +0.003071 at state 90 ( [ -0.166667 +0.500000 +0.000000 ] spin -1 )
Dumping 'jdft.Ecomponents' ... done
IonicMinimize: Iter:   0  G: -2598.418675024690401  |grad|_K:  1.605e-03  t[s]:   8085.38

#--- Lowdin population analysis ---
# oxidation-state Ag +0.042 -0.056 +0.173 -0.005 -0.000 -0.002 -0.004 -0.010 +0.058 -0.010 -0.004 +0.058 -0.002 -0.000 -0.005 -0.056 +0.042 +0.173
# magnetic-moments Ag -0.000 -0.000 -0.000 -0.000 -0.000 -0.000 -0.000 -0.000 -0.000 -0.000 -0.000 -0.000 +0.000 -0.000 -0.000 -0.000 -0.000 -0.000


Computing DFT-D3 correction:
# coordination-number Ag 6.858 8.402 5.362 9.192 9.210 9.213 9.200 9.187 6.891 9.187 9.200 6.891 9.213 9.210 9.193 8.402 6.858 5.361
# diagonal-C6 Ag 268.61 268.61 268.61 268.61 268.61 268.61 268.61 268.61 268.61 268.61 268.61 268.61 268.61 268.61 268.61 268.61 268.61 268.61
EvdW_6 =   -0.111197
EvdW_8 =   -0.152092
Shifting auxilliary hamiltonian by 0.000001 to set nElectrons=341.713319

-------- Electronic minimization -----------
	Linear fluid (dielectric constant: 78.4, screening length: 8.12261 Bohr) occupying 0.554136 of unit cell:	Completed after 9 iterations at t[s]:   8119.55
	FillingsUpdate:  mu: -0.171300000  nElectrons: 341.713319  magneticMoment: [ Abs: 0.00000  Tot: -0.00000 ]
ElecMinimize: Iter:   0  G: -2598.418778777489024  |grad|_K:  1.350e-07  alpha:  1.000e+00
	Linear fluid (dielectric constant: 78.4, screening length: 8.12261 Bohr) occupying 0.554144 of unit cell:	Completed after 13 iterations at t[s]:   8193.44
	Linear fluid (dielectric constant: 78.4, screening length: 8.12261 Bohr) occupying 0.554139 of unit cell:	Completed after 12 iterations at t[s]:   8218.38
	FillingsUpdate:  mu: -0.171300000  nElectrons: 341.711570  magneticMoment: [ Abs: 0.00000  Tot: -0.00000 ]
	SubspaceRotationAdjust: set factor to 0.049
ElecMinimize: Iter:   1  G: -2598.418781867509551  |grad|_K:  1.065e-07  alpha:  3.276e-01  linmin: -3.392e-05  t[s]:   8256.30
	Linear fluid (dielectric constant: 78.4, screening length: 8.12261 Bohr) occupying 0.554142 of unit cell:	Completed after 10 iterations at t[s]:   8288.32
	Linear fluid (dielectric constant: 78.4, screening length: 8.12261 Bohr) occupying 0.554144 of unit cell:	Completed after 10 iterations at t[s]:   8312.99
	FillingsUpdate:  mu: -0.171300000  nElectrons: 341.713657  magneticMoment: [ Abs: 0.00000  Tot: -0.00000 ]
	SubspaceRotationAdjust: set factor to 0.0557
ElecMinimize: Iter:   2  G: -2598.418785266211216  |grad|_K:  9.588e-08  alpha:  5.824e-01  linmin:  1.291e-04  t[s]:   8350.42
	Linear fluid (dielectric constant: 78.4, screening length: 8.12261 Bohr) occupying 0.554150 of unit cell:	Completed after 3 iterations at t[s]:   8381.18
	Linear fluid (dielectric constant: 78.4, screening length: 8.12261 Bohr) occupying 0.554155 of unit cell:	Completed after 5 iterations at t[s]:   8405.34
	FillingsUpdate:  mu: -0.171300000  nElectrons: 341.714497  magneticMoment: [ Abs: 0.00000  Tot: -0.00000 ]
	SubspaceRotationAdjust: set factor to 0.064
ElecMinimize: Iter:   3  G: -2598.418790214544970  |grad|_K:  1.241e-07  alpha:  1.049e+00  linmin:  1.385e-05  t[s]:   8443.04
	Linear fluid (dielectric constant: 78.4, screening length: 8.12261 Bohr) occupying 0.554170 of unit cell:	Completed after 10 iterations at t[s]:   8474.63
	Linear fluid (dielectric constant: 78.4, screening length: 8.12261 Bohr) occupying 0.554164 of unit cell:	Completed after 7 iterations at t[s]:   8499.00
	FillingsUpdate:  mu: -0.171300000  nElectrons: 341.714414  magneticMoment: [ Abs: 0.00000  Tot: -0.00000 ]
	SubspaceRotationAdjust: set factor to 0.0672
ElecMinimize: Iter:   4  G: -2598.418795532044442  |grad|_K:  1.427e-07  alpha:  6.689e-01  linmin:  1.229e-05  t[s]:   8536.58
	Linear fluid (dielectric constant: 78.4, screening length: 8.12261 Bohr) occupying 0.554173 of unit cell:	Completed after 10 iterations at t[s]:   8568.75
	Linear fluid (dielectric constant: 78.4, screening length: 8.12261 Bohr) occupying 0.554171 of unit cell:	Completed after 3 iterations at t[s]:   8592.78
	FillingsUpdate:  mu: -0.171300000  nElectrons: 341.715558  magneticMoment: [ Abs: 0.00000  Tot: -0.00000 ]
	SubspaceRotationAdjust: set factor to 0.068
ElecMinimize: Iter:   5  G: -2598.418801233034628  |grad|_K:  1.207e-07  alpha:  5.433e-01  linmin:  1.489e-05  t[s]:   8630.57
	Linear fluid (dielectric constant: 78.4, screening length: 8.12261 Bohr) occupying 0.554172 of unit cell:	Completed after 10 iterations at t[s]:   8662.25
	Linear fluid (dielectric constant: 78.4, screening length: 8.12261 Bohr) occupying 0.554172 of unit cell:	Completed after 0 iterations at t[s]:   8685.81
	FillingsUpdate:  mu: -0.171300000  nElectrons: 341.714677  magneticMoment: [ Abs: 0.00000  Tot: -0.00000 ]
	SubspaceRotationAdjust: set factor to 0.0666
ElecMinimize: Iter:   6  G: -2598.418805451199205  |grad|_K:  9.184e-08  alpha:  5.615e-01  linmin: -1.414e-04  t[s]:   8723.21
	Linear fluid (dielectric constant: 78.4, screening length: 8.12261 Bohr) occupying 0.554169 of unit cell:	Completed after 10 iterations at t[s]:   8754.82
	Linear fluid (dielectric constant: 78.4, screening length: 8.12261 Bohr) occupying 0.554170 of unit cell:	Completed after 3 iterations at t[s]:   8778.72
	FillingsUpdate:  mu: -0.171300000  nElectrons: 341.715130  magneticMoment: [ Abs: 0.00000  Tot: -0.00000 ]
	SubspaceRotationAdjust: set factor to 0.0631
ElecMinimize: Iter:   7  G: -2598.418807395148633  |grad|_K:  6.697e-08  alpha:  4.415e-01  linmin:  9.384e-05  t[s]:   8816.30
	Linear fluid (dielectric constant: 78.4, screening length: 8.12261 Bohr) occupying 0.554168 of unit cell:	Completed after 9 iterations at t[s]:   8847.83
	Linear fluid (dielectric constant: 78.4, screening length: 8.12261 Bohr) occupying 0.554168 of unit cell:	Completed after 0 iterations at t[s]:   8872.29
	FillingsUpdate:  mu: -0.171300000  nElectrons: 341.714377  magneticMoment: [ Abs: 0.00000  Tot: -0.00000 ]
	SubspaceRotationAdjust: set factor to 0.0561
ElecMinimize: Iter:   8  G: -2598.418808325097416  |grad|_K:  4.697e-08  alpha:  4.046e-01  linmin:  1.345e-04  t[s]:   8909.85
	Linear fluid (dielectric constant: 78.4, screening length: 8.12261 Bohr) occupying 0.554168 of unit cell:	Completed after 8 iterations at t[s]:   8941.08
	Linear fluid (dielectric constant: 78.4, screening length: 8.12261 Bohr) occupying 0.554168 of unit cell:	Completed after 2 iterations at t[s]:   8964.91
	FillingsUpdate:  mu: -0.171300000  nElectrons: 341.714620  magneticMoment: [ Abs: 0.00000  Tot: -0.00000 ]
	SubspaceRotationAdjust: set factor to 0.0512
ElecMinimize: Iter:   9  G: -2598.418808721725782  |grad|_K:  3.178e-08  alpha:  3.535e-01  linmin: -2.461e-04  t[s]:   9002.26
	Linear fluid (dielectric constant: 78.4, screening length: 8.12261 Bohr) occupying 0.554169 of unit cell:	Completed after 2 iterations at t[s]:   9033.13
	Linear fluid (dielectric constant: 78.4, screening length: 8.12261 Bohr) occupying 0.554169 of unit cell:	Completed after 3 iterations at t[s]:   9057.13
	FillingsUpdate:  mu: -0.171300000  nElectrons: 341.714305  magneticMoment: [ Abs: 0.00000  Tot: -0.00000 ]
	SubspaceRotationAdjust: set factor to 0.057
ElecMinimize: Iter:  10  G: -2598.418808952801555  |grad|_K:  2.144e-08  alpha:  4.462e-01  linmin:  2.742e-04  t[s]:   9094.42
	Linear fluid (dielectric constant: 78.4, screening length: 8.12261 Bohr) occupying 0.554171 of unit cell:	Completed after 2 iterations at t[s]:   9125.19
	Linear fluid (dielectric constant: 78.4, screening length: 8.12261 Bohr) occupying 0.554171 of unit cell:	Completed after 0 iterations at t[s]:   9148.67
	FillingsUpdate:  mu: -0.171300000  nElectrons: 341.714114  magneticMoment: [ Abs: 0.00000  Tot: -0.00000 ]
	SubspaceRotationAdjust: set factor to 0.0691
ElecMinimize: Iter:  11  G: -2598.418809066640279  |grad|_K:  1.586e-08  alpha:  4.834e-01  linmin: -7.689e-04  t[s]:   9186.23
	Linear fluid (dielectric constant: 78.4, screening length: 8.12261 Bohr) occupying 0.554172 of unit cell:	Completed after 2 iterations at t[s]:   9217.11
	Linear fluid (dielectric constant: 78.4, screening length: 8.12261 Bohr) occupying 0.554173 of unit cell:	Completed after 0 iterations at t[s]:   9240.64
	FillingsUpdate:  mu: -0.171300000  nElectrons: 341.713997  magneticMoment: [ Abs: 0.00000  Tot: -0.00000 ]
	SubspaceRotationAdjust: set factor to 0.0828
ElecMinimize: Iter:  12  G: -2598.418809136220716  |grad|_K:  1.323e-08  alpha:  5.214e-01  linmin: -6.557e-04  t[s]:   9278.17
	Linear fluid (dielectric constant: 78.4, screening length: 8.12261 Bohr) occupying 0.554175 of unit cell:	Completed after 2 iterations at t[s]:   9308.87
	Linear fluid (dielectric constant: 78.4, screening length: 8.12261 Bohr) occupying 0.554174 of unit cell:	Completed after 0 iterations at t[s]:   9332.33
	FillingsUpdate:  mu: -0.171300000  nElectrons: 341.713845  magneticMoment: [ Abs: 0.00000  Tot: -0.00000 ]
	SubspaceRotationAdjust: set factor to 0.0957
ElecMinimize: Iter:  13  G: -2598.418809183014218  |grad|_K:  1.097e-08  alpha:  5.056e-01  linmin: -8.308e-04  t[s]:   9369.99
ElecMinimize: Converged (|Delta G|<1.000000e-07 for 2 iters).
Setting wave functions to eigenvectors of Hamiltonian
Converging empty states (this may take a while): |deigs|: 6.881e-09

Computing DFT-D3 correction:
# coordination-number Ag 6.858 8.402 5.362 9.192 9.210 9.213 9.200 9.187 6.891 9.187 9.200 6.891 9.213 9.210 9.193 8.402 6.858 5.361
# diagonal-C6 Ag 268.61 268.61 268.61 268.61 268.61 268.61 268.61 268.61 268.61 268.61 268.61 268.61 268.61 268.61 268.61 268.61 268.61 268.61
EvdW_6 =   -0.111197
EvdW_8 =   -0.152092
IonicMinimize: 	Wolfe criterion not satisfied: alpha: 1  (E-E0)/|gdotd0|: -0.964632  gdotd/gdotd0: 0.940317 (taking cubic step)

Computing DFT-D3 correction:
# coordination-number Ag 6.838 8.400 5.367 9.177 9.214 9.221 9.193 9.173 6.882 9.172 9.193 6.882 9.221 9.213 9.178 8.400 6.840 5.365
# diagonal-C6 Ag 268.61 268.61 268.61 268.61 268.61 268.61 268.61 268.61 268.61 268.61 268.61 268.61 268.61 268.61 268.61 268.61 268.61 268.61
EvdW_6 =   -0.111182
EvdW_8 =   -0.152060
Shifting auxilliary hamiltonian by -0.000025 to set nElectrons=341.713845

-------- Electronic minimization -----------
	Linear fluid (dielectric constant: 78.4, screening length: 8.12261 Bohr) occupying 0.554012 of unit cell:	Completed after 14 iterations at t[s]:   9498.78
	FillingsUpdate:  mu: -0.171300000  nElectrons: 341.713845  magneticMoment: [ Abs: 0.00000  Tot: -0.00000 ]
ElecMinimize: Iter:   0  G: -2598.418933019835094  |grad|_K:  2.541e-07  alpha:  1.000e+00
	Linear fluid (dielectric constant: 78.4, screening length: 8.12261 Bohr) occupying 0.554025 of unit cell:	Completed after 14 iterations at t[s]:   9573.09
	Linear fluid (dielectric constant: 78.4, screening length: 8.12261 Bohr) occupying 0.554018 of unit cell:	Completed after 12 iterations at t[s]:   9598.15
	FillingsUpdate:  mu: -0.171300000  nElectrons: 341.710987  magneticMoment: [ Abs: 0.00000  Tot: -0.00000 ]
	SubspaceRotationAdjust: set factor to 0.0629
ElecMinimize: Iter:   1  G: -2598.418947475566256  |grad|_K:  2.776e-07  alpha:  4.341e-01  linmin:  5.000e-06  t[s]:   9635.73
	Linear fluid (dielectric constant: 78.4, screening length: 8.12261 Bohr) occupying 0.554027 of unit cell:	Completed after 13 iterations at t[s]:   9667.77
	Linear fluid (dielectric constant: 78.4, screening length: 8.12261 Bohr) occupying 0.554025 of unit cell:	Completed after 10 iterations at t[s]:   9692.56
	FillingsUpdate:  mu: -0.171300000  nElectrons: 341.716705  magneticMoment: [ Abs: 0.00000  Tot: -0.00000 ]
	SubspaceRotationAdjust: set factor to 0.0565
ElecMinimize: Iter:   2  G: -2598.418961506272353  |grad|_K:  2.254e-07  alpha:  3.531e-01  linmin:  1.051e-05  t[s]:   9729.89
	Linear fluid (dielectric constant: 78.4, screening length: 8.12261 Bohr) occupying 0.554032 of unit cell:	Completed after 6 iterations at t[s]:   9761.30
	Linear fluid (dielectric constant: 78.4, screening length: 8.12261 Bohr) occupying 0.554042 of unit cell:	Completed after 6 iterations at t[s]:   9786.08
	FillingsUpdate:  mu: -0.171300000  nElectrons: 341.718462  magneticMoment: [ Abs: 0.00000  Tot: -0.00000 ]
	SubspaceRotationAdjust: set factor to 0.0679
ElecMinimize: Iter:   3  G: -2598.418983957169530  |grad|_K:  2.864e-07  alpha:  8.565e-01  linmin: -6.863e-07  t[s]:   9823.86
	Linear fluid (dielectric constant: 78.4, screening length: 8.12261 Bohr) occupying 0.554066 of unit cell:	Completed after 11 iterations at t[s]:   9855.56
	Linear fluid (dielectric constant: 78.4, screening length: 8.12261 Bohr) occupying 0.554056 of unit cell:	Completed after 11 iterations at t[s]:   9880.43
	FillingsUpdate:  mu: -0.171300000  nElectrons: 341.716733  magneticMoment: [ Abs: 0.00000  Tot: -0.00000 ]
	SubspaceRotationAdjust: set factor to 0.0667
ElecMinimize: Iter:   4  G: -2598.419004829535425  |grad|_K:  2.800e-07  alpha:  4.912e-01  linmin:  7.513e-06  t[s]:   9918.19
	Linear fluid (dielectric constant: 78.4, screening length: 8.12261 Bohr) occupying 0.554065 of unit cell:	Completed after 12 iterations at t[s]:   9950.02
	Linear fluid (dielectric constant: 78.4, screening length: 8.12261 Bohr) occupying 0.554066 of unit cell:	Completed after 3 iterations at t[s]:   9973.91
	FillingsUpdate:  mu: -0.171300000  nElectrons: 341.719400  magneticMoment: [ Abs: 0.00000  Tot: -0.00000 ]
	SubspaceRotationAdjust: set factor to 0.0638
ElecMinimize: Iter:   5  G: -2598.419026450739693  |grad|_K:  2.284e-07  alpha:  5.346e-01  linmin: -3.135e-05  t[s]:  10011.34
	Linear fluid (dielectric constant: 78.4, screening length: 8.12261 Bohr) occupying 0.554069 of unit cell:	Completed after 11 iterations at t[s]:  10042.94
	Linear fluid (dielectric constant: 78.4, screening length: 8.12261 Bohr) occupying 0.554068 of unit cell:	Completed after 2 iterations at t[s]:  10066.98
	FillingsUpdate:  mu: -0.171300000  nElectrons: 341.717849  magneticMoment: [ Abs: 0.00000  Tot: -0.00000 ]
	SubspaceRotationAdjust: set factor to 0.0653
ElecMinimize: Iter:   6  G: -2598.419039406128377  |grad|_K:  1.826e-07  alpha:  4.800e-01  linmin:  5.237e-05  t[s]:  10104.60
	Linear fluid (dielectric constant: 78.4, screening length: 8.12261 Bohr) occupying 0.554068 of unit cell:	Completed after 3 iterations at t[s]:  10135.44
	Linear fluid (dielectric constant: 78.4, screening length: 8.12261 Bohr) occupying 0.554068 of unit cell:	Completed after 2 iterations at t[s]:  10159.29
	FillingsUpdate:  mu: -0.171300000  nElectrons: 341.717262  magneticMoment: [ Abs: 0.00000  Tot: -0.00000 ]
	SubspaceRotationAdjust: set factor to 0.0703
ElecMinimize: Iter:   7  G: -2598.419046209154658  |grad|_K:  1.230e-07  alpha:  3.973e-01  linmin:  7.365e-06  t[s]:  10196.84
	Linear fluid (dielectric constant: 78.4, screening length: 8.12261 Bohr) occupying 0.554069 of unit cell:	Completed after 5 iterations at t[s]:  10227.80
	Linear fluid (dielectric constant: 78.4, screening length: 8.12261 Bohr) occupying 0.554069 of unit cell:	Completed after 0 iterations at t[s]:  10251.28
	FillingsUpdate:  mu: -0.171300000  nElectrons: 341.717211  magneticMoment: [ Abs: 0.00000  Tot: -0.00000 ]
	SubspaceRotationAdjust: set factor to 0.0753
ElecMinimize: Iter:   8  G: -2598.419049473314772  |grad|_K:  8.631e-08  alpha:  4.185e-01  linmin: -1.082e-04  t[s]:  10288.65
	Linear fluid (dielectric constant: 78.4, screening length: 8.12261 Bohr) occupying 0.554071 of unit cell:	Completed after 3 iterations at t[s]:  10319.34
	Linear fluid (dielectric constant: 78.4, screening length: 8.12261 Bohr) occupying 0.554071 of unit cell:	Completed after 0 iterations at t[s]:  10342.81
	FillingsUpdate:  mu: -0.171300000  nElectrons: 341.716655  magneticMoment: [ Abs: 0.00000  Tot: -0.00000 ]
	SubspaceRotationAdjust: set factor to 0.085
ElecMinimize: Iter:   9  G: -2598.419051068774479  |grad|_K:  5.874e-08  alpha:  4.131e-01  linmin:  1.008e-04  t[s]:  10380.32
	Linear fluid (dielectric constant: 78.4, screening length: 8.12261 Bohr) occupying 0.554074 of unit cell:	Completed after 6 iterations at t[s]:  10411.50
	Linear fluid (dielectric constant: 78.4, screening length: 8.12261 Bohr) occupying 0.554075 of unit cell:	Completed after 0 iterations at t[s]:  10434.93
	FillingsUpdate:  mu: -0.171300000  nElectrons: 341.716015  magneticMoment: [ Abs: 0.00000  Tot: -0.00000 ]
	SubspaceRotationAdjust: set factor to 0.0959
ElecMinimize: Iter:  10  G: -2598.419051865860638  |grad|_K:  4.667e-08  alpha:  4.485e-01  linmin: -5.916e-04  t[s]:  10472.38
	Linear fluid (dielectric constant: 78.4, screening length: 8.12261 Bohr) occupying 0.554079 of unit cell:	Completed after 9 iterations at t[s]:  10503.94
	Linear fluid (dielectric constant: 78.4, screening length: 8.12261 Bohr) occupying 0.554078 of unit cell:	Completed after 1 iterations at t[s]:  10527.77
	FillingsUpdate:  mu: -0.171300000  nElectrons: 341.716246  magneticMoment: [ Abs: 0.00000  Tot: -0.00000 ]
	SubspaceRotationAdjust: set factor to 0.0868
ElecMinimize: Iter:  11  G: -2598.419052291110802  |grad|_K:  4.093e-08  alpha:  3.684e-01  linmin:  5.042e-04  t[s]:  10565.32
	Linear fluid (dielectric constant: 78.4, screening length: 8.12261 Bohr) occupying 0.554083 of unit cell:	Completed after 8 iterations at t[s]:  10596.96
	Linear fluid (dielectric constant: 78.4, screening length: 8.12261 Bohr) occupying 0.554082 of unit cell:	Completed after 0 iterations at t[s]:  10620.77
	FillingsUpdate:  mu: -0.171300000  nElectrons: 341.715464  magneticMoment: [ Abs: 0.00000  Tot: -0.00000 ]
	SubspaceRotationAdjust: set factor to 0.0699
ElecMinimize: Iter:  12  G: -2598.419052565071979  |grad|_K:  3.419e-08  alpha:  3.260e-01  linmin:  1.320e-04  t[s]:  10659.26
	Linear fluid (dielectric constant: 78.4, screening length: 8.12261 Bohr) occupying 0.554086 of unit cell:	Completed after 6 iterations at t[s]:  10690.71
	Linear fluid (dielectric constant: 78.4, screening length: 8.12261 Bohr) occupying 0.554086 of unit cell:	Completed after 0 iterations at t[s]:  10714.19
	FillingsUpdate:  mu: -0.171300000  nElectrons: 341.715469  magneticMoment: [ Abs: 0.00000  Tot: -0.00000 ]
	SubspaceRotationAdjust: set factor to 0.0689
ElecMinimize: Iter:  13  G: -2598.419052757156351  |grad|_K:  2.421e-08  alpha:  3.214e-01  linmin: -8.081e-04  t[s]:  10751.77
	Linear fluid (dielectric constant: 78.4, screening length: 8.12261 Bohr) occupying 0.554088 of unit cell:	Completed after 2 iterations at t[s]:  10782.32
	Linear fluid (dielectric constant: 78.4, screening length: 8.12261 Bohr) occupying 0.554089 of unit cell:	Completed after 0 iterations at t[s]:  10805.67
	FillingsUpdate:  mu: -0.171300000  nElectrons: 341.715277  magneticMoment: [ Abs: 0.00000  Tot: -0.00000 ]
	SubspaceRotationAdjust: set factor to 0.0788
ElecMinimize: Iter:  14  G: -2598.419052899546386  |grad|_K:  1.869e-08  alpha:  4.502e-01  linmin: -3.407e-04  t[s]:  10843.59
	Linear fluid (dielectric constant: 78.4, screening length: 8.12261 Bohr) occupying 0.554092 of unit cell:	Completed after 3 iterations at t[s]:  10874.47
	Linear fluid (dielectric constant: 78.4, screening length: 8.12261 Bohr) occupying 0.554092 of unit cell:	Completed after 0 iterations at t[s]:  10897.87
	FillingsUpdate:  mu: -0.171300000  nElectrons: 341.715018  magneticMoment: [ Abs: 0.00000  Tot: -0.00000 ]
	SubspaceRotationAdjust: set factor to 0.0838
ElecMinimize: Iter:  15  G: -2598.419052975504655  |grad|_K:  1.715e-08  alpha:  4.151e-01  linmin: -3.149e-04  t[s]:  10935.38
	Linear fluid (dielectric constant: 78.4, screening length: 8.12261 Bohr) occupying 0.554094 of unit cell:	Completed after 2 iterations at t[s]:  10966.30
	Linear fluid (dielectric constant: 78.4, screening length: 8.12261 Bohr) occupying 0.554093 of unit cell:	Completed after 1 iterations at t[s]:  10989.93
	FillingsUpdate:  mu: -0.171300000  nElectrons: 341.714910  magneticMoment: [ Abs: 0.00000  Tot: -0.00000 ]
	SubspaceRotationAdjust: set factor to 0.0956
ElecMinimize: Iter:  16  G: -2598.419053023107153  |grad|_K:  1.390e-08  alpha:  3.154e-01  linmin:  2.928e-04  t[s]:  11027.71
ElecMinimize: Converged (|Delta G|<1.000000e-07 for 2 iters).
Setting wave functions to eigenvectors of Hamiltonian
Converging empty states (this may take a while): |deigs|: 1.033e-08

[...]
	Linear fluid (dielectric constant: 78.4, screening length: 8.12261 Bohr) occupying 0.552029 of unit cell:	Completed after 2 iterations at t[s]:  34888.28
	Linear fluid (dielectric constant: 78.4, screening length: 8.12261 Bohr) occupying 0.552029 of unit cell:	Completed after 0 iterations at t[s]:  34911.86
	FillingsUpdate:  mu: -0.171300000  nElectrons: 341.724551  magneticMoment: [ Abs: 0.00000  Tot: +0.00000 ]
	SubspaceRotationAdjust: set factor to 0.0991
ElecMinimize: Iter:  21  G: -2598.420510650152664  |grad|_K:  1.309e-08  alpha:  2.731e-01  linmin: -8.832e-04  t[s]:  34949.50
ElecMinimize: Converged (|Delta G|<1.000000e-07 for 2 iters).
Setting wave functions to eigenvectors of Hamiltonian
Converging empty states (this may take a while): |deigs|: 3.314e-08

Computing DFT-D3 correction:
# coordination-number Ag 6.707 8.366 5.436 8.897 9.116 9.070 9.034 8.964 6.713 8.963 9.027 6.697 9.071 9.115 8.905 8.370 6.701 5.416
# diagonal-C6 Ag 268.61 268.61 268.61 268.61 268.61 268.61 268.61 268.61 268.61 268.61 268.61 268.61 268.61 268.61 268.61 268.61 268.61 268.61
EvdW_6 =   -0.110330
EvdW_8 =   -0.150857

# Ionic positions in cartesian coordinates:
ion Ag   0.000942206145403   7.219117662567497  67.183534907166518 1
ion Ag   0.000999173868020  14.556296801890477  64.609492209386516 1
ion Ag   5.419949405868921  -0.055137604110556  46.671858732334037 1
ion Ag   0.000617291183867   5.392456363524364  62.027367924231825 1
ion Ag   0.000173128287151  12.655488318748247  59.420606378893439 1
ion Ag   5.420314121963735   3.619925861140100  56.834188768872181 1
ion Ag   5.419809483196737  10.833886779405029  54.290557650906827 1
ion Ag   5.419479904607061   1.778251502743879  51.733442394466664 1
ion Ag   5.419519429128777   9.053790661996949  48.959068197231602 1
ion Ag   2.710879326258895   9.966060484522357  63.253243433123252 1
ion Ag   2.710808746052713   0.905375546548526  60.693792208132102 1
ion Ag   2.711549664359684   2.692817755278822  66.032865764416883 1
ion Ag   2.710162891186651   8.119747400407009  58.148351970995080 1
ion Ag   2.709876093975548  15.341668458522911  55.564668240214097 1
ion Ag   2.709316344942754   6.345895442567624  52.951839468080223 1
ion Ag   2.709407411828891  13.451192633451898  50.375653080523833 1
ion Ag   2.708964691017983   4.532897986176211  47.790859208862052 1
ion Ag   2.711472686127212  11.811648944618650  68.323907462162865 1

# Forces in Cartesian coordinates:
force Ag   0.000007734644593   0.000076642912206   0.000152328017639 1
force Ag   0.000009222836929   0.000170124154948   0.000033548553787 1
force Ag  -0.000003446772413  -0.000174265648363   0.000002019344286 1
force Ag   0.000004399913577  -0.000004740223482   0.000082229193588 1
force Ag   0.000001433478745   0.000017615404730   0.000266526977628 1
force Ag  -0.000001284963291   0.000125060365105  -0.000071359156070 1
force Ag  -0.000002337292817  -0.000043183175852  -0.000162399016998 1
force Ag  -0.000005140763301  -0.000032297404667  -0.000242968925617 1
force Ag  -0.000008540923914  -0.000202836790100  -0.000299585104472 1
force Ag   0.000004456077898   0.000150984420272   0.000133905651478 1
force Ag   0.000002053163723   0.000086220387864   0.000136734023315 1
force Ag   0.000003306626377   0.000231428094493   0.000052390702023 1
force Ag   0.000000342989761  -0.000106881362616   0.000083570193703 1
force Ag  -0.000001337596874   0.000129520587070  -0.000151498766916 1
force Ag  -0.000002485534719  -0.000002512410981   0.000012751569778 1
force Ag  -0.000001297076903  -0.000133775568446   0.000041456830889 1
force Ag  -0.000006013007391  -0.000062059090189  -0.000229631102727 1
force Ag   0.000003195828825   0.000279235549749   0.000009722316005 1

# Energy components:
   A_diel =        0.0486822052483575
   Eewald =    19248.5159037264565995
       EH =    21634.2973642254437436
     Eloc =   -43957.2649793776072329
      Enl =       71.0259621951321520
     EvdW =       -0.2611867702190879
      Exc =     -260.7733600408718075
 Exc_core =        3.7470748559488536
       KE =      603.6917508645765338
  MuShift =        0.0153703423496143
-------------------------------------
     Etot =    -2656.9574177735385092
       TS =        0.0005084000445414
-------------------------------------
        F =    -2656.9579261735830187
      muN =      -58.5374155234302620
-------------------------------------
        G =    -2598.4205106501526643


Dumping 'jdft.fillings' ... done
Dumping 'jdft.wfns' ... done
Dumping 'jdft.fluidState' ... done
Dumping 'jdft.ionpos' ... done
Dumping 'jdft.lattice' ... done
Dumping 'jdft.eigenvals' ... done
Dumping 'jdft.eigStats' ... 
	eMin: -3.553654 at state 48 ( [ +0.000000 +0.000000 +0.000000 ] spin -1 )
	HOMO: -0.172100 at state 10 ( [ +0.166667 +0.500000 +0.000000 ] spin 1 )
	mu  : -0.171300
	LUMO: -0.170054 at state 46 ( [ -0.083333 +0.500000 +0.000000 ] spin 1 )
	eMax: +0.165096 at state 26 ( [ +0.500000 +0.500000 +0.000000 ] spin 1 )
	HOMO-LUMO gap: +0.002046
	Optical gap  : +0.002397 at state 10 ( [ +0.166667 +0.500000 +0.000000 ] spin 1 )
Dumping 'jdft.Ecomponents' ... done
IonicMinimize: Iter:   7  G: -2598.420510650152664  |grad|_K:  1.161e-04  alpha:  3.519e-01  linmin:  3.851e-01  t[s]:  35044.01

#--- Lowdin population analysis ---
# oxidation-state Ag +0.041 -0.063 +0.165 +0.001 -0.002 -0.002 -0.003 -0.007 +0.057 -0.007 -0.003 +0.058 -0.002 -0.001 +0.001 -0.062 +0.042 +0.166
# magnetic-moments Ag +0.000 +0.000 -0.000 -0.000 +0.000 -0.000 +0.000 -0.000 -0.000 +0.000 -0.000 -0.000 +0.000 +0.000 -0.000 +0.000 +0.000 +0.000


Computing DFT-D3 correction:
# coordination-number Ag 6.699 8.370 5.436 8.894 9.103 9.068 9.020 8.960 6.702 8.959 9.022 6.696 9.064 9.100 8.899 8.372 6.695 5.413
# diagonal-C6 Ag 268.61 268.61 268.61 268.61 268.61 268.61 268.61 268.61 268.61 268.61 268.61 268.61 268.61 268.61 268.61 268.61 268.61 268.61
EvdW_6 =   -0.110284
EvdW_8 =   -0.150804
Shifting auxilliary hamiltonian by 0.000048 to set nElectrons=341.724551

-------- Electronic minimization -----------
	Linear fluid (dielectric constant: 78.4, screening length: 8.12261 Bohr) occupying 0.551907 of unit cell:	Completed after 14 iterations at t[s]:  35079.17
	FillingsUpdate:  mu: -0.171300000  nElectrons: 341.724551  magneticMoment: [ Abs: 0.00000  Tot: +0.00000 ]
ElecMinimize: Iter:   0  G: -2598.420462004936326  |grad|_K:  2.180e-07  alpha:  1.000e+00
	Linear fluid (dielectric constant: 78.4, screening length: 8.12261 Bohr) occupying 0.551913 of unit cell:	Completed after 13 iterations at t[s]:  35153.65
	Linear fluid (dielectric constant: 78.4, screening length: 8.12261 Bohr) occupying 0.551910 of unit cell:	Completed after 11 iterations at t[s]:  35178.59
	FillingsUpdate:  mu: -0.171300000  nElectrons: 341.722846  magneticMoment: [ Abs: 0.00000  Tot: -0.00000 ]
	SubspaceRotationAdjust: set factor to 0.085
ElecMinimize: Iter:   1  G: -2598.420473816051071  |grad|_K:  1.737e-07  alpha:  4.821e-01  linmin:  8.002e-06  t[s]:  35216.29
	Linear fluid (dielectric constant: 78.4, screening length: 8.12261 Bohr) occupying 0.551916 of unit cell:	Completed after 12 iterations at t[s]:  35248.52
	Linear fluid (dielectric constant: 78.4, screening length: 8.12261 Bohr) occupying 0.551914 of unit cell:	Completed after 10 iterations at t[s]:  35274.21
	FillingsUpdate:  mu: -0.171300000  nElectrons: 341.725621  magneticMoment: [ Abs: 0.00000  Tot: -0.00000 ]
	SubspaceRotationAdjust: set factor to 0.0678
ElecMinimize: Iter:   2  G: -2598.420478832038953  |grad|_K:  1.624e-07  alpha:  3.217e-01  linmin:  4.392e-05  t[s]:  35311.89
	Linear fluid (dielectric constant: 78.4, screening length: 8.12261 Bohr) occupying 0.551917 of unit cell:	Completed after 10 iterations at t[s]:  35343.96
	Linear fluid (dielectric constant: 78.4, screening length: 8.12261 Bohr) occupying 0.551920 of unit cell:	Completed after 10 iterations at t[s]:  35369.12
	FillingsUpdate:  mu: -0.171300000  nElectrons: 341.723640  magneticMoment: [ Abs: 0.00000  Tot: -0.00000 ]
	SubspaceRotationAdjust: set factor to 0.0706
ElecMinimize: Iter:   3  G: -2598.420487896439681  |grad|_K:  1.813e-07  alpha:  6.682e-01  linmin:  3.773e-05  t[s]:  35406.69
	Linear fluid (dielectric constant: 78.4, screening length: 8.12261 Bohr) occupying 0.551926 of unit cell:	Completed after 3 iterations at t[s]:  35437.95
	Linear fluid (dielectric constant: 78.4, screening length: 8.12261 Bohr) occupying 0.551925 of unit cell:	Completed after 2 iterations at t[s]:  35461.94
	FillingsUpdate:  mu: -0.171300000  nElectrons: 341.723528  magneticMoment: [ Abs: 0.00000  Tot: -0.00000 ]
	SubspaceRotationAdjust: set factor to 0.0789
ElecMinimize: Iter:   4  G: -2598.420497939480811  |grad|_K:  1.952e-07  alpha:  5.939e-01  linmin:  1.877e-06  t[s]:  35499.65
	Linear fluid (dielectric constant: 78.4, screening length: 8.12261 Bohr) occupying 0.551926 of unit cell:	Completed after 11 iterations at t[s]:  35531.66
	Linear fluid (dielectric constant: 78.4, screening length: 8.12261 Bohr) occupying 0.551926 of unit cell:	Completed after 7 iterations at t[s]:  35556.18
	FillingsUpdate:  mu: -0.171300000  nElectrons: 341.725570  magneticMoment: [ Abs: 0.00000  Tot: -0.00000 ]
	SubspaceRotationAdjust: set factor to 0.0742
ElecMinimize: Iter:   5  G: -2598.420508044301187  |grad|_K:  1.703e-07  alpha:  5.134e-01  linmin:  5.437e-05  t[s]:  35593.88
	Linear fluid (dielectric constant: 78.4, screening length: 8.12261 Bohr) occupying 0.551920 of unit cell:	Completed after 11 iterations at t[s]:  35625.88
	Linear fluid (dielectric constant: 78.4, screening length: 8.12261 Bohr) occupying 0.551921 of unit cell:	Completed after 9 iterations at t[s]:  35650.75
	FillingsUpdate:  mu: -0.171300000  nElectrons: 341.723517  magneticMoment: [ Abs: 0.00000  Tot: -0.00000 ]
	SubspaceRotationAdjust: set factor to 0.0584
ElecMinimize: Iter:   6  G: -2598.420514243351136  |grad|_K:  1.385e-07  alpha:  4.166e-01  linmin: -3.770e-06  t[s]:  35688.68
	Linear fluid (dielectric constant: 78.4, screening length: 8.12261 Bohr) occupying 0.551916 of unit cell:	Completed after 11 iterations at t[s]:  35720.64
	Linear fluid (dielectric constant: 78.4, screening length: 8.12261 Bohr) occupying 0.551916 of unit cell:	Completed after 2 iterations at t[s]:  35744.60
	FillingsUpdate:  mu: -0.171300000  nElectrons: 341.724748  magneticMoment: [ Abs: 0.00000  Tot: -0.00000 ]
	SubspaceRotationAdjust: set factor to 0.0506
ElecMinimize: Iter:   7  G: -2598.420518000471020  |grad|_K:  9.020e-08  alpha:  3.796e-01  linmin:  9.405e-05  t[s]:  35782.44
	Linear fluid (dielectric constant: 78.4, screening length: 8.12261 Bohr) occupying 0.551912 of unit cell:	Completed after 2 iterations at t[s]:  35813.42
	Linear fluid (dielectric constant: 78.4, screening length: 8.12261 Bohr) occupying 0.551912 of unit cell:	Completed after 0 iterations at t[s]:  35836.96
	FillingsUpdate:  mu: -0.171300000  nElectrons: 341.724660  magneticMoment: [ Abs: 0.00000  Tot: -0.00000 ]
	SubspaceRotationAdjust: set factor to 0.0553
ElecMinimize: Iter:   8  G: -2598.420519606828293  |grad|_K:  6.241e-08  alpha:  3.849e-01  linmin: -1.563e-05  t[s]:  35875.30
	Linear fluid (dielectric constant: 78.4, screening length: 8.12261 Bohr) occupying 0.551910 of unit cell:	Completed after 8 iterations at t[s]:  35907.13
	Linear fluid (dielectric constant: 78.4, screening length: 8.12261 Bohr) occupying 0.551910 of unit cell:	Completed after 0 iterations at t[s]:  35930.91
	FillingsUpdate:  mu: -0.171300000  nElectrons: 341.724218  magneticMoment: [ Abs: 0.00000  Tot: -0.00000 ]
	SubspaceRotationAdjust: set factor to 0.0494
ElecMinimize: Iter:   9  G: -2598.420520329144892  |grad|_K:  3.780e-08  alpha:  3.602e-01  linmin: -2.582e-04  t[s]:  35968.53
	Linear fluid (dielectric constant: 78.4, screening length: 8.12261 Bohr) occupying 0.551910 of unit cell:	Completed after 8 iterations at t[s]:  36000.25
	Linear fluid (dielectric constant: 78.4, screening length: 8.12261 Bohr) occupying 0.551910 of unit cell:	Completed after 0 iterations at t[s]:  36023.94
	FillingsUpdate:  mu: -0.171300000  nElectrons: 341.724525  magneticMoment: [ Abs: 0.00000  Tot: -0.00000 ]
	SubspaceRotationAdjust: set factor to 0.0431
ElecMinimize: Iter:  10  G: -2598.420520604056037  |grad|_K:  2.439e-08  alpha:  3.700e-01  linmin: -1.491e-03  t[s]:  36061.59
	Linear fluid (dielectric constant: 78.4, screening length: 8.12261 Bohr) occupying 0.551911 of unit cell:	Completed after 2 iterations at t[s]:  36092.66
	Linear fluid (dielectric constant: 78.4, screening length: 8.12261 Bohr) occupying 0.551911 of unit cell:	Completed after 0 iterations at t[s]:  36116.40
	FillingsUpdate:  mu: -0.171300000  nElectrons: 341.724460  magneticMoment: [ Abs: 0.00000  Tot: -0.00000 ]
	SubspaceRotationAdjust: set factor to 0.0506
ElecMinimize: Iter:  11  G: -2598.420520722103902  |grad|_K:  1.734e-08  alpha:  3.725e-01  linmin: -1.911e-05  t[s]:  36153.95
	Linear fluid (dielectric constant: 78.4, screening length: 8.12261 Bohr) occupying 0.551911 of unit cell:	Completed after 3 iterations at t[s]:  36185.75
	Linear fluid (dielectric constant: 78.4, screening length: 8.12261 Bohr) occupying 0.551911 of unit cell:	Completed after 0 iterations at t[s]:  36209.43
	FillingsUpdate:  mu: -0.171300000  nElectrons: 341.724333  magneticMoment: [ Abs: 0.00000  Tot: -0.00000 ]
	SubspaceRotationAdjust: set factor to 0.0524
ElecMinimize: Iter:  12  G: -2598.420520774632223  |grad|_K:  1.135e-08  alpha:  3.423e-01  linmin: -5.496e-04  t[s]:  36247.23
	Linear fluid (dielectric constant: 78.4, screening length: 8.12261 Bohr) occupying 0.551911 of unit cell:	Completed after 2 iterations at t[s]:  36278.32
	Linear fluid (dielectric constant: 78.4, screening length: 8.12261 Bohr) occupying 0.551911 of unit cell:	Completed after 0 iterations at t[s]:  36301.94
	FillingsUpdate:  mu: -0.171300000  nElectrons: 341.724348  magneticMoment: [ Abs: 0.00000  Tot: -0.00000 ]
	SubspaceRotationAdjust: set factor to 0.0666
ElecMinimize: Iter:  13  G: -2598.420520803997988  |grad|_K:  8.700e-09  alpha:  4.237e-01  linmin: -4.122e-03  t[s]:  36339.61
ElecMinimize: Converged (|Delta G|<1.000000e-07 for 2 iters).
Setting wave functions to eigenvectors of Hamiltonian
Converging empty states (this may take a while): |deigs|: 3.158e-08

Computing DFT-D3 correction:
# coordination-number Ag 6.699 8.370 5.436 8.894 9.103 9.068 9.020 8.960 6.702 8.959 9.022 6.696 9.064 9.100 8.899 8.372 6.695 5.413
# diagonal-C6 Ag 268.61 268.61 268.61 268.61 268.61 268.61 268.61 268.61 268.61 268.61 268.61 268.61 268.61 268.61 268.61 268.61 268.61 268.61
EvdW_6 =   -0.110284
EvdW_8 =   -0.150804

# Ionic positions in cartesian coordinates:
ion Ag   0.001240308643357   7.222984008193739  67.188366769716794 1
ion Ag   0.001280548353977  14.560740646705611  64.610048013000196 1
ion Ag   5.419799330551846  -0.065386003163118  46.670941849455289 1
ion Ag   0.000771059134421   5.392208765587483  62.031534507074539 1
ion Ag   0.000215102898976  12.656138506113871  59.425433111452527 1
ion Ag   5.420268177063619   3.622891547952407  56.831717905594765 1
ion Ag   5.419710185546715  10.830157323603869  54.289600966511685 1
ion Ag   5.419259218181399   1.776110939982567  51.726117486290420 1
ion Ag   5.419253752369618   9.047415729152380  48.951487396374517 1
ion Ag   2.711032786725921   9.970080927324606  63.257717423050934 1
ion Ag   2.710861721816038   0.908770529621903  60.694529475703455 1
ion Ag   2.711789388857046   2.698184187165706  66.037647202373620 1
ion Ag   2.710168777247970   8.115439354919863  58.151015567269901 1
ion Ag   2.709810880960112  15.343337305430259  55.563190631423609 1
ion Ag   2.709183271459935   6.343612639183599  52.949696311373366 1
ion Ag   2.709313602163518  13.447523835810605  50.378415498389842 1
ion Ag   2.708676815216156   4.528002669278298  47.782351332197464 1
ion Ag   2.711607072809380  11.823168087136347  68.325486552747094 1

# Forces in Cartesian coordinates:
force Ag   0.000006635407788   0.000224331354768   0.000045406393828 1
force Ag   0.000005804720790   0.000223930712856  -0.000063045933985 1
force Ag  -0.000004273159800  -0.000125334194049   0.000002645115072 1
force Ag   0.000003590312970   0.000160043610973   0.000035387757705 1
force Ag   0.000001607779696  -0.000002397631388  -0.000036601041745 1
force Ag  -0.000000656492547  -0.000082997562740  -0.000059546904072 1
force Ag  -0.000001923947836   0.000030563934254   0.000072274820748 1
force Ag  -0.000004398550595   0.000019329668001  -0.000047842598502 1
force Ag  -0.000006773976032  -0.000088823288113   0.000069712422052 1
force Ag   0.000005256408154   0.000008354080659   0.000046324664005 1
force Ag   0.000003046926447   0.000008073055887  -0.000031644329680 1
force Ag   0.000006260739142   0.000192820527144  -0.000088953294089 1
force Ag   0.000000556283441   0.000217076250346   0.000096839605232 1
force Ag  -0.000001850201839  -0.000007222128442  -0.000043418518654 1
force Ag  -0.000002768954808   0.000002238088627  -0.000062801517356 1
force Ag  -0.000003576008099  -0.000272350369570   0.000080052282458 1
force Ag  -0.000005570445072  -0.000102843613671  -0.000136815118218 1
force Ag   0.000003827588201   0.000089541947829  -0.000022792831742 1

# Energy components:
   A_diel =        0.0487215609273122
   Eewald =    19238.9429935899170232
       EH =    21624.7332627820505877
     Eloc =   -43938.1270078586821910
      Enl =       71.0268907789920547
     EvdW =       -0.2610876557121378
      Exc =     -260.7717163819983170
 Exc_core =        3.7470749402074643
       KE =      603.6880953383624728
  MuShift =        0.0153816594667118
-------------------------------------
     Etot =    -2656.9573912464652494
       TS =        0.0005103392356688
-------------------------------------
        F =    -2656.9579015857007107
      muN =      -58.5373807817026943
-------------------------------------
        G =    -2598.4205208039979880


Dumping 'jdft.fillings' ... done
Dumping 'jdft.wfns' ... done
Dumping 'jdft.fluidState' ... done
Dumping 'jdft.ionpos' ... done
Dumping 'jdft.lattice' ... done
Dumping 'jdft.eigenvals' ... done
Dumping 'jdft.eigStats' ... 
	eMin: -3.553588 at state 48 ( [ +0.000000 +0.000000 +0.000000 ] spin -1 )
	HOMO: -0.172054 at state 10 ( [ +0.166667 +0.500000 +0.000000 ] spin 1 )
	mu  : -0.171300
	LUMO: -0.170066 at state 46 ( [ -0.083333 +0.500000 +0.000000 ] spin 1 )
	eMax: +0.165021 at state 74 ( [ +0.500000 +0.500000 +0.000000 ] spin -1 )
	HOMO-LUMO gap: +0.001988
	Optical gap  : +0.002351 at state 90 ( [ -0.166667 +0.500000 +0.000000 ] spin -1 )
Dumping 'jdft.Ecomponents' ... done
IonicMinimize: Iter:   8  G: -2598.420520803997988  |grad|_K:  8.576e-05  alpha:  1.000e+00  linmin: -4.214e-01  t[s]:  36435.43
IonicMinimize: Converged (|grad|_K<1.000000e-04).

#--- Lowdin population analysis ---
# oxidation-state Ag +0.042 -0.063 +0.165 +0.001 -0.001 -0.002 -0.002 -0.007 +0.057 -0.007 -0.003 +0.057 -0.002 -0.001 +0.001 -0.063 +0.042 +0.166
# magnetic-moments Ag +0.000 +0.000 -0.000 -0.000 -0.000 -0.000 +0.000 -0.000 -0.000 -0.000 -0.000 -0.000 -0.000 -0.000 +0.000 +0.000 +0.000 -0.000


Dumping 'jdft.n_up' ... done
Dumping 'jdft.n_dn' ... done
Dumping 'jdft.tau_up' ... done
Dumping 'jdft.tau_dn' ... done
Dumping 'jdft.eigenvals' ... done
Dumping 'jdft.eigStats' ... 
	eMin: -3.553588 at state 48 ( [ +0.000000 +0.000000 +0.000000 ] spin -1 )
	HOMO: -0.172054 at state 10 ( [ +0.166667 +0.500000 +0.000000 ] spin 1 )
	mu  : -0.171300
	LUMO: -0.170066 at state 46 ( [ -0.083333 +0.500000 +0.000000 ] spin 1 )
	eMax: +0.165021 at state 74 ( [ +0.500000 +0.500000 +0.000000 ] spin -1 )
	HOMO-LUMO gap: +0.001988
	Optical gap  : +0.002351 at state 90 ( [ -0.166667 +0.500000 +0.000000 ] spin -1 )
Dumping 'jdft.kPts' ... done
Dumping 'jdft.dosUp' ... done.
Dumping 'jdft.dosDn' ... done.
End date and time: Tue Dec  7 03:27:34 2021  (Duration: 0-10:08:12.44)
Done!
