
*************** JDFTx 1.6.0  ***************

Start date and time: Thu Dec  9 05:46:30 2021
Executable /projects/musgravc/apps/jdftx-1.6.1/build/jdftx with command-line: -i in
Running on hosts (process indices):  shas0119.rc.int.colorado.edu (0-23)
Divided in process groups (process indices):  0 (0)  1 (1)  2 (2)  3 (3)  4 (4)  5 (5)  6 (6)  7 (7)  8 (8)  9 (9)  10 (10)  11 (11)  12 (12)  13 (13)  14 (14)  15 (15)  16 (16)  17 (17)  18 (18)  19 (19)  20 (20)  21 (21)  22 (22)  23 (23)
Resource initialization completed at t[s]:      0.00
Run totals: 24 processes, 24 threads, 0 GPUs


Input parsed successfully to the following command list (including defaults):

basis kpoint-dependent
converge-empty-states yes
coords-type Cartesian
core-overlap-check none
coulomb-interaction Periodic
davidson-band-ratio 1.1
density-of-states Etol 1.000000e-06 Esigma 1.000000e-03 \
		Complete \
	Total \
	OrthoOrbital Pt 1   s \
	OrthoOrbital Pt 1   p \
	OrthoOrbital Pt 1   px \
	OrthoOrbital Pt 1   py \
	OrthoOrbital Pt 1   pz \
	OrthoOrbital Pt 1   d \
	OrthoOrbital Pt 1   dxy \
	OrthoOrbital Pt 1   dyz \
	OrthoOrbital Pt 1   dz2 \
	OrthoOrbital Pt 1   dxz \
	OrthoOrbital Pt 1   dx2-y2 \
	OrthoOrbital Pt 2   s \
	OrthoOrbital Pt 2   p \
	OrthoOrbital Pt 2   px \
	OrthoOrbital Pt 2   py \
	OrthoOrbital Pt 2   pz \
	OrthoOrbital Pt 2   d \
	OrthoOrbital Pt 2   dxy \
	OrthoOrbital Pt 2   dyz \
	OrthoOrbital Pt 2   dz2 \
	OrthoOrbital Pt 2   dxz \
	OrthoOrbital Pt 2   dx2-y2 \
	OrthoOrbital Pt 3   s \
	OrthoOrbital Pt 3   p \
	OrthoOrbital Pt 3   px \
	OrthoOrbital Pt 3   py \
	OrthoOrbital Pt 3   pz \
	OrthoOrbital Pt 3   d \
	OrthoOrbital Pt 3   dxy \
	OrthoOrbital Pt 3   dyz \
	OrthoOrbital Pt 3   dz2 \
	OrthoOrbital Pt 3   dxz \
	OrthoOrbital Pt 3   dx2-y2 \
	OrthoOrbital Pt 4   s \
	OrthoOrbital Pt 4   p \
	OrthoOrbital Pt 4   px \
	OrthoOrbital Pt 4   py \
	OrthoOrbital Pt 4   pz \
	OrthoOrbital Pt 4   d \
	OrthoOrbital Pt 4   dxy \
	OrthoOrbital Pt 4   dyz \
	OrthoOrbital Pt 4   dz2 \
	OrthoOrbital Pt 4   dxz \
	OrthoOrbital Pt 4   dx2-y2 \
	OrthoOrbital Pt 5   s \
	OrthoOrbital Pt 5   p \
	OrthoOrbital Pt 5   px \
	OrthoOrbital Pt 5   py \
	OrthoOrbital Pt 5   pz \
	OrthoOrbital Pt 5   d \
	OrthoOrbital Pt 5   dxy \
	OrthoOrbital Pt 5   dyz \
	OrthoOrbital Pt 5   dz2 \
	OrthoOrbital Pt 5   dxz \
	OrthoOrbital Pt 5   dx2-y2 \
	OrthoOrbital Pt 6   s \
	OrthoOrbital Pt 6   p \
	OrthoOrbital Pt 6   px \
	OrthoOrbital Pt 6   py \
	OrthoOrbital Pt 6   pz \
	OrthoOrbital Pt 6   d \
	OrthoOrbital Pt 6   dxy \
	OrthoOrbital Pt 6   dyz \
	OrthoOrbital Pt 6   dz2 \
	OrthoOrbital Pt 6   dxz \
	OrthoOrbital Pt 6   dx2-y2 \
	OrthoOrbital Pt 7   s \
	OrthoOrbital Pt 7   p \
	OrthoOrbital Pt 7   px \
	OrthoOrbital Pt 7   py \
	OrthoOrbital Pt 7   pz \
	OrthoOrbital Pt 7   d \
	OrthoOrbital Pt 7   dxy \
	OrthoOrbital Pt 7   dyz \
	OrthoOrbital Pt 7   dz2 \
	OrthoOrbital Pt 7   dxz \
	OrthoOrbital Pt 7   dx2-y2 \
	OrthoOrbital Pt 8   s \
	OrthoOrbital Pt 8   p \
	OrthoOrbital Pt 8   px \
	OrthoOrbital Pt 8   py \
	OrthoOrbital Pt 8   pz \
	OrthoOrbital Pt 8   d \
	OrthoOrbital Pt 8   dxy \
	OrthoOrbital Pt 8   dyz \
	OrthoOrbital Pt 8   dz2 \
	OrthoOrbital Pt 8   dxz \
	OrthoOrbital Pt 8   dx2-y2 \
	OrthoOrbital Pt 9   s \
	OrthoOrbital Pt 9   p \
	OrthoOrbital Pt 9   px \
	OrthoOrbital Pt 9   py \
	OrthoOrbital Pt 9   pz \
	OrthoOrbital Pt 9   d \
	OrthoOrbital Pt 9   dxy \
	OrthoOrbital Pt 9   dyz \
	OrthoOrbital Pt 9   dz2 \
	OrthoOrbital Pt 9   dxz \
	OrthoOrbital Pt 9   dx2-y2 \
	OrthoOrbital Pt 10   s \
	OrthoOrbital Pt 10   p \
	OrthoOrbital Pt 10   px \
	OrthoOrbital Pt 10   py \
	OrthoOrbital Pt 10   pz \
	OrthoOrbital Pt 10   d \
	OrthoOrbital Pt 10   dxy \
	OrthoOrbital Pt 10   dyz \
	OrthoOrbital Pt 10   dz2 \
	OrthoOrbital Pt 10   dxz \
	OrthoOrbital Pt 10   dx2-y2 \
	OrthoOrbital Pt 11   s \
	OrthoOrbital Pt 11   p \
	OrthoOrbital Pt 11   px \
	OrthoOrbital Pt 11   py \
	OrthoOrbital Pt 11   pz \
	OrthoOrbital Pt 11   d \
	OrthoOrbital Pt 11   dxy \
	OrthoOrbital Pt 11   dyz \
	OrthoOrbital Pt 11   dz2 \
	OrthoOrbital Pt 11   dxz \
	OrthoOrbital Pt 11   dx2-y2 \
	OrthoOrbital Pt 12   s \
	OrthoOrbital Pt 12   p \
	OrthoOrbital Pt 12   px \
	OrthoOrbital Pt 12   py \
	OrthoOrbital Pt 12   pz \
	OrthoOrbital Pt 12   d \
	OrthoOrbital Pt 12   dxy \
	OrthoOrbital Pt 12   dyz \
	OrthoOrbital Pt 12   dz2 \
	OrthoOrbital Pt 12   dxz \
	OrthoOrbital Pt 12   dx2-y2 \
	OrthoOrbital Pt 13   s \
	OrthoOrbital Pt 13   p \
	OrthoOrbital Pt 13   px \
	OrthoOrbital Pt 13   py \
	OrthoOrbital Pt 13   pz \
	OrthoOrbital Pt 13   d \
	OrthoOrbital Pt 13   dxy \
	OrthoOrbital Pt 13   dyz \
	OrthoOrbital Pt 13   dz2 \
	OrthoOrbital Pt 13   dxz \
	OrthoOrbital Pt 13   dx2-y2 \
	OrthoOrbital Pt 14   s \
	OrthoOrbital Pt 14   p \
	OrthoOrbital Pt 14   px \
	OrthoOrbital Pt 14   py \
	OrthoOrbital Pt 14   pz \
	OrthoOrbital Pt 14   d \
	OrthoOrbital Pt 14   dxy \
	OrthoOrbital Pt 14   dyz \
	OrthoOrbital Pt 14   dz2 \
	OrthoOrbital Pt 14   dxz \
	OrthoOrbital Pt 14   dx2-y2 \
	OrthoOrbital Pt 15   s \
	OrthoOrbital Pt 15   p \
	OrthoOrbital Pt 15   px \
	OrthoOrbital Pt 15   py \
	OrthoOrbital Pt 15   pz \
	OrthoOrbital Pt 15   d \
	OrthoOrbital Pt 15   dxy \
	OrthoOrbital Pt 15   dyz \
	OrthoOrbital Pt 15   dz2 \
	OrthoOrbital Pt 15   dxz \
	OrthoOrbital Pt 15   dx2-y2 \
	OrthoOrbital Pt 16   s \
	OrthoOrbital Pt 16   p \
	OrthoOrbital Pt 16   px \
	OrthoOrbital Pt 16   py \
	OrthoOrbital Pt 16   pz \
	OrthoOrbital Pt 16   d \
	OrthoOrbital Pt 16   dxy \
	OrthoOrbital Pt 16   dyz \
	OrthoOrbital Pt 16   dz2 \
	OrthoOrbital Pt 16   dxz \
	OrthoOrbital Pt 16   dx2-y2 \
	OrthoOrbital Pt 17   s \
	OrthoOrbital Pt 17   p \
	OrthoOrbital Pt 17   px \
	OrthoOrbital Pt 17   py \
	OrthoOrbital Pt 17   pz \
	OrthoOrbital Pt 17   d \
	OrthoOrbital Pt 17   dxy \
	OrthoOrbital Pt 17   dyz \
	OrthoOrbital Pt 17   dz2 \
	OrthoOrbital Pt 17   dxz \
	OrthoOrbital Pt 17   dx2-y2 \
	OrthoOrbital Pt 18   s \
	OrthoOrbital Pt 18   p \
	OrthoOrbital Pt 18   px \
	OrthoOrbital Pt 18   py \
	OrthoOrbital Pt 18   pz \
	OrthoOrbital Pt 18   d \
	OrthoOrbital Pt 18   dxy \
	OrthoOrbital Pt 18   dyz \
	OrthoOrbital Pt 18   dz2 \
	OrthoOrbital Pt 18   dxz \
	OrthoOrbital Pt 18   dx2-y2 \
	OrthoOrbital Pt 19   s \
	OrthoOrbital Pt 19   p \
	OrthoOrbital Pt 19   px \
	OrthoOrbital Pt 19   py \
	OrthoOrbital Pt 19   pz \
	OrthoOrbital Pt 19   d \
	OrthoOrbital Pt 19   dxy \
	OrthoOrbital Pt 19   dyz \
	OrthoOrbital Pt 19   dz2 \
	OrthoOrbital Pt 19   dxz \
	OrthoOrbital Pt 19   dx2-y2 \
	OrthoOrbital Pt 20   s \
	OrthoOrbital Pt 20   p \
	OrthoOrbital Pt 20   px \
	OrthoOrbital Pt 20   py \
	OrthoOrbital Pt 20   pz \
	OrthoOrbital Pt 20   d \
	OrthoOrbital Pt 20   dxy \
	OrthoOrbital Pt 20   dyz \
	OrthoOrbital Pt 20   dz2 \
	OrthoOrbital Pt 20   dxz \
	OrthoOrbital Pt 20   dx2-y2 \
	OrthoOrbital Pt 21   s \
	OrthoOrbital Pt 21   p \
	OrthoOrbital Pt 21   px \
	OrthoOrbital Pt 21   py \
	OrthoOrbital Pt 21   pz \
	OrthoOrbital Pt 21   d \
	OrthoOrbital Pt 21   dxy \
	OrthoOrbital Pt 21   dyz \
	OrthoOrbital Pt 21   dz2 \
	OrthoOrbital Pt 21   dxz \
	OrthoOrbital Pt 21   dx2-y2 \
	OrthoOrbital Pt 22   s \
	OrthoOrbital Pt 22   p \
	OrthoOrbital Pt 22   px \
	OrthoOrbital Pt 22   py \
	OrthoOrbital Pt 22   pz \
	OrthoOrbital Pt 22   d \
	OrthoOrbital Pt 22   dxy \
	OrthoOrbital Pt 22   dyz \
	OrthoOrbital Pt 22   dz2 \
	OrthoOrbital Pt 22   dxz \
	OrthoOrbital Pt 22   dx2-y2 \
	OrthoOrbital Pt 23   s \
	OrthoOrbital Pt 23   p \
	OrthoOrbital Pt 23   px \
	OrthoOrbital Pt 23   py \
	OrthoOrbital Pt 23   pz \
	OrthoOrbital Pt 23   d \
	OrthoOrbital Pt 23   dxy \
	OrthoOrbital Pt 23   dyz \
	OrthoOrbital Pt 23   dz2 \
	OrthoOrbital Pt 23   dxz \
	OrthoOrbital Pt 23   dx2-y2 \
	OrthoOrbital Pt 24   s \
	OrthoOrbital Pt 24   p \
	OrthoOrbital Pt 24   px \
	OrthoOrbital Pt 24   py \
	OrthoOrbital Pt 24   pz \
	OrthoOrbital Pt 24   d \
	OrthoOrbital Pt 24   dxy \
	OrthoOrbital Pt 24   dyz \
	OrthoOrbital Pt 24   dz2 \
	OrthoOrbital Pt 24   dxz \
	OrthoOrbital Pt 24   dx2-y2 \
	OrthoOrbital Pt 25   s \
	OrthoOrbital Pt 25   p \
	OrthoOrbital Pt 25   px \
	OrthoOrbital Pt 25   py \
	OrthoOrbital Pt 25   pz \
	OrthoOrbital Pt 25   d \
	OrthoOrbital Pt 25   dxy \
	OrthoOrbital Pt 25   dyz \
	OrthoOrbital Pt 25   dz2 \
	OrthoOrbital Pt 25   dxz \
	OrthoOrbital Pt 25   dx2-y2 \
	OrthoOrbital Pt 26   s \
	OrthoOrbital Pt 26   p \
	OrthoOrbital Pt 26   px \
	OrthoOrbital Pt 26   py \
	OrthoOrbital Pt 26   pz \
	OrthoOrbital Pt 26   d \
	OrthoOrbital Pt 26   dxy \
	OrthoOrbital Pt 26   dyz \
	OrthoOrbital Pt 26   dz2 \
	OrthoOrbital Pt 26   dxz \
	OrthoOrbital Pt 26   dx2-y2 \
	OrthoOrbital Pt 27   s \
	OrthoOrbital Pt 27   p \
	OrthoOrbital Pt 27   px \
	OrthoOrbital Pt 27   py \
	OrthoOrbital Pt 27   pz \
	OrthoOrbital Pt 27   d \
	OrthoOrbital Pt 27   dxy \
	OrthoOrbital Pt 27   dyz \
	OrthoOrbital Pt 27   dz2 \
	OrthoOrbital Pt 27   dxz \
	OrthoOrbital Pt 27   dx2-y2 \
	OrthoOrbital Pt 28   s \
	OrthoOrbital Pt 28   p \
	OrthoOrbital Pt 28   px \
	OrthoOrbital Pt 28   py \
	OrthoOrbital Pt 28   pz \
	OrthoOrbital Pt 28   d \
	OrthoOrbital Pt 28   dxy \
	OrthoOrbital Pt 28   dyz \
	OrthoOrbital Pt 28   dz2 \
	OrthoOrbital Pt 28   dxz \
	OrthoOrbital Pt 28   dx2-y2 \
	OrthoOrbital Pt 29   s \
	OrthoOrbital Pt 29   p \
	OrthoOrbital Pt 29   px \
	OrthoOrbital Pt 29   py \
	OrthoOrbital Pt 29   pz \
	OrthoOrbital Pt 29   d \
	OrthoOrbital Pt 29   dxy \
	OrthoOrbital Pt 29   dyz \
	OrthoOrbital Pt 29   dz2 \
	OrthoOrbital Pt 29   dxz \
	OrthoOrbital Pt 29   dx2-y2 \
	OrthoOrbital Pt 30   s \
	OrthoOrbital Pt 30   p \
	OrthoOrbital Pt 30   px \
	OrthoOrbital Pt 30   py \
	OrthoOrbital Pt 30   pz \
	OrthoOrbital Pt 30   d \
	OrthoOrbital Pt 30   dxy \
	OrthoOrbital Pt 30   dyz \
	OrthoOrbital Pt 30   dz2 \
	OrthoOrbital Pt 30   dxz \
	OrthoOrbital Pt 30   dx2-y2 \
	OrthoOrbital Pt 31   s \
	OrthoOrbital Pt 31   p \
	OrthoOrbital Pt 31   px \
	OrthoOrbital Pt 31   py \
	OrthoOrbital Pt 31   pz \
	OrthoOrbital Pt 31   d \
	OrthoOrbital Pt 31   dxy \
	OrthoOrbital Pt 31   dyz \
	OrthoOrbital Pt 31   dz2 \
	OrthoOrbital Pt 31   dxz \
	OrthoOrbital Pt 31   dx2-y2 \
	OrthoOrbital Pt 32   s \
	OrthoOrbital Pt 32   p \
	OrthoOrbital Pt 32   px \
	OrthoOrbital Pt 32   py \
	OrthoOrbital Pt 32   pz \
	OrthoOrbital Pt 32   d \
	OrthoOrbital Pt 32   dxy \
	OrthoOrbital Pt 32   dyz \
	OrthoOrbital Pt 32   dz2 \
	OrthoOrbital Pt 32   dxz \
	OrthoOrbital Pt 32   dx2-y2 \
	OrthoOrbital Pt 33   s \
	OrthoOrbital Pt 33   p \
	OrthoOrbital Pt 33   px \
	OrthoOrbital Pt 33   py \
	OrthoOrbital Pt 33   pz \
	OrthoOrbital Pt 33   d \
	OrthoOrbital Pt 33   dxy \
	OrthoOrbital Pt 33   dyz \
	OrthoOrbital Pt 33   dz2 \
	OrthoOrbital Pt 33   dxz \
	OrthoOrbital Pt 33   dx2-y2 \
	OrthoOrbital Pt 34   s \
	OrthoOrbital Pt 34   p \
	OrthoOrbital Pt 34   px \
	OrthoOrbital Pt 34   py \
	OrthoOrbital Pt 34   pz \
	OrthoOrbital Pt 34   d \
	OrthoOrbital Pt 34   dxy \
	OrthoOrbital Pt 34   dyz \
	OrthoOrbital Pt 34   dz2 \
	OrthoOrbital Pt 34   dxz \
	OrthoOrbital Pt 34   dx2-y2
dump End ElecDensity KEdensity BandEigs EigStats RhoAtom DOS Kpoints
dump Ionic State IonicPositions Lattice EigStats Ecomponents
dump 
dump 
dump 
dump 
dump 
dump 
dump 
dump 
dump-name jdft.$VAR
elec-cutoff 20
elec-eigen-algo Davidson
elec-ex-corr gga-PBE
elec-initial-magnetization 0.000000 no
elec-n-bands 327
elec-smearing Fermi 0.001
electronic-minimize  \
	dirUpdateScheme      FletcherReeves \
	linminMethod         DirUpdateRecommended \
	nIterations          100 \
	history              15 \
	knormThreshold       0 \
	energyDiffThreshold  1e-07 \
	nEnergyDiff          2 \
	alphaTstart          1 \
	alphaTmin            1e-10 \
	updateTestStepSize   yes \
	alphaTreduceFactor   0.1 \
	alphaTincreaseFactor 3 \
	nAlphaAdjustMax      3 \
	wolfeEnergy          0.0001 \
	wolfeGradient        0.9 \
	fdTest               no
exchange-regularization WignerSeitzTruncated
fluid None
fluid-ex-corr lda-TF lda-PZ
fluid-gummel-loop 10 1.000000e-05
fluid-minimize  \
	dirUpdateScheme      PolakRibiere \
	linminMethod         DirUpdateRecommended \
	nIterations          100 \
	history              15 \
	knormThreshold       0 \
	energyDiffThreshold  0 \
	nEnergyDiff          2 \
	alphaTstart          1 \
	alphaTmin            1e-10 \
	updateTestStepSize   yes \
	alphaTreduceFactor   0.1 \
	alphaTincreaseFactor 3 \
	nAlphaAdjustMax      3 \
	wolfeEnergy          0.0001 \
	wolfeGradient        0.9 \
	fdTest               no
fluid-solvent H2O 55.338 ScalarEOS \
	epsBulk 78.4 \
	pMol 0.92466 \
	epsInf 1.77 \
	Pvap 1.06736e-10 \
	sigmaBulk 4.62e-05 \
	Rvdw 2.61727 \
	Res 1.42 \
	tauNuc 343133 \
	poleEl 15 7 1
forces-output-coords Positions
initial-state jdft.$VAR
ion Pt  -0.000860123707690  12.452734635735590   1.394980778085324 1
ion Pt   5.231145099711552  16.565345057780551   5.109131203793755 1
ion Pt   5.232890953504817  21.886707457690886  29.783309419180195 1
ion Pt   5.230878297402749   3.758613556221156   2.906974244828811 1
ion Pt   5.231367164666062   7.588591250605752   6.749433646372631 1
ion Pt   5.231492814993739  11.446635115321055  10.404730427772231 1
ion Pt   0.000223812395119  18.995424790087924  17.496485511531024 1
ion Pt   5.231253566372017  20.408341811500680   8.466763934367410 1
ion Pt   5.231798283897678   2.551403447893981  12.027340210373604 1
ion Pt   5.232110452562742   6.333091192824759  15.655844379531469 1
ion Pt   0.000346006667337  10.161381312418996  19.305636406797706 1
ion Pt   0.000803796248082  13.974742242794660  23.034521676503044 1
ion Pt   5.231651765724841  15.252890900872542  13.965124454421083 1
ion Pt   5.232644669517636   1.188531822980978  21.001792764613004 1
ion Pt   0.000788499176823   5.087612408858372  24.546813526173185 1
ion Pt   0.001025217953232   9.000233370767049  28.328219589962970 1
ion Pt   5.232907718373289  17.727405239500634  26.866740897229811 1
ion Pt   2.615291707607416  12.042615625621869   5.960277722708974 1
ion Pt   2.615304322366770  15.944285871054259   9.506736392555945 1
ion Pt   2.614898551703857  20.971711140816527   3.634011476863765 1
ion Pt   2.615309516734515   3.155613933625545   7.471918205270750 1
ion Pt   2.615705268835717   6.972796622044701  11.203596102460136 1
ion Pt   2.615822054822267  10.802325113617332  14.858688041693833 1
ion Pt   2.616710446217307  18.295786436045816  22.040526306192511 1
ion Pt   2.615678338638372  19.712106745399762  13.014979242348241 1
ion Pt   2.616281231764209   1.882594601133751  16.547704461695528 1
ion Pt   2.616524571735638   5.688320330856071  20.104870709449717 1
ion Pt   2.616811569837898   9.542951010488380  23.758744608195876 1
ion Pt   2.617038198037022  13.369116921360760  27.597632829093818 1
ion Pt   2.616212557234365  14.582869786094163  18.481795157603148 1
ion Pt   2.616808870595286   0.563035022395762  25.395703404174824 1
ion Pt   2.616924822454381   4.671817649829403  29.108990240339867 1
ion Pt   2.615040235771406   8.126448315623428   2.176509948490486 1
ion Pt   2.615091740183544  16.807117260137090   0.721171079325404 1
ion-species /projects/musgravc/apps/jdftx-1.6.0/build/pseudopotentials/GBRV_v1.5/$ID_pbe_v1.uspp
ion-species /projects/musgravc/apps/jdftx-1.6.0/build/pseudopotentials/GBRV_v1.5/$ID_pbe_v1.2.uspp
ion-species /projects/musgravc/apps/jdftx-1.6.0/build/pseudopotentials/GBRV_v1.5/$ID_pbe_v1.4.uspp
ion-species /projects/musgravc/apps/jdftx-1.6.0/build/pseudopotentials/GBRV_v1.5/$ID_pbe_v1.5.uspp
ion-width 0
ionic-minimize  \
	dirUpdateScheme      L-BFGS \
	linminMethod         DirUpdateRecommended \
	nIterations          100 \
	history              15 \
	knormThreshold       0.0001 \
	energyDiffThreshold  1e-06 \
	nEnergyDiff          2 \
	alphaTstart          1 \
	alphaTmin            1e-10 \
	updateTestStepSize   yes \
	alphaTreduceFactor   0.1 \
	alphaTincreaseFactor 3 \
	nAlphaAdjustMax      3 \
	wolfeEnergy          0.0001 \
	wolfeGradient        0.9 \
	fdTest               no
kpoint   0.000000000000   0.000000000000   0.000000000000  1.00000000000000
kpoint-folding 11 2 1 
latt-move-scale 0 0 0
latt-scale 1 1 1 
lattice  \
	   5.231996000000000   -0.000000000000000    0.000000000000000  \
	   0.000000000000000   21.572068000000002    0.000000000000000  \
	   0.000000000000000    0.000000000000000   61.015023999999997 
lattice-minimize  \
	dirUpdateScheme      L-BFGS \
	linminMethod         DirUpdateRecommended \
	nIterations          0 \
	history              15 \
	knormThreshold       0 \
	energyDiffThreshold  1e-06 \
	nEnergyDiff          2 \
	alphaTstart          1 \
	alphaTmin            1e-10 \
	updateTestStepSize   yes \
	alphaTreduceFactor   0.1 \
	alphaTincreaseFactor 3 \
	nAlphaAdjustMax      3 \
	wolfeEnergy          0.0001 \
	wolfeGradient        0.9 \
	fdTest               no
lcao-params 30 1e-06 0.001
pcm-variant GLSSA13
spintype z-spin
subspace-rotation-factor 1 yes
symmetries none
symmetry-threshold 0.0001
van-der-waals D3


Applied RMS atom displacement 0 bohrs to make symmetries exact.

---------- Initializing the Grid ----------
R = 
[        5.232            0            0  ]
[            0      21.5721            0  ]
[            0            0       61.015  ]
unit cell volume = 6886.46
G =
[    1.20092          0         -0  ]
[          0   0.291265          0  ]
[          0         -0   0.102978  ]
Minimum fftbox size, Smin = [  24  88  248  ]
Chosen fftbox size, S = [  24  90  250  ]

---------- Exchange Correlation functional ----------
Initalized PBE GGA exchange.
Initalized PBE GGA correlation.

---------- Setting up pseudopotentials ----------
Width of ionic core gaussian charges (only for fluid interactions / plotting) set to 0

Reading pseudopotential file '/projects/musgravc/apps/jdftx-1.6.0/build/pseudopotentials/GBRV_v1.5/pt_pbe_v1.4.uspp':
  Title: Pt.  Created by USPP 7.3.6 on 31-3-15
  Reference state energy: -105.002503.  16 valence electrons in orbitals:
    |510>  occupation: 6  eigenvalue: -2.158104
    |520>  occupation: 9.5  eigenvalue: -0.335376
    |600>  occupation: 0  eigenvalue: -0.319640
    |610>  occupation: 0  eigenvalue: -0.122947
  lMax: 2  lLocal: 3  QijEcut: 5.5
  6 projectors sampled on a log grid with 745 points:
    l: 0  eig: -0.319640  rCut: 2.45
    l: 0  eig: 1.500000  rCut: 2.45
    l: 1  eig: -2.158104  rCut: 1.6
    l: 1  eig: -0.122947  rCut: 1.6
    l: 2  eig: -0.500000  rCut: 1.6
    l: 2  eig: -0.335375  rCut: 1.6
  Partial core density with radius 1.1
  Transforming core density to a uniform radial grid of dG=0.02 with 1173 points.
  Transforming local potential to a uniform radial grid of dG=0.02 with 1173 points.
  Transforming nonlocal projectors to a uniform radial grid of dG=0.02 with 432 points.
  Transforming density augmentations to a uniform radial grid of dG=0.02 with 1173 points.
  Transforming atomic orbitals to a uniform radial grid of dG=0.02 with 432 points.
  Core radius for overlap checks: 2.45 bohrs.

Initialized 1 species with 34 total atoms.

Folded 1 k-points by 11x2x1 to 22 k-points.

---------- Setting up k-points, bands, fillings ----------
No reducable k-points. 
Computing the number of bands and number of electrons
Reading initial fillings from file jdft.fillings.
nElectrons: 544.000000   nBands: 327   nStates: 44

----- Setting up reduced wavefunction bases (one per k-point) -----
average nbasis = 29423.773 , ideal nbasis = 29419.478

----- Initializing Supercell corresponding to k-point mesh -----
Lattice vector linear combinations in supercell:
[  11   0   0  ]
[   0   2   0  ]
[   0   0   1  ]
Supercell lattice vectors:
[  57.552  0  0  ]
[  0  43.1441  0  ]
[  0  0  61.015  ]

Initializing DFT-D3 calculator:
	Parameters set for gga-PBE functional
	s6:  1.000  s_r6:  1.217
	s8:  0.722  s_r8:  1.000
	Per-atom parameters loaded for:
	Pt:  sqrtQ[a0]:  5.888  Rcov[a0]:  2.116  CN: [ 0.00 1.92 6.67 ]

---------- Setting up ewald sum ----------
Optimum gaussian width for ewald sums = 4.216922 bohr.
Real space sum over 665 unit cells with max indices [  9  3  2  ]
Reciprocal space sum over 6251 terms with max indices [  3  9  23  ]

Computing DFT-D3 correction:
# coordination-number Pt 7.095 9.390 5.900 7.121 9.380 9.528 9.565 9.254 9.545 9.573 9.554 9.392 9.569 9.575 9.331 7.132 7.544 9.324 9.567 7.530 9.381 9.542 9.572 9.268 9.559 9.571 9.537 9.390 7.126 9.555 9.396 7.096 7.129 5.902
# diagonal-C6 Pt 336.87 336.87 336.87 336.87 336.87 336.87 336.87 336.87 336.87 336.87 336.87 336.87 336.87 336.87 336.87 336.87 336.87 336.87 336.87 336.87 336.87 336.87 336.87 336.87 336.87 336.87 336.87 336.87 336.87 336.87 336.87 336.87 336.87 336.87
EvdW_6 =   -0.316136
EvdW_8 =   -0.498920

---------- Allocating electronic variables ----------
Initializing wave functions:  reading from 'jdft.wfns'


---- Citations for features of the code used in this run ----

   Software package:
      R. Sundararaman, K. Letchworth-Weaver, K.A. Schwarz, D. Gunceler, Y. Ozhabes and T.A. Arias, 'JDFTx: software for joint density-functional theory', SoftwareX 6, 278 (2017)

   gga-PBE exchange-correlation functional:
      J.P. Perdew, K. Burke and M. Ernzerhof, Phys. Rev. Lett. 77, 3865 (1996)

   Pseudopotentials:
      KF Garrity, JW Bennett, KM Rabe and D Vanderbilt, Comput. Mater. Sci. 81, 446 (2014)

   DFT-D3 dispersion correction:
      S. Grimme, J. Antony, S. Ehrlich and H. Krieg, J. Chem. Phys. 132, 154104 (2010)

   Total energy minimization with Auxiliary Hamiltonian:
      C. Freysoldt, S. Boeck, and J. Neugebauer, Phys. Rev. B 79, 241103(R) (2009)

   Linear-tetrahedron sampling for density of states:
      G. Lehmann and M. Taut, Phys. status solidi (b) 54, 469 (1972)

This list may not be complete. Please suggest additional citations or
report any other bugs at https://github.com/shankar1729/jdftx/issues

Initialization completed successfully at t[s]:     20.76


Computing DFT-D3 correction:
# coordination-number Pt 7.095 9.390 5.900 7.121 9.380 9.528 9.565 9.254 9.545 9.573 9.554 9.392 9.569 9.575 9.331 7.132 7.544 9.324 9.567 7.530 9.381 9.542 9.572 9.268 9.559 9.571 9.537 9.390 7.126 9.555 9.396 7.096 7.129 5.902
# diagonal-C6 Pt 336.87 336.87 336.87 336.87 336.87 336.87 336.87 336.87 336.87 336.87 336.87 336.87 336.87 336.87 336.87 336.87 336.87 336.87 336.87 336.87 336.87 336.87 336.87 336.87 336.87 336.87 336.87 336.87 336.87 336.87 336.87 336.87 336.87 336.87
EvdW_6 =   -0.316136
EvdW_8 =   -0.498920

-------- Electronic minimization -----------
	FillingsUpdate:  mu: +0.312785896  nElectrons: 544.000000  magneticMoment: [ Abs: 0.00000  Tot: -0.00000 ]
ElecMinimize: Iter:   0  F: -3025.080936205823036  |grad|_K:  6.034e-06  alpha:  1.000e+00
	FillingsUpdate:  mu: +0.312554890  nElectrons: 544.000000  magneticMoment: [ Abs: 0.00000  Tot: -0.00000 ]
	SubspaceRotationAdjust: set factor to 0.524
ElecMinimize: Iter:   1  F: -3025.080982403469079  |grad|_K:  6.208e-07  alpha:  2.962e-03  linmin: -4.793e-03  t[s]:    184.05
ElecMinimize: 	Predicted alpha/alphaT>3.000000, increasing alphaT to 8.884926e-03.
	FillingsUpdate:  mu: +0.313098645  nElectrons: 544.000000  magneticMoment: [ Abs: 0.00000  Tot: -0.00000 ]
	SubspaceRotationAdjust: set factor to 0.28
ElecMinimize: Iter:   2  F: -3025.080985089711248  |grad|_K:  3.900e-07  alpha:  1.627e-02  linmin:  2.054e-05  t[s]:    314.84
	FillingsUpdate:  mu: +0.313067638  nElectrons: 544.000000  magneticMoment: [ Abs: 0.00000  Tot: -0.00000 ]
	SubspaceRotationAdjust: set factor to 0.145
ElecMinimize: Iter:   3  F: -3025.080986832303097  |grad|_K:  3.124e-07  alpha:  2.693e-02  linmin:  1.356e-05  t[s]:    419.35
	FillingsUpdate:  mu: +0.312996649  nElectrons: 544.000000  magneticMoment: [ Abs: 0.00000  Tot: -0.00000 ]
	SubspaceRotationAdjust: set factor to 0.105
	SubspaceRotationAdjust: resetting CG because factor has changed by 0.104753
ElecMinimize: 	State modified externally: resetting search direction.
ElecMinimize: Iter:   4  F: -3025.080987513039872  |grad|_K:  7.229e-08  alpha:  1.639e-02
ElecMinimize: 	Predicted alpha/alphaT>3.000000, increasing alphaT to 4.916554e-02.
ElecMinimize: 	Predicted alpha/alphaT>3.000000, increasing alphaT to 1.474966e-01.
	FillingsUpdate:  mu: +0.313031034  nElectrons: 544.000000  magneticMoment: [ Abs: 0.00000  Tot: -0.00000 ]
	SubspaceRotationAdjust: set factor to 0.0582
ElecMinimize: Iter:   5  F: -3025.080987917609946  |grad|_K:  7.263e-08  alpha:  1.819e-01  linmin: -9.023e-05  t[s]:    732.89
	FillingsUpdate:  mu: +0.313017079  nElectrons: 544.000000  magneticMoment: [ Abs: 0.00000  Tot: -0.00000 ]
	SubspaceRotationAdjust: set factor to 0.042
ElecMinimize: Iter:   6  F: -3025.080988013131901  |grad|_K:  3.076e-08  alpha:  4.245e-02  linmin:  3.316e-05  t[s]:    837.15
ElecMinimize: 	Predicted alpha/alphaT>3.000000, increasing alphaT to 1.273364e-01.
	FillingsUpdate:  mu: +0.312954689  nElectrons: 544.000000  magneticMoment: [ Abs: 0.00000  Tot: -0.00000 ]
	SubspaceRotationAdjust: set factor to 0.0356
ElecMinimize: Iter:   7  F: -3025.080988109684768  |grad|_K:  2.190e-08  alpha:  2.420e-01  linmin:  9.978e-04  t[s]:    968.04
ElecMinimize: Converged (|Delta F|<1.000000e-07 for 2 iters).
Setting wave functions to eigenvectors of Hamiltonian
Converging empty states (this may take a while): |deigs|: 5.987e-09

Computing DFT-D3 correction:
# coordination-number Pt 7.095 9.390 5.900 7.121 9.380 9.528 9.565 9.254 9.545 9.573 9.554 9.392 9.569 9.575 9.331 7.132 7.544 9.324 9.567 7.530 9.381 9.542 9.572 9.268 9.559 9.571 9.537 9.390 7.126 9.555 9.396 7.096 7.129 5.902
# diagonal-C6 Pt 336.87 336.87 336.87 336.87 336.87 336.87 336.87 336.87 336.87 336.87 336.87 336.87 336.87 336.87 336.87 336.87 336.87 336.87 336.87 336.87 336.87 336.87 336.87 336.87 336.87 336.87 336.87 336.87 336.87 336.87 336.87 336.87 336.87 336.87
EvdW_6 =   -0.316136
EvdW_8 =   -0.498920

# Ionic positions in cartesian coordinates:
ion Pt  -0.000860123707690  12.452734635735590   1.394980778085324 1
ion Pt   5.231145099711552  16.565345057780551   5.109131203793755 1
ion Pt   5.232890953504817  21.886707457690886  29.783309419180195 1
ion Pt   5.230878297402749   3.758613556221156   2.906974244828811 1
ion Pt   5.231367164666062   7.588591250605752   6.749433646372631 1
ion Pt   5.231492814993739  11.446635115321055  10.404730427772231 1
ion Pt   0.000223812395119  18.995424790087924  17.496485511531024 1
ion Pt   5.231253566372017  20.408341811500680   8.466763934367410 1
ion Pt   5.231798283897678   2.551403447893981  12.027340210373604 1
ion Pt   5.232110452562742   6.333091192824759  15.655844379531469 1
ion Pt   0.000346006667337  10.161381312418996  19.305636406797706 1
ion Pt   0.000803796248082  13.974742242794660  23.034521676503044 1
ion Pt   5.231651765724841  15.252890900872542  13.965124454421083 1
ion Pt   5.232644669517636   1.188531822980978  21.001792764613004 1
ion Pt   0.000788499176823   5.087612408858372  24.546813526173185 1
ion Pt   0.001025217953232   9.000233370767049  28.328219589962970 1
ion Pt   5.232907718373289  17.727405239500634  26.866740897229811 1
ion Pt   2.615291707607416  12.042615625621869   5.960277722708974 1
ion Pt   2.615304322366770  15.944285871054259   9.506736392555945 1
ion Pt   2.614898551703857  20.971711140816527   3.634011476863765 1
ion Pt   2.615309516734515   3.155613933625545   7.471918205270750 1
ion Pt   2.615705268835717   6.972796622044701  11.203596102460136 1
ion Pt   2.615822054822267  10.802325113617332  14.858688041693833 1
ion Pt   2.616710446217307  18.295786436045816  22.040526306192511 1
ion Pt   2.615678338638372  19.712106745399762  13.014979242348241 1
ion Pt   2.616281231764209   1.882594601133751  16.547704461695528 1
ion Pt   2.616524571735638   5.688320330856071  20.104870709449717 1
ion Pt   2.616811569837898   9.542951010488380  23.758744608195876 1
ion Pt   2.617038198037022  13.369116921360760  27.597632829093818 1
ion Pt   2.616212557234365  14.582869786094163  18.481795157603148 1
ion Pt   2.616808870595286   0.563035022395762  25.395703404174824 1
ion Pt   2.616924822454381   4.671817649829403  29.108990240339867 1
ion Pt   2.615040235771406   8.126448315623428   2.176509948490486 1
ion Pt   2.615091740183544  16.807117260137090   0.721171079325404 1

# Forces in Cartesian coordinates:
force Pt  -0.000003067685299  -0.000135081344283  -0.000111437604015 1
force Pt  -0.000001755880191   0.000128497824171  -0.000266011282243 1
force Pt   0.000001259634407   0.000185441063741   0.000264613537948 1
force Pt  -0.000000539790608   0.000134223383780  -0.000385672883403 1
force Pt  -0.000002082429724  -0.000449225380829  -0.000382340102358 1
force Pt   0.000000636903493  -0.000385563745788  -0.000136675560969 1
force Pt   0.000000870237624   0.000037390557330  -0.000034360630778 1
force Pt  -0.000001710676357  -0.000324025128554  -0.000157201756278 1
force Pt   0.000001363592015  -0.000048134395063   0.000334775747970 1
force Pt   0.000000857490619   0.000185388605310  -0.000251405851482 1
force Pt  -0.000001314666253   0.000292067115380   0.000058157453403 1
force Pt   0.000000301169955   0.000025291618449   0.000156171543207 1
force Pt   0.000001696086758   0.000292581200576  -0.000540037610196 1
force Pt   0.000000808668157  -0.000079347908534   0.000448709477429 1
force Pt   0.000001450785061   0.000163230598886   0.000384337294189 1
force Pt   0.000001235033085   0.000219041153070   0.000424342227605 1
force Pt   0.000002994283184   0.000259326021368   0.000203381988165 1
force Pt  -0.000001112328223  -0.000429147560329  -0.000371286985528 1
force Pt   0.000000293389935   0.000156141200649  -0.000194591329742 1
force Pt  -0.000001864539198  -0.000112812015228   0.000010225438871 1
force Pt  -0.000002606646532   0.000127388917507  -0.000233503132788 1
force Pt   0.000000348501918  -0.000246025479189   0.000215400734702 1
force Pt   0.000001240451145  -0.000283850356000  -0.000443597434963 1
force Pt   0.000001186299151   0.000130128171880   0.000169790383579 1
force Pt   0.000001130310073  -0.000252215318466  -0.000012223747617 1
force Pt   0.000000913205774  -0.000257411842860   0.000260073356267 1
force Pt   0.000000462734639   0.000262880200382   0.000445164564372 1
force Pt  -0.000000509483226   0.000397850041207   0.000234745400820 1
force Pt   0.000001412750708   0.000014618444749   0.000565191862841 1
force Pt  -0.000000005162610   0.000276580263333  -0.000179581399490 1
force Pt   0.000001478785195  -0.000036565486093   0.000604438129258 1
force Pt   0.000002596335242  -0.000041755368537   0.000283602234406 1
force Pt  -0.000000795988632  -0.000268299984843  -0.000144337185964 1
force Pt  -0.000002303523696  -0.000090443338235  -0.000213779163717 1

# Energy components:
   Eewald =    18281.2606680901881191
       EH =    21113.2344738326428342
     Eloc =   -42944.0552232960035326
      Enl =      -35.8744678549433118
     EvdW =       -0.8150557531044114
      Exc =     -967.3500445244700359
 Exc_core =      557.3069489512676000
       KE =      971.2176122353189385
-------------------------------------
     Etot =    -3025.0750883191039975
       TS =        0.0058997905806745
-------------------------------------
        F =    -3025.0809881096847676


Dumping 'jdft.fillings' ... done
Dumping 'jdft.wfns' ... done
Dumping 'jdft.ionpos' ... done
Dumping 'jdft.lattice' ... done
Dumping 'jdft.eigenvals' ... done
Dumping 'jdft.eigStats' ... 
	eMin: -1.637911 at state 23 ( [ +0.000000 +0.500000 +0.000000 ] spin -1 )
	HOMO: +0.312650 at state 0 ( [ +0.000000 +0.000000 +0.000000 ] spin 1 )
	mu  : +0.312955
	LUMO: +0.313024 at state 25 ( [ +0.090909 +0.500000 +0.000000 ] spin -1 )
	eMax: +0.622998 at state 8 ( [ +0.363636 +0.000000 +0.000000 ] spin 1 )
	HOMO-LUMO gap: +0.000374
	Optical gap  : +0.000643 at state 10 ( [ +0.454545 +0.000000 +0.000000 ] spin 1 )
Dumping 'jdft.Ecomponents' ... done
IonicMinimize: Iter:   0  F: -3025.080988109684768  |grad|_K:  2.220e-04  t[s]:   1079.12

#--- Lowdin population analysis ---
# oxidation-state Pt -0.001 -0.012 +0.049 +0.021 +0.015 +0.010 +0.012 +0.014 +0.011 +0.003 +0.009 +0.013 +0.006 +0.013 +0.011 +0.009 -0.006 +0.008 +0.009 -0.009 +0.010 +0.008 +0.003 +0.017 +0.010 +0.006 +0.013 +0.017 +0.023 +0.013 -0.008 +0.002 +0.006 +0.044
# magnetic-moments Pt -0.000 -0.000 -0.000 -0.000 -0.000 -0.000 -0.000 -0.000 -0.000 -0.000 -0.000 -0.000 -0.000 -0.000 -0.000 -0.000 -0.000 -0.000 -0.000 -0.000 -0.000 -0.000 -0.000 -0.000 -0.000 -0.000 -0.000 -0.000 -0.000 -0.000 -0.000 -0.000 -0.000 -0.000


Computing DFT-D3 correction:
# coordination-number Pt 7.095 9.390 5.901 7.122 9.381 9.528 9.565 9.254 9.544 9.572 9.553 9.391 9.569 9.574 9.330 7.132 7.544 9.323 9.567 7.530 9.380 9.542 9.572 9.267 9.559 9.570 9.536 9.390 7.126 9.554 9.396 7.097 7.130 5.902
# diagonal-C6 Pt 336.87 336.87 336.87 336.87 336.87 336.87 336.87 336.87 336.87 336.87 336.87 336.87 336.87 336.87 336.87 336.87 336.87 336.87 336.87 336.87 336.87 336.87 336.87 336.87 336.87 336.87 336.87 336.87 336.87 336.87 336.87 336.87 336.87 336.87
EvdW_6 =   -0.316130
EvdW_8 =   -0.498905

-------- Electronic minimization -----------
	FillingsUpdate:  mu: +0.319798869  nElectrons: 544.000000  magneticMoment: [ Abs: 0.00000  Tot: -0.00000 ]
ElecMinimize: Iter:   0  F: -3025.080534066754808  |grad|_K:  3.162e-06  alpha:  1.000e+00
	FillingsUpdate:  mu: +0.315473604  nElectrons: 544.000000  magneticMoment: [ Abs: 0.00000  Tot: -0.00000 ]
	SubspaceRotationAdjust: set factor to 0.0216
ElecMinimize: Iter:   1  F: -3025.080924342358230  |grad|_K:  9.749e-07  alpha:  9.290e-02  linmin:  5.827e-03  t[s]:   1274.24
	FillingsUpdate:  mu: +0.313216046  nElectrons: 544.000000  magneticMoment: [ Abs: 0.00000  Tot: -0.00000 ]
	SubspaceRotationAdjust: set factor to 0.0298
ElecMinimize: Iter:   2  F: -3025.080978930850051  |grad|_K:  2.002e-07  alpha:  1.366e-01  linmin: -1.303e-04  t[s]:   1379.04
ElecMinimize: 	Predicted alpha/alphaT>3.000000, increasing alphaT to 4.097778e-01.
	FillingsUpdate:  mu: +0.313236810  nElectrons: 544.000000  magneticMoment: [ Abs: 0.00000  Tot: -0.00000 ]
	SubspaceRotationAdjust: set factor to 0.0385
ElecMinimize: Iter:   3  F: -3025.080986216607926  |grad|_K:  1.135e-07  alpha:  4.267e-01  linmin: -3.966e-05  t[s]:   1509.58
	FillingsUpdate:  mu: +0.313024204  nElectrons: 544.000000  magneticMoment: [ Abs: 0.00000  Tot: -0.00000 ]
	SubspaceRotationAdjust: set factor to 0.0292
ElecMinimize: Iter:   4  F: -3025.080988177377549  |grad|_K:  1.202e-07  alpha:  3.574e-01  linmin: -2.146e-05  t[s]:   1614.55
	FillingsUpdate:  mu: +0.312978365  nElectrons: 544.000000  magneticMoment: [ Abs: 0.00000  Tot: -0.00000 ]
	SubspaceRotationAdjust: set factor to 0.0176
ElecMinimize: Iter:   5  F: -3025.080989039662654  |grad|_K:  7.483e-08  alpha:  1.399e-01  linmin:  1.541e-05  t[s]:   1719.06
	FillingsUpdate:  mu: +0.313120884  nElectrons: 544.000000  magneticMoment: [ Abs: 0.00000  Tot: -0.00000 ]
	SubspaceRotationAdjust: set factor to 0.0204
ElecMinimize: Iter:   6  F: -3025.080989972546831  |grad|_K:  4.676e-08  alpha:  3.916e-01  linmin:  2.125e-05  t[s]:   1823.46
	FillingsUpdate:  mu: +0.313046530  nElectrons: 544.000000  magneticMoment: [ Abs: 0.00000  Tot: -0.00000 ]
	SubspaceRotationAdjust: set factor to 0.0176
ElecMinimize: Iter:   7  F: -3025.080990355717404  |grad|_K:  4.279e-08  alpha:  4.119e-01  linmin: -8.374e-06  t[s]:   1928.14
	FillingsUpdate:  mu: +0.313000465  nElectrons: 544.000000  magneticMoment: [ Abs: 0.00000  Tot: -0.00000 ]
	SubspaceRotationAdjust: set factor to 0.0135
ElecMinimize: Iter:   8  F: -3025.080990544566248  |grad|_K:  2.627e-08  alpha:  2.425e-01  linmin:  1.540e-05  t[s]:   2032.50
	FillingsUpdate:  mu: +0.313037640  nElectrons: 544.000000  magneticMoment: [ Abs: 0.00000  Tot: -0.00000 ]
	SubspaceRotationAdjust: set factor to 0.0175
ElecMinimize: Iter:   9  F: -3025.080990697935249  |grad|_K:  1.952e-08  alpha:  5.251e-01  linmin:  1.005e-03  t[s]:   2136.79
	FillingsUpdate:  mu: +0.313022288  nElectrons: 544.000000  magneticMoment: [ Abs: 0.00000  Tot: -0.00000 ]
	SubspaceRotationAdjust: set factor to 0.015
ElecMinimize: Iter:  10  F: -3025.080990776043109  |grad|_K:  1.990e-08  alpha:  4.861e-01  linmin: -3.393e-04  t[s]:   2241.10
	FillingsUpdate:  mu: +0.313005495  nElectrons: 544.000000  magneticMoment: [ Abs: 0.00000  Tot: -0.00000 ]
	SubspaceRotationAdjust: set factor to 0.0137
ElecMinimize: Iter:  11  F: -3025.080990834735530  |grad|_K:  1.503e-08  alpha:  3.482e-01  linmin:  6.401e-04  t[s]:   2345.50
ElecMinimize: Converged (|Delta F|<1.000000e-07 for 2 iters).
Setting wave functions to eigenvectors of Hamiltonian
Converging empty states (this may take a while): |deigs|: 5.126e-09

Computing DFT-D3 correction:
# coordination-number Pt 7.095 9.390 5.901 7.122 9.381 9.528 9.565 9.254 9.544 9.572 9.553 9.391 9.569 9.574 9.330 7.132 7.544 9.323 9.567 7.530 9.380 9.542 9.572 9.267 9.559 9.570 9.536 9.390 7.126 9.554 9.396 7.097 7.130 5.902
# diagonal-C6 Pt 336.87 336.87 336.87 336.87 336.87 336.87 336.87 336.87 336.87 336.87 336.87 336.87 336.87 336.87 336.87 336.87 336.87 336.87 336.87 336.87 336.87 336.87 336.87 336.87 336.87 336.87 336.87 336.87 336.87 336.87 336.87 336.87 336.87 336.87
EvdW_6 =   -0.316130
EvdW_8 =   -0.498905

# Ionic positions in cartesian coordinates:
ion Pt  -0.000863334564977  12.452604020222809   1.394839779372088 1
ion Pt   5.231143200659373  16.565478021436224   5.108835631402291 1
ion Pt   5.232892069967235  21.886897364586130  29.783544471608923 1
ion Pt   5.230877614440153   3.758752245436438   2.906559010836188 1
ion Pt   5.231364939064350   7.588146491056425   6.749021745161052 1
ion Pt   5.231493308725245  11.446254017406769  10.404564191102041 1
ion Pt   0.000224539460755  18.995466646476757  17.496421589791023 1
ion Pt   5.231251712523673  20.408022252203629   8.466577171501912 1
ion Pt   5.231799504317706   2.551359779330419  12.027645425012352 1
ion Pt   5.232111166881373   6.333281047261572  15.655563412570766 1
ion Pt   0.000344548829096  10.161677845365878  19.305665003141886 1
ion Pt   0.000803954246049  13.974772000244611  23.034648286937028 1
ion Pt   5.231653318639612  15.253187947904619  13.964554855701666 1
ion Pt   5.232645335013805   1.188456940903946  21.002211912981210 1
ion Pt   0.000789806789896   5.087780105288760  24.547168302358152 1
ion Pt   0.001026309814329   9.000456877751621  28.328614371081354 1
ion Pt   5.232910569484484  17.727669031353503  26.866914718108752 1
ion Pt   2.615290452107205  12.042190943893042   5.959876874614226 1
ion Pt   2.615304472584717  15.944446478086409   9.506512240116983 1
ion Pt   2.614896543992670  20.971602794632801   3.633992141193416 1
ion Pt   2.615306766915995   3.155745788374553   7.471655141028742 1
ion Pt   2.615705474165647   6.972555062397015  11.203781942085618 1
ion Pt   2.615823152101424  10.802045729092832  14.858214883149650 1
ion Pt   2.616711489344470  18.295921030049197  22.040666535466869 1
ion Pt   2.615679325776457  19.711858995912799  13.014937457491403 1
ion Pt   2.616282001797995   1.882341655122393  16.547934973942574 1
ion Pt   2.616524891298289   5.688587676887956  20.105286312904870 1
ion Pt   2.616810917182684   9.543353326361089  23.758949792487474 1
ion Pt   2.617039467615742  13.369136005637010  27.598168459847443 1
ion Pt   2.616212408899767  14.583150832188998  18.481586015094436 1
ion Pt   2.616810206208493   0.563002922741171  25.396278281194864 1
ion Pt   2.616927275617635   4.671780360292368  29.109244281465052 1
ion Pt   2.615039296610786   8.126184481470087   2.176336050195302 1
ion Pt   2.615089293487860  16.807031282630359   0.720927739052466 1

# Forces in Cartesian coordinates:
force Pt  -0.000002963141824  -0.000039155218276   0.000111047833256 1
force Pt  -0.000001741060006   0.000105291491963  -0.000077691953513 1
force Pt   0.000001255195672   0.000170291740896   0.000080770773325 1
force Pt  -0.000000597409282   0.000080595158885  -0.000161175685085 1
force Pt  -0.000002026299618  -0.000395882233424  -0.000186071651497 1
force Pt   0.000000623940233  -0.000276241807128  -0.000230186253189 1
force Pt   0.000000843609212   0.000112946168957  -0.000228766489533 1
force Pt  -0.000001647988330  -0.000348440002996  -0.000118778219746 1
force Pt   0.000001300910943  -0.000115220472546   0.000194177508394 1
force Pt   0.000000824840218   0.000084424089397  -0.000276469811857 1
force Pt  -0.000001250699770   0.000184502036504  -0.000015853831211 1
force Pt   0.000000263415342  -0.000040199733413   0.000038135395510 1
force Pt   0.000001577025697   0.000248499724093  -0.000805202262028 1
force Pt   0.000000779650873   0.000019918023838   0.000188125633464 1
force Pt   0.000001429896722   0.000242962492949   0.000092951237338 1
force Pt   0.000001174452645   0.000295859607644   0.000313035398203 1
force Pt   0.000002920891493   0.000134158611474   0.000043357832561 1
force Pt  -0.000001070619170  -0.000324803051669  -0.000161152668731 1
force Pt   0.000000273929358   0.000107629644458  -0.000243038198732 1
force Pt  -0.000001834191733  -0.000163347805679   0.000164338977382 1
force Pt  -0.000002486508586   0.000048856172914  -0.000124457714734 1
force Pt   0.000000412350305  -0.000207126828103   0.000059544537549 1
force Pt   0.000001168875950  -0.000225231539223  -0.000645255668505 1
force Pt   0.000001163153671   0.000128208340570  -0.000008686455569 1
force Pt   0.000001112904074  -0.000234247846671  -0.000200418085107 1
force Pt   0.000000923660989  -0.000165626933402   0.000166504593498 1
force Pt   0.000000415449728   0.000213324193735   0.000249863408606 1
force Pt  -0.000000492936966   0.000380479779571   0.000033956788529 1
force Pt   0.000001392552377  -0.000048391904607   0.000376736264507 1
force Pt  -0.000000044378291   0.000249859094059  -0.000321727477109 1
force Pt   0.000001528515383  -0.000009931664576   0.000315571879237 1
force Pt   0.000002500400297   0.000058117007934   0.000092499647922 1
force Pt  -0.000000775627721  -0.000254705731866  -0.000068746989047 1
force Pt  -0.000002378223146  -0.000087234708116   0.000001589118615 1

# Energy components:
   Eewald =    18280.2371285397748579
       EH =    21112.2401175751911069
     Eloc =   -42942.0372034112297115
      Enl =      -35.8747124030506725
     EvdW =       -0.8150343151977284
      Exc =     -967.3498099100381751
 Exc_core =      557.3069490602690621
       KE =      971.2174731804589101
-------------------------------------
     Etot =    -3025.0750916838187550
       TS =        0.0058991509169745
-------------------------------------
        F =    -3025.0809908347355304


Dumping 'jdft.fillings' ... done
Dumping 'jdft.wfns' ... done
Dumping 'jdft.ionpos' ... done
Dumping 'jdft.lattice' ... done
Dumping 'jdft.eigenvals' ... done
Dumping 'jdft.eigStats' ... 
	eMin: -1.637838 at state 23 ( [ +0.000000 +0.500000 +0.000000 ] spin -1 )
	HOMO: +0.312687 at state 0 ( [ +0.000000 +0.000000 +0.000000 ] spin 1 )
	mu  : +0.313005
	LUMO: +0.313081 at state 25 ( [ +0.090909 +0.500000 +0.000000 ] spin -1 )
	eMax: +0.623029 at state 8 ( [ +0.363636 +0.000000 +0.000000 ] spin 1 )
	HOMO-LUMO gap: +0.000394
	Optical gap  : +0.000643 at state 12 ( [ -0.454545 +0.000000 +0.000000 ] spin 1 )
Dumping 'jdft.Ecomponents' ... done
IonicMinimize: Iter:   1  F: -3025.080990834735530  |grad|_K:  1.843e-04  alpha:  1.000e+00  linmin: -8.811e-01  t[s]:   2456.41

#--- Lowdin population analysis ---
# oxidation-state Pt -0.001 -0.009 +0.042 +0.021 +0.016 +0.012 +0.012 +0.017 +0.014 +0.005 +0.010 +0.009 +0.006 +0.011 +0.010 +0.006 -0.009 +0.013 +0.014 -0.006 +0.012 +0.013 +0.004 +0.014 +0.013 +0.006 +0.009 +0.013 +0.019 +0.012 -0.012 -0.004 +0.009 +0.045
# magnetic-moments Pt -0.000 -0.000 -0.000 -0.000 -0.000 -0.000 -0.000 -0.000 -0.000 -0.000 -0.000 -0.000 -0.000 -0.000 -0.000 -0.000 -0.000 -0.000 -0.000 -0.000 -0.000 -0.000 -0.000 -0.000 -0.000 -0.000 -0.000 -0.000 -0.000 -0.000 -0.000 -0.000 -0.000 -0.000


Computing DFT-D3 correction:
# coordination-number Pt 7.096 9.391 5.903 7.123 9.383 9.527 9.566 9.257 9.541 9.570 9.548 9.387 9.569 9.571 9.327 7.130 7.543 9.321 9.570 7.533 9.377 9.546 9.569 9.265 9.563 9.568 9.530 9.389 7.123 9.546 9.397 7.097 7.133 5.902
# diagonal-C6 Pt 336.87 336.87 336.87 336.87 336.87 336.87 336.87 336.87 336.87 336.87 336.87 336.87 336.87 336.87 336.87 336.87 336.87 336.87 336.87 336.87 336.87 336.87 336.87 336.87 336.87 336.87 336.87 336.87 336.87 336.87 336.87 336.87 336.87 336.87
EvdW_6 =   -0.316104
EvdW_8 =   -0.498851

-------- Electronic minimization -----------
	FillingsUpdate:  mu: +0.316572355  nElectrons: 544.000000  magneticMoment: [ Abs: 0.00000  Tot: -0.00000 ]
ElecMinimize: Iter:   0  F: -3025.080701167190000  |grad|_K:  1.851e-06  alpha:  1.000e+00
	FillingsUpdate:  mu: +0.313861608  nElectrons: 544.000000  magneticMoment: [ Abs: 0.00000  Tot: -0.00000 ]
	SubspaceRotationAdjust: set factor to 0.0213
ElecMinimize: Iter:   1  F: -3025.080960265202066  |grad|_K:  3.442e-07  alpha:  1.779e-01  linmin:  1.536e-03  t[s]:   2651.77
	FillingsUpdate:  mu: +0.312981160  nElectrons: 544.000000  magneticMoment: [ Abs: 0.00000  Tot: -0.00000 ]
	SubspaceRotationAdjust: set factor to 0.0238
ElecMinimize: Iter:   2  F: -3025.080978171644347  |grad|_K:  1.655e-07  alpha:  3.557e-01  linmin:  1.843e-05  t[s]:   2755.90
	FillingsUpdate:  mu: +0.313081748  nElectrons: 544.000000  magneticMoment: [ Abs: 0.00000  Tot: -0.00000 ]
	SubspaceRotationAdjust: set factor to 0.0218
ElecMinimize: Iter:   3  F: -3025.080983609465875  |grad|_K:  1.235e-07  alpha:  4.662e-01  linmin: -1.396e-05  t[s]:   2860.79
	FillingsUpdate:  mu: +0.313051772  nElectrons: 544.000000  magneticMoment: [ Abs: 0.00000  Tot: -0.00000 ]
	SubspaceRotationAdjust: set factor to 0.0167
ElecMinimize: Iter:   4  F: -3025.080985556669930  |grad|_K:  1.145e-07  alpha:  3.000e-01  linmin: -1.803e-05  t[s]:   2965.32
	FillingsUpdate:  mu: +0.312952014  nElectrons: 544.000000  magneticMoment: [ Abs: 0.00000  Tot: -0.00000 ]
	SubspaceRotationAdjust: set factor to 0.0157
ElecMinimize: Iter:   5  F: -3025.080987508057206  |grad|_K:  7.260e-08  alpha:  3.498e-01  linmin:  3.559e-05  t[s]:   3069.70
	FillingsUpdate:  mu: +0.312991213  nElectrons: 544.000000  magneticMoment: [ Abs: 0.00000  Tot: -0.00000 ]
	SubspaceRotationAdjust: set factor to 0.0198
ElecMinimize: Iter:   6  F: -3025.080988848829293  |grad|_K:  5.957e-08  alpha:  5.979e-01  linmin:  4.909e-05  t[s]:   3174.08
	FillingsUpdate:  mu: +0.312968617  nElectrons: 544.000000  magneticMoment: [ Abs: 0.00000  Tot: -0.00000 ]
	SubspaceRotationAdjust: set factor to 0.0204
ElecMinimize: Iter:   7  F: -3025.080989721329843  |grad|_K:  6.490e-08  alpha:  5.777e-01  linmin:  9.282e-06  t[s]:   3278.46
	FillingsUpdate:  mu: +0.312961255  nElectrons: 544.000000  magneticMoment: [ Abs: 0.00000  Tot: -0.00000 ]
	SubspaceRotationAdjust: set factor to 0.0177
ElecMinimize: Iter:   8  F: -3025.080990428702535  |grad|_K:  7.017e-08  alpha:  3.947e-01  linmin: -5.418e-06  t[s]:   3382.99
	FillingsUpdate:  mu: +0.312985938  nElectrons: 544.000000  magneticMoment: [ Abs: 0.00000  Tot: -0.00000 ]
	SubspaceRotationAdjust: set factor to 0.0174
ElecMinimize: Iter:   9  F: -3025.080991629049549  |grad|_K:  6.807e-08  alpha:  5.729e-01  linmin:  2.971e-05  t[s]:   3487.48
	FillingsUpdate:  mu: +0.312961779  nElectrons: 544.000000  magneticMoment: [ Abs: 0.00000  Tot: -0.00000 ]
	SubspaceRotationAdjust: set factor to 0.0191
ElecMinimize: Iter:  10  F: -3025.080993354463772  |grad|_K:  7.373e-08  alpha:  8.749e-01  linmin: -1.088e-05  t[s]:   3592.47
	FillingsUpdate:  mu: +0.313052764  nElectrons: 544.000000  magneticMoment: [ Abs: 0.00000  Tot: -0.00000 ]
	SubspaceRotationAdjust: set factor to 0.0198
ElecMinimize: Iter:  11  F: -3025.080995258412713  |grad|_K:  7.765e-08  alpha:  8.224e-01  linmin: -5.575e-06  t[s]:   3697.49
	FillingsUpdate:  mu: +0.313017661  nElectrons: 544.000000  magneticMoment: [ Abs: 0.00000  Tot: -0.00000 ]
	SubspaceRotationAdjust: set factor to 0.0177
ElecMinimize: Iter:  12  F: -3025.080996778995996  |grad|_K:  8.642e-08  alpha:  5.923e-01  linmin:  4.385e-06  t[s]:   3802.31
	FillingsUpdate:  mu: +0.313008386  nElectrons: 544.000000  magneticMoment: [ Abs: 0.00000  Tot: -0.00000 ]
	SubspaceRotationAdjust: set factor to 0.0133
ElecMinimize: Iter:  13  F: -3025.080997773596209  |grad|_K:  6.904e-08  alpha:  3.129e-01  linmin:  3.106e-06  t[s]:   3907.00
	FillingsUpdate:  mu: +0.313067433  nElectrons: 544.000000  magneticMoment: [ Abs: 0.00000  Tot: -0.00000 ]
	SubspaceRotationAdjust: set factor to 0.0151
ElecMinimize: Iter:  14  F: -3025.080998878004721  |grad|_K:  5.337e-08  alpha:  5.438e-01  linmin: -2.455e-05  t[s]:   4011.99
	FillingsUpdate:  mu: +0.313056348  nElectrons: 544.000000  magneticMoment: [ Abs: 0.00000  Tot: -0.00000 ]
	SubspaceRotationAdjust: set factor to 0.017
ElecMinimize: Iter:  15  F: -3025.080999617453017  |grad|_K:  4.678e-08  alpha:  6.093e-01  linmin:  1.061e-05  t[s]:   4116.55
	FillingsUpdate:  mu: +0.313047935  nElectrons: 544.000000  magneticMoment: [ Abs: 0.00000  Tot: -0.00000 ]
	SubspaceRotationAdjust: set factor to 0.0157
ElecMinimize: Iter:  16  F: -3025.081000086693621  |grad|_K:  4.792e-08  alpha:  5.039e-01  linmin: -4.098e-06  t[s]:   4221.04
	FillingsUpdate:  mu: +0.313044949  nElectrons: 544.000000  magneticMoment: [ Abs: 0.00000  Tot: -0.00000 ]
	SubspaceRotationAdjust: set factor to 0.0145
ElecMinimize: Iter:  17  F: -3025.081000495958506  |grad|_K:  4.229e-08  alpha:  4.188e-01  linmin: -9.117e-06  t[s]:   4325.69
	FillingsUpdate:  mu: +0.313033165  nElectrons: 544.000000  magneticMoment: [ Abs: 0.00000  Tot: -0.00000 ]
	SubspaceRotationAdjust: set factor to 0.0166
ElecMinimize: Iter:  18  F: -3025.081001015167203  |grad|_K:  4.038e-08  alpha:  6.810e-01  linmin: -1.732e-05  t[s]:   4430.34
	FillingsUpdate:  mu: +0.313021662  nElectrons: 544.000000  magneticMoment: [ Abs: 0.00000  Tot: -0.00000 ]
	SubspaceRotationAdjust: set factor to 0.018
ElecMinimize: Iter:  19  F: -3025.081001546912830  |grad|_K:  4.103e-08  alpha:  7.656e-01  linmin: -2.093e-05  t[s]:   4535.15
	FillingsUpdate:  mu: +0.313007059  nElectrons: 544.000000  magneticMoment: [ Abs: 0.00000  Tot: -0.00000 ]
	SubspaceRotationAdjust: set factor to 0.0156
ElecMinimize: Iter:  20  F: -3025.081001934848246  |grad|_K:  4.432e-08  alpha:  5.413e-01  linmin: -1.041e-05  t[s]:   4640.42
	FillingsUpdate:  mu: +0.312994554  nElectrons: 544.000000  magneticMoment: [ Abs: 0.00000  Tot: -0.00000 ]
	SubspaceRotationAdjust: set factor to 0.0122
ElecMinimize: Iter:  21  F: -3025.081002224744225  |grad|_K:  3.301e-08  alpha:  3.463e-01  linmin:  1.383e-05  t[s]:   4745.08
	FillingsUpdate:  mu: +0.312990238  nElectrons: 544.000000  magneticMoment: [ Abs: 0.00000  Tot: -0.00000 ]
	SubspaceRotationAdjust: set factor to 0.0138
ElecMinimize: Iter:  22  F: -3025.081002492016069  |grad|_K:  2.548e-08  alpha:  5.752e-01  linmin: -7.631e-05  t[s]:   4849.69
	FillingsUpdate:  mu: +0.312987665  nElectrons: 544.000000  magneticMoment: [ Abs: 0.00000  Tot: -0.00000 ]
	SubspaceRotationAdjust: set factor to 0.0144
ElecMinimize: Iter:  23  F: -3025.081002651211747  |grad|_K:  2.126e-08  alpha:  5.748e-01  linmin: -6.995e-05  t[s]:   4954.52
	FillingsUpdate:  mu: +0.312985088  nElectrons: 544.000000  magneticMoment: [ Abs: 0.00000  Tot: -0.00000 ]
	SubspaceRotationAdjust: set factor to 0.0128
ElecMinimize: Iter:  24  F: -3025.081002737589642  |grad|_K:  1.813e-08  alpha:  4.485e-01  linmin: -8.652e-05  t[s]:   5059.22
	FillingsUpdate:  mu: +0.312987155  nElectrons: 544.000000  magneticMoment: [ Abs: 0.00000  Tot: -0.00000 ]
	SubspaceRotationAdjust: set factor to 0.0124
ElecMinimize: Iter:  25  F: -3025.081002800907754  |grad|_K:  1.406e-08  alpha:  4.517e-01  linmin:  5.254e-04  t[s]:   5163.69
ElecMinimize: Converged (|Delta F|<1.000000e-07 for 2 iters).
Setting wave functions to eigenvectors of Hamiltonian
Converging empty states (this may take a while): |deigs|: 7.754e-09

Computing DFT-D3 correction:
# coordination-number Pt 7.096 9.391 5.903 7.123 9.383 9.527 9.566 9.257 9.541 9.570 9.548 9.387 9.569 9.571 9.327 7.130 7.543 9.321 9.570 7.533 9.377 9.546 9.569 9.265 9.563 9.568 9.530 9.389 7.123 9.546 9.397 7.097 7.133 5.902
# diagonal-C6 Pt 336.87 336.87 336.87 336.87 336.87 336.87 336.87 336.87 336.87 336.87 336.87 336.87 336.87 336.87 336.87 336.87 336.87 336.87 336.87 336.87 336.87 336.87 336.87 336.87 336.87 336.87 336.87 336.87 336.87 336.87 336.87 336.87 336.87 336.87
EvdW_6 =   -0.316104
EvdW_8 =   -0.498851

# Ionic positions in cartesian coordinates:
ion Pt  -0.000884015713654  12.452176425672963   1.395266170127574 1
ion Pt   5.231130766403828  16.566237041921834   5.108082107288128 1
ion Pt   5.232899463318242  21.888069978151481  29.784564072967051 1
ion Pt   5.230872875306390   3.759407534942692   2.905183461496340 1
ion Pt   5.231350540185103   7.585445870880807   6.747536865070623 1
ion Pt   5.231496549328899  11.444234336504989  10.403353611941469 1
ion Pt   0.000229257634716  18.996083433544101  17.495417344186201 1
ion Pt   5.231239799556368  20.405786774306456   8.465844885748366 1
ion Pt   5.231807313308257   2.550747994304266  12.029329651044032 1
ion Pt   5.232115772843184   6.334054031081410  15.653913520507000 1
ion Pt   0.000335257422955  10.163124720305545  19.305832006684494 1
ion Pt   0.000804862008633  13.974652607715322  23.035257825047129 1
ion Pt   5.231663061403046  15.254933596563058  13.959881428635141 1
ion Pt   5.232649635411713   1.188413000453201  21.004090389232125 1
ion Pt   0.000798386137393   5.089247486545101  24.548478288493332 1
ion Pt   0.001033279458064   9.002279327195478  28.331026463889117 1
ion Pt   5.232929099215522  17.728817753574646  26.867640714209752 1
ion Pt   2.615282393566402  12.039860236517207   5.958529514889116 1
ion Pt   2.615305414079921  15.945270339866180   9.505128806458087 1
ion Pt   2.614883464299465  20.970640825104528   3.634903983271613 1
ion Pt   2.615289203447164   3.156240060391994   7.470747482644629 1
ion Pt   2.615707167292980   6.971129352378008  11.204606713765777 1
ion Pt   2.615830106374286  10.800461943533275  14.854473919547850 1
ion Pt   2.616718311283156  18.296789861251206  22.041084804756697 1
ion Pt   2.615685804616906  19.710295013377142  13.014108325233890 1
ion Pt   2.616287176316602   1.881086809769072  16.549344617119317 1
ion Pt   2.616526821838907   5.690111680947830  20.107445124374966 1
ion Pt   2.616806723303193   9.545918549338706  23.759693271264162 1
ion Pt   2.617047798960090  13.368957661387807  27.601151892512817 1
ion Pt   2.616211286563965  14.584871570540042  18.479865754512041 1
ion Pt   2.616819299070272   0.562903611857977  25.399053738671313 1
ion Pt   2.616943072046825   4.671987537019815  29.110355522836304 1
ion Pt   2.615033228136602   8.124493913262853   2.175861663871335 1
ion Pt   2.615072825574602  16.806467119793201   0.720645057702294 1

# Forces in Cartesian coordinates:
force Pt  -0.000002525861360  -0.000073145424754   0.000016784494749 1
force Pt  -0.000001578829404  -0.000166280693723  -0.000027296939825 1
force Pt   0.000001571550350   0.000130992911946   0.000290790016939 1
force Pt  -0.000001056401654  -0.000197546151578  -0.000137009938972 1
force Pt  -0.000001887118215  -0.000236321175279   0.000171857139925 1
force Pt   0.000000484874952  -0.000113273393939  -0.000212767382933 1
force Pt   0.000000886347187  -0.000006090956068   0.000072321543241 1
force Pt  -0.000001244988804   0.000236457552578   0.000170994001595 1
force Pt   0.000000694033738  -0.000324982049895   0.000241342793570 1
force Pt   0.000000779492573  -0.000155605872935   0.000498313754808 1
force Pt  -0.000000620042848   0.000246571353267  -0.000181340269325 1
force Pt   0.000000231868274   0.000192271058338   0.000004894451054 1
force Pt   0.000000842319870  -0.000187724205044  -0.000138189712125 1
force Pt   0.000000975860436   0.000150485061234   0.000206081662258 1
force Pt   0.000001251126842   0.000269078731622   0.000093553861537 1
force Pt   0.000001172933696   0.000083917316192   0.000147884914131 1
force Pt   0.000002553410900  -0.000067564166444  -0.000067101852620 1
force Pt  -0.000001053689731  -0.000199999354159   0.000128162419515 1
force Pt   0.000000057498166  -0.000266075727619  -0.000206799758703 1
force Pt  -0.000001844153985   0.000058287099450   0.000139223295700 1
force Pt  -0.000002046407306  -0.000296277502433   0.000221610341435 1
force Pt   0.000000547029902  -0.000281354767303  -0.000031966190214 1
force Pt   0.000000780009688   0.000227221820386   0.000015213128185 1
force Pt   0.000001104620000  -0.000031425773656  -0.000016998778576 1
force Pt   0.000001152568549   0.000137050592864   0.000059037930077 1
force Pt   0.000000952425576   0.000095602336372   0.000406424076832 1
force Pt   0.000000269398896   0.000153756619574   0.000031905491177 1
force Pt  -0.000000414447116   0.000211165488320   0.000092883709991 1
force Pt   0.000001179210071   0.000124857677144   0.000114445775741 1
force Pt   0.000000050369156   0.000066169822585  -0.000323861223833 1
force Pt   0.000001961132425   0.000115200634178  -0.000000631839684 1
force Pt   0.000001949818133   0.000206657472846   0.000006953593577 1
force Pt  -0.000001101293006  -0.000094041339940  -0.000219459150477 1
force Pt  -0.000002533022998  -0.000061853937503  -0.000115251191571 1

# Energy components:
   Eewald =    18276.3634667802143667
       EH =    21108.3607432852404600
     Eloc =   -42934.2824204550997820
      Enl =      -35.8753061638612962
     EvdW =       -0.8149553424157616
      Exc =     -967.3484747336748342
 Exc_core =      557.3069494546059559
       KE =      971.2148893717117062
-------------------------------------
     Etot =    -3025.0751078032794794
       TS =        0.0058949976283092
-------------------------------------
        F =    -3025.0810028009077541


Dumping 'jdft.fillings' ... done
Dumping 'jdft.wfns' ... done
Dumping 'jdft.ionpos' ... done
Dumping 'jdft.lattice' ... done
Dumping 'jdft.eigenvals' ... done
Dumping 'jdft.eigStats' ... 
	eMin: -1.637853 at state 23 ( [ +0.000000 +0.500000 +0.000000 ] spin -1 )
	HOMO: +0.312624 at state 0 ( [ +0.000000 +0.000000 +0.000000 ] spin 1 )
	mu  : +0.312987
	LUMO: +0.313059 at state 43 ( [ -0.090909 +0.500000 +0.000000 ] spin -1 )
	eMax: +0.623006 at state 8 ( [ +0.363636 +0.000000 +0.000000 ] spin 1 )
	HOMO-LUMO gap: +0.000435
	Optical gap  : +0.000628 at state 10 ( [ +0.454545 +0.000000 +0.000000 ] spin 1 )
Dumping 'jdft.Ecomponents' ... done
IonicMinimize: Iter:   2  F: -3025.081002800907754  |grad|_K:  1.461e-04  alpha:  1.000e+00  linmin: -2.429e-01  t[s]:   5274.77

#--- Lowdin population analysis ---
# oxidation-state Pt -0.003 -0.015 +0.047 +0.019 +0.013 +0.009 +0.014 +0.013 +0.013 +0.006 +0.013 +0.013 +0.008 +0.013 +0.011 +0.008 -0.008 +0.008 +0.010 -0.010 +0.010 +0.011 +0.007 +0.017 +0.013 +0.008 +0.011 +0.015 +0.021 +0.016 -0.011 -0.001 +0.007 +0.043
# magnetic-moments Pt -0.000 -0.000 -0.000 -0.000 -0.000 -0.000 -0.000 -0.000 -0.000 -0.000 -0.000 -0.000 -0.000 -0.000 -0.000 -0.000 -0.000 -0.000 -0.000 -0.000 -0.000 -0.000 -0.000 -0.000 -0.000 -0.000 -0.000 -0.000 -0.000 -0.000 -0.000 -0.000 -0.000 -0.000


Computing DFT-D3 correction:
# coordination-number Pt 7.096 9.390 5.901 7.122 9.383 9.527 9.566 9.259 9.540 9.568 9.544 9.384 9.569 9.570 9.324 7.129 7.543 9.319 9.570 7.535 9.377 9.544 9.567 9.264 9.566 9.567 9.527 9.386 7.122 9.542 9.395 7.098 7.131 5.901
# diagonal-C6 Pt 336.87 336.87 336.87 336.87 336.87 336.87 336.87 336.87 336.87 336.87 336.87 336.87 336.87 336.87 336.87 336.87 336.87 336.87 336.87 336.87 336.87 336.87 336.87 336.87 336.87 336.87 336.87 336.87 336.87 336.87 336.87 336.87 336.87 336.87
EvdW_6 =   -0.316081
EvdW_8 =   -0.498804

-------- Electronic minimization -----------
	FillingsUpdate:  mu: +0.314814750  nElectrons: 544.000000  magneticMoment: [ Abs: 0.00000  Tot: -0.00000 ]
ElecMinimize: Iter:   0  F: -3025.080823523616345  |grad|_K:  1.437e-06  alpha:  1.000e+00
	FillingsUpdate:  mu: +0.313448309  nElectrons: 544.000000  magneticMoment: [ Abs: 0.00000  Tot: -0.00000 ]
	SubspaceRotationAdjust: set factor to 0.0238
ElecMinimize: Iter:   1  F: -3025.080987203969471  |grad|_K:  2.504e-07  alpha:  1.863e-01  linmin:  4.054e-04  t[s]:   5470.00
	FillingsUpdate:  mu: +0.313107171  nElectrons: 544.000000  magneticMoment: [ Abs: 0.00000  Tot: -0.00000 ]
	SubspaceRotationAdjust: set factor to 0.0292
ElecMinimize: Iter:   2  F: -3025.080998098852888  |grad|_K:  1.272e-07  alpha:  4.084e-01  linmin: -5.027e-05  t[s]:   5574.02
	FillingsUpdate:  mu: +0.313099016  nElectrons: 544.000000  magneticMoment: [ Abs: 0.00000  Tot: -0.00000 ]
	SubspaceRotationAdjust: set factor to 0.0332
ElecMinimize: Iter:   3  F: -3025.081001616364119  |grad|_K:  1.014e-07  alpha:  5.110e-01  linmin:  2.997e-05  t[s]:   5678.68
	FillingsUpdate:  mu: +0.313049025  nElectrons: 544.000000  magneticMoment: [ Abs: 0.00000  Tot: -0.00000 ]
	SubspaceRotationAdjust: set factor to 0.0236
ElecMinimize: Iter:   4  F: -3025.081003081074414  |grad|_K:  1.234e-07  alpha:  3.348e-01  linmin: -8.019e-06  t[s]:   5784.04
	FillingsUpdate:  mu: +0.312996520  nElectrons: 544.000000  magneticMoment: [ Abs: 0.00000  Tot: -0.00000 ]
	SubspaceRotationAdjust: set factor to 0.0179
ElecMinimize: Iter:   5  F: -3025.081004480727188  |grad|_K:  7.560e-08  alpha:  2.159e-01  linmin:  4.398e-06  t[s]:   5888.50
ElecMinimize: 	Predicted alpha/alphaT>3.000000, increasing alphaT to 6.477144e-01.
	FillingsUpdate:  mu: +0.313032277  nElectrons: 544.000000  magneticMoment: [ Abs: 0.00000  Tot: -0.00000 ]
	SubspaceRotationAdjust: set factor to 0.0221
ElecMinimize: Iter:   6  F: -3025.081006090741539  |grad|_K:  6.303e-08  alpha:  6.617e-01  linmin:  1.492e-05  t[s]:   6018.95
	FillingsUpdate:  mu: +0.312966649  nElectrons: 544.000000  magneticMoment: [ Abs: 0.00000  Tot: -0.00000 ]
	SubspaceRotationAdjust: set factor to 0.0228
ElecMinimize: Iter:   7  F: -3025.081007237151425  |grad|_K:  6.430e-08  alpha:  6.779e-01  linmin: -2.203e-05  t[s]:   6123.65
	FillingsUpdate:  mu: +0.312984257  nElectrons: 544.000000  magneticMoment: [ Abs: 0.00000  Tot: -0.00000 ]
	SubspaceRotationAdjust: set factor to 0.0182
ElecMinimize: Iter:   8  F: -3025.081007941444113  |grad|_K:  7.252e-08  alpha:  4.000e-01  linmin: -1.028e-05  t[s]:   6228.13
	FillingsUpdate:  mu: +0.313001801  nElectrons: 544.000000  magneticMoment: [ Abs: 0.00000  Tot: -0.00000 ]
	SubspaceRotationAdjust: set factor to 0.016
ElecMinimize: Iter:   9  F: -3025.081008702237796  |grad|_K:  5.488e-08  alpha:  3.398e-01  linmin:  5.828e-06  t[s]:   6332.74
	FillingsUpdate:  mu: +0.312924772  nElectrons: 544.000000  magneticMoment: [ Abs: 0.00000  Tot: -0.00000 ]
	SubspaceRotationAdjust: set factor to 0.0188
ElecMinimize: Iter:  10  F: -3025.081009535647809  |grad|_K:  4.924e-08  alpha:  6.488e-01  linmin: -7.153e-05  t[s]:   6437.15
	FillingsUpdate:  mu: +0.312969344  nElectrons: 544.000000  magneticMoment: [ Abs: 0.00000  Tot: -0.00000 ]
	SubspaceRotationAdjust: set factor to 0.02
ElecMinimize: Iter:  11  F: -3025.081010217083985  |grad|_K:  5.326e-08  alpha:  6.590e-01  linmin:  8.240e-06  t[s]:   6541.22
	FillingsUpdate:  mu: +0.312976842  nElectrons: 544.000000  magneticMoment: [ Abs: 0.00000  Tot: -0.00000 ]
	SubspaceRotationAdjust: set factor to 0.0177
ElecMinimize: Iter:  12  F: -3025.081010775360483  |grad|_K:  6.221e-08  alpha:  4.628e-01  linmin: -9.291e-06  t[s]:   6645.68
	FillingsUpdate:  mu: +0.312943576  nElectrons: 544.000000  magneticMoment: [ Abs: 0.00000  Tot: -0.00000 ]
	SubspaceRotationAdjust: set factor to 0.0163
ElecMinimize: Iter:  13  F: -3025.081011502607453  |grad|_K:  5.588e-08  alpha:  4.411e-01  linmin:  1.729e-05  t[s]:   6750.21
	FillingsUpdate:  mu: +0.312961189  nElectrons: 544.000000  magneticMoment: [ Abs: 0.00000  Tot: -0.00000 ]
	SubspaceRotationAdjust: set factor to 0.0178
ElecMinimize: Iter:  14  F: -3025.081012512565394  |grad|_K:  5.646e-08  alpha:  7.602e-01  linmin: -4.360e-06  t[s]:   6854.65
	FillingsUpdate:  mu: +0.312997672  nElectrons: 544.000000  magneticMoment: [ Abs: 0.00000  Tot: -0.00000 ]
	SubspaceRotationAdjust: set factor to 0.0185
ElecMinimize: Iter:  15  F: -3025.081013522291414  |grad|_K:  5.705e-08  alpha:  7.441e-01  linmin: -7.305e-07  t[s]:   6960.02
	FillingsUpdate:  mu: +0.312986781  nElectrons: 544.000000  magneticMoment: [ Abs: 0.00000  Tot: -0.00000 ]
	SubspaceRotationAdjust: set factor to 0.0151
ElecMinimize: Iter:  16  F: -3025.081014150669034  |grad|_K:  5.920e-08  alpha:  4.534e-01  linmin:  2.561e-07  t[s]:   7064.75
	FillingsUpdate:  mu: +0.312982694  nElectrons: 544.000000  magneticMoment: [ Abs: 0.00000  Tot: -0.00000 ]
	SubspaceRotationAdjust: set factor to 0.0123
ElecMinimize: Iter:  17  F: -3025.081014687036259  |grad|_K:  4.194e-08  alpha:  3.596e-01  linmin: -2.949e-06  t[s]:   7169.27
	FillingsUpdate:  mu: +0.313011241  nElectrons: 544.000000  magneticMoment: [ Abs: 0.00000  Tot: -0.00000 ]
	SubspaceRotationAdjust: set factor to 0.014
ElecMinimize: Iter:  18  F: -3025.081015128166200  |grad|_K:  3.196e-08  alpha:  5.881e-01  linmin: -4.890e-05  t[s]:   7273.96
	FillingsUpdate:  mu: +0.312998419  nElectrons: 544.000000  magneticMoment: [ Abs: 0.00000  Tot: -0.00000 ]
	SubspaceRotationAdjust: set factor to 0.0141
ElecMinimize: Iter:  19  F: -3025.081015362366088  |grad|_K:  2.671e-08  alpha:  5.381e-01  linmin: -5.736e-05  t[s]:   7378.34
	FillingsUpdate:  mu: +0.313001257  nElectrons: 544.000000  magneticMoment: [ Abs: 0.00000  Tot: -0.00000 ]
	SubspaceRotationAdjust: set factor to 0.0125
ElecMinimize: Iter:  20  F: -3025.081015491644848  |grad|_K:  2.209e-08  alpha:  4.246e-01  linmin: -2.392e-05  t[s]:   7483.11
	FillingsUpdate:  mu: +0.313009879  nElectrons: 544.000000  magneticMoment: [ Abs: 0.00000  Tot: -0.00000 ]
	SubspaceRotationAdjust: set factor to 0.013
ElecMinimize: Iter:  21  F: -3025.081015591425057  |grad|_K:  1.710e-08  alpha:  4.808e-01  linmin:  7.544e-05  t[s]:   7587.53
	FillingsUpdate:  mu: +0.313000705  nElectrons: 544.000000  magneticMoment: [ Abs: 0.00000  Tot: -0.00000 ]
	SubspaceRotationAdjust: set factor to 0.0152
ElecMinimize: Iter:  22  F: -3025.081015670543366  |grad|_K:  1.593e-08  alpha:  6.424e-01  linmin:  5.346e-04  t[s]:   7692.62
ElecMinimize: Converged (|Delta F|<1.000000e-07 for 2 iters).
Setting wave functions to eigenvectors of Hamiltonian
Converging empty states (this may take a while): |deigs|: 5.165e-09

Computing DFT-D3 correction:
# coordination-number Pt 7.096 9.390 5.901 7.122 9.383 9.527 9.566 9.259 9.540 9.568 9.544 9.384 9.569 9.570 9.324 7.129 7.543 9.319 9.570 7.535 9.377 9.544 9.567 9.264 9.566 9.567 9.527 9.386 7.122 9.542 9.395 7.098 7.131 5.901
# diagonal-C6 Pt 336.87 336.87 336.87 336.87 336.87 336.87 336.87 336.87 336.87 336.87 336.87 336.87 336.87 336.87 336.87 336.87 336.87 336.87 336.87 336.87 336.87 336.87 336.87 336.87 336.87 336.87 336.87 336.87 336.87 336.87 336.87 336.87 336.87 336.87
EvdW_6 =   -0.316081
EvdW_8 =   -0.498804

# Ionic positions in cartesian coordinates:
ion Pt  -0.000912501085943  12.451435629341978   1.395226989620088 1
ion Pt   5.231113105210333  16.565851292343812   5.107029078998595 1
ion Pt   5.232912534115552  21.889600535242923  29.786691190464218 1
ion Pt   5.230863309377741   3.758798269828196   2.903083985459543 1
ion Pt   5.231329830740528   7.582304730932313   6.747089693877686 1
ion Pt   5.231500830859718  11.442195478361405  10.401143984747467 1
ion Pt   0.000236758833790  18.996426605641346  17.494985519925660 1
ion Pt   5.231224304311416  20.405620532961564   8.465996053786959 1
ion Pt   5.231815846471251   2.548592568258910  12.031602140391122 1
ion Pt   5.232122611625119   6.333785128398204  15.655298898902887 1
ion Pt   0.000324975621580  10.165535958081543  19.304707962135684 1
ion Pt   0.000806195224625  13.975686858266323  23.035487901154898 1
ion Pt   5.231673746696093  15.255103998466579  13.955868653431773 1
ion Pt   5.232657352909250   1.189164121478290  21.006372927201674 1
ion Pt   0.000810490676377   5.091680243020508  24.549776452620623 1
ion Pt   0.001043896695881   9.003928093965291  28.333252055068023 1
ion Pt   5.232955111821108  17.729302810742720  26.867576918584948 1
ion Pt   2.615270554431718  12.037136278398748   5.957924305473564 1
ion Pt   2.615305794249907  15.944391976928387   9.502808169107011 1
ion Pt   2.614863893286098  20.970359708789950   3.635910084456220 1
ion Pt   2.615265450768971   3.154992331809301   7.471016935545718 1
ion Pt   2.615710706796009   6.968603252914876  11.204800870788114 1
ion Pt   2.615838547272571  10.800629979174792  14.851895296494488 1
ion Pt   2.616728428354040  18.297210249640710  22.041103186871730 1
ion Pt   2.615695953153777  19.710003010466696  13.013716619792477 1
ion Pt   2.616295325893573   1.880726939690604  16.552316545796444 1
ion Pt   2.616529054511833   5.692025236436183  20.108911806496732 1
ion Pt   2.616801026890656   9.548827864775703  23.760551325503901 1
ion Pt   2.617059339032572  13.369578029454365  27.603623829752358 1
ion Pt   2.616210255415678  14.586418489527777  18.476730237601469 1
ion Pt   2.616835630371394   0.563467727969355  25.400812369244786 1
ion Pt   2.616963927598225   4.673217338565055  29.110979002884388 1
ion Pt   2.615022473786258   8.122841789708191   2.174003429159513 1
ion Pt   2.615047238082294  16.805754940417586   0.719404578659322 1

# Forces in Cartesian coordinates:
force Pt  -0.000001788654549  -0.000100652678804   0.000072747073795 1
force Pt  -0.000001283675498  -0.000261933224485  -0.000056299946579 1
force Pt   0.000001810803140   0.000065424879620   0.000193132296577 1
force Pt  -0.000001486172199  -0.000248365531698  -0.000017006446849 1
force Pt  -0.000001284301097  -0.000123365158963   0.000092819739889 1
force Pt   0.000000243595559  -0.000091951441751  -0.000257053918736 1
force Pt   0.000000753469856  -0.000032685193368   0.000077334031055 1
force Pt  -0.000000849471923   0.000209641158212   0.000081435862046 1
force Pt   0.000000029176973  -0.000189868186025   0.000082422267478 1
force Pt   0.000000806211624  -0.000131912395301   0.000392164113366 1
force Pt  -0.000000078360090   0.000225250657751  -0.000177058680583 1
force Pt   0.000000340571415   0.000249072577408   0.000009071162307 1
force Pt  -0.000000170961839  -0.000230510028761  -0.000033824740003 1
force Pt   0.000001124619714   0.000142022621846   0.000205302304664 1
force Pt   0.000000731579319   0.000220860951444   0.000156696276727 1
force Pt   0.000000950241105   0.000051116529560   0.000266055259727 1
force Pt   0.000001891036407  -0.000091904449894   0.000100016402658 1
force Pt  -0.000000980464275  -0.000105239165626   0.000015088625082 1
force Pt  -0.000000024420875  -0.000279051571564  -0.000286750545431 1
force Pt  -0.000001456303234   0.000060062460943   0.000051344801801 1
force Pt  -0.000001320870392  -0.000319119142078   0.000165764283751 1
force Pt   0.000000209042785  -0.000274831801439  -0.000082418507701 1
force Pt   0.000000263171544   0.000211575643447   0.000079962728916 1
force Pt   0.000000898598522  -0.000056188217676   0.000013476884746 1
force Pt   0.000000782493615   0.000125197586996   0.000001459237746 1
force Pt   0.000000924695357   0.000146085893741   0.000272479351953 1
force Pt   0.000000213376696   0.000141298361879   0.000035658313082 1
force Pt  -0.000000135059628   0.000103020840408   0.000142316873011 1
force Pt   0.000001056138506   0.000194246590626   0.000163556351018 1
force Pt   0.000000228440069  -0.000000107812225  -0.000210808569432 1
force Pt   0.000001929266405   0.000144529272272   0.000031231877322 1
force Pt   0.000001181410689   0.000270167924015   0.000086536466853 1
force Pt  -0.000001613722801   0.000007151916008  -0.000150239868484 1
force Pt  -0.000002524122413  -0.000047521916640  -0.000012238961152 1

# Energy components:
   Eewald =    18272.5641630298741802
       EH =    21104.5770119422231801
     Eloc =   -42926.6977467333999812
      Enl =      -35.8761630439907222
     EvdW =       -0.8148845057973589
      Exc =     -967.3469371414630587
 Exc_core =      557.3069501351997133
       KE =      971.2124804518957717
-------------------------------------
     Etot =    -3025.0751258654545381
       TS =        0.0058898050889621
-------------------------------------
        F =    -3025.0810156705433656


Dumping 'jdft.fillings' ... done
Dumping 'jdft.wfns' ... done
Dumping 'jdft.ionpos' ... done
Dumping 'jdft.lattice' ... done
Dumping 'jdft.eigenvals' ... done
Dumping 'jdft.eigStats' ... 
	eMin: -1.637817 at state 23 ( [ +0.000000 +0.500000 +0.000000 ] spin -1 )
	HOMO: +0.312631 at state 10 ( [ +0.454545 +0.000000 +0.000000 ] spin 1 )
	mu  : +0.313001
	LUMO: +0.313076 at state 25 ( [ +0.090909 +0.500000 +0.000000 ] spin -1 )
	eMax: +0.623031 at state 8 ( [ +0.363636 +0.000000 +0.000000 ] spin 1 )
	HOMO-LUMO gap: +0.000445
	Optical gap  : +0.000653 at state 12 ( [ -0.454545 +0.000000 +0.000000 ] spin 1 )
Dumping 'jdft.Ecomponents' ... done
IonicMinimize: Iter:   3  F: -3025.081015670543366  |grad|_K:  1.315e-04  alpha:  1.000e+00  linmin: -6.571e-01  t[s]:   7803.42

#--- Lowdin population analysis ---
# oxidation-state Pt -0.005 -0.013 +0.044 +0.018 +0.013 +0.010 +0.012 +0.016 +0.014 +0.005 +0.012 +0.012 +0.007 +0.013 +0.012 +0.009 -0.008 +0.010 +0.013 -0.009 +0.011 +0.012 +0.005 +0.016 +0.013 +0.007 +0.011 +0.016 +0.021 +0.014 -0.012 -0.002 +0.006 +0.043
# magnetic-moments Pt -0.000 -0.000 -0.000 -0.000 -0.000 -0.000 -0.000 -0.000 -0.000 -0.000 -0.000 -0.000 -0.000 -0.000 -0.000 -0.000 -0.000 -0.000 -0.000 -0.000 -0.000 -0.000 -0.000 -0.000 -0.000 -0.000 -0.000 -0.000 -0.000 -0.000 -0.000 -0.000 -0.000 -0.000


Computing DFT-D3 correction:
# coordination-number Pt 7.111 9.394 5.893 7.115 9.381 9.523 9.557 9.273 9.539 9.547 9.517 9.352 9.563 9.551 9.308 7.117 7.535 9.332 9.571 7.548 9.380 9.531 9.549 9.248 9.567 9.557 9.504 9.355 7.105 9.524 9.377 7.100 7.126 5.897
# diagonal-C6 Pt 336.87 336.87 336.87 336.87 336.87 336.87 336.87 336.87 336.87 336.87 336.87 336.87 336.87 336.87 336.87 336.87 336.87 336.87 336.87 336.87 336.87 336.87 336.87 336.87 336.87 336.87 336.87 336.87 336.87 336.87 336.87 336.87 336.87 336.87
EvdW_6 =   -0.315881
EvdW_8 =   -0.498424

-------- Electronic minimization -----------
	FillingsUpdate:  mu: +0.395182111  nElectrons: 544.000000  magneticMoment: [ Abs: 0.00000  Tot: -0.00000 ]
ElecMinimize: Iter:   0  F: -3024.739122540991048  |grad|_K:  4.790e-05  alpha:  1.000e+00
	FillingsUpdate:  mu: +0.320997300  nElectrons: 544.000000  magneticMoment: [ Abs: 0.00000  Tot: -0.00000 ]
	SubspaceRotationAdjust: set factor to 0.0117
ElecMinimize: Iter:   1  F: -3025.028463201799241  |grad|_K:  1.513e-05  alpha:  2.971e-01  linmin:  3.254e-03  t[s]:   7993.61
	FillingsUpdate:  mu: +0.318437365  nElectrons: 544.000000  magneticMoment: [ Abs: 0.00000  Tot: -0.00000 ]
	SubspaceRotationAdjust: set factor to 0.00725
ElecMinimize: Iter:   2  F: -3025.056504456211314  |grad|_K:  6.575e-06  alpha:  2.885e-01  linmin:  4.272e-04  t[s]:   8097.87
	FillingsUpdate:  mu: +0.315486632  nElectrons: 544.000000  magneticMoment: [ Abs: 0.00000  Tot: -0.00000 ]
	SubspaceRotationAdjust: set factor to 0.00594
ElecMinimize: Iter:   3  F: -3025.062146550497346  |grad|_K:  2.829e-06  alpha:  3.069e-01  linmin:  1.359e-04  t[s]:   8202.56
	FillingsUpdate:  mu: +0.313052647  nElectrons: 544.000000  magneticMoment: [ Abs: 0.00000  Tot: -0.00000 ]
	SubspaceRotationAdjust: set factor to 0.00694
ElecMinimize: Iter:   4  F: -3025.063600548925933  |grad|_K:  1.742e-06  alpha:  4.268e-01  linmin:  4.222e-06  t[s]:   8307.34
	FillingsUpdate:  mu: +0.312554926  nElectrons: 544.000000  magneticMoment: [ Abs: 0.00000  Tot: -0.00000 ]
	SubspaceRotationAdjust: set factor to 0.00781
ElecMinimize: Iter:   5  F: -3025.064302874911846  |grad|_K:  1.231e-06  alpha:  5.438e-01  linmin:  2.891e-06  t[s]:   8412.00
	FillingsUpdate:  mu: +0.313653676  nElectrons: 544.000000  magneticMoment: [ Abs: 0.00000  Tot: -0.00000 ]
	SubspaceRotationAdjust: set factor to 0.0103
ElecMinimize: Iter:   6  F: -3025.064629746795617  |grad|_K:  9.556e-07  alpha:  5.067e-01  linmin: -6.661e-07  t[s]:   8516.72
	FillingsUpdate:  mu: +0.313864846  nElectrons: 544.000000  magneticMoment: [ Abs: 0.00000  Tot: -0.00000 ]
	SubspaceRotationAdjust: set factor to 0.0124
ElecMinimize: Iter:   7  F: -3025.064983740391199  |grad|_K:  1.317e-06  alpha:  9.105e-01  linmin: -3.900e-07  t[s]:   8621.39
	FillingsUpdate:  mu: +0.314130681  nElectrons: 544.000000  magneticMoment: [ Abs: 0.00000  Tot: -0.00000 ]
	SubspaceRotationAdjust: set factor to 0.0136
ElecMinimize: Iter:   8  F: -3025.065707306765489  |grad|_K:  1.866e-06  alpha:  9.794e-01  linmin: -2.573e-06  t[s]:   8725.68
	FillingsUpdate:  mu: +0.315092150  nElectrons: 544.000000  magneticMoment: [ Abs: 0.00000  Tot: -0.00000 ]
	SubspaceRotationAdjust: set factor to 0.0136
ElecMinimize: Iter:   9  F: -3025.067011006287430  |grad|_K:  2.644e-06  alpha:  8.792e-01  linmin:  3.788e-06  t[s]:   8830.84
	FillingsUpdate:  mu: +0.315520900  nElectrons: 544.000000  magneticMoment: [ Abs: 0.00000  Tot: -0.00000 ]
	SubspaceRotationAdjust: set factor to 0.0133
ElecMinimize: Iter:  10  F: -3025.069340263886261  |grad|_K:  3.316e-06  alpha:  7.836e-01  linmin: -1.158e-05  t[s]:   8935.16
	FillingsUpdate:  mu: +0.314716566  nElectrons: 544.000000  magneticMoment: [ Abs: 0.00000  Tot: -0.00000 ]
	SubspaceRotationAdjust: set factor to 0.0134
ElecMinimize: Iter:  11  F: -3025.072736914101824  |grad|_K:  3.418e-06  alpha:  7.235e-01  linmin:  1.083e-05  t[s]:   9039.64
	FillingsUpdate:  mu: +0.314936184  nElectrons: 544.000000  magneticMoment: [ Abs: 0.00000  Tot: -0.00000 ]
	SubspaceRotationAdjust: set factor to 0.0138
ElecMinimize: Iter:  12  F: -3025.075911404897852  |grad|_K:  3.120e-06  alpha:  6.398e-01  linmin: -3.584e-06  t[s]:   9144.36
	FillingsUpdate:  mu: +0.314353036  nElectrons: 544.000000  magneticMoment: [ Abs: 0.00000  Tot: -0.00000 ]
	SubspaceRotationAdjust: set factor to 0.0144
ElecMinimize: Iter:  13  F: -3025.078359613755765  |grad|_K:  2.498e-06  alpha:  5.903e-01  linmin: -3.424e-06  t[s]:   9248.88
	FillingsUpdate:  mu: +0.313212936  nElectrons: 544.000000  magneticMoment: [ Abs: 0.00000  Tot: -0.00000 ]
	SubspaceRotationAdjust: set factor to 0.0138
ElecMinimize: Iter:  14  F: -3025.079586653840124  |grad|_K:  1.810e-06  alpha:  4.614e-01  linmin:  4.719e-06  t[s]:   9354.09
	FillingsUpdate:  mu: +0.312774199  nElectrons: 544.000000  magneticMoment: [ Abs: 0.00000  Tot: -0.00000 ]
	SubspaceRotationAdjust: set factor to 0.0122
ElecMinimize: Iter:  15  F: -3025.080168291655355  |grad|_K:  1.295e-06  alpha:  4.174e-01  linmin: -3.622e-06  t[s]:   9458.70
	FillingsUpdate:  mu: +0.312500832  nElectrons: 544.000000  magneticMoment: [ Abs: 0.00000  Tot: -0.00000 ]
	SubspaceRotationAdjust: set factor to 0.0113
ElecMinimize: Iter:  16  F: -3025.080474814997160  |grad|_K:  8.547e-07  alpha:  4.294e-01  linmin:  2.084e-06  t[s]:   9563.12
	FillingsUpdate:  mu: +0.312200287  nElectrons: 544.000000  magneticMoment: [ Abs: 0.00000  Tot: -0.00000 ]
	SubspaceRotationAdjust: set factor to 0.0129
ElecMinimize: Iter:  17  F: -3025.080618554065495  |grad|_K:  5.696e-07  alpha:  4.622e-01  linmin: -4.901e-07  t[s]:   9667.68
	FillingsUpdate:  mu: +0.312153919  nElectrons: 544.000000  magneticMoment: [ Abs: 0.00000  Tot: -0.00000 ]
	SubspaceRotationAdjust: set factor to 0.0146
ElecMinimize: Iter:  18  F: -3025.080686472173056  |grad|_K:  4.324e-07  alpha:  4.916e-01  linmin: -7.460e-07  t[s]:   9772.41
	FillingsUpdate:  mu: +0.312180206  nElectrons: 544.000000  magneticMoment: [ Abs: 0.00000  Tot: -0.00000 ]
	SubspaceRotationAdjust: set factor to 0.0158
ElecMinimize: Iter:  19  F: -3025.080725832810458  |grad|_K:  3.609e-07  alpha:  4.946e-01  linmin:  5.840e-06  t[s]:   9876.93
	FillingsUpdate:  mu: +0.312147680  nElectrons: 544.000000  magneticMoment: [ Abs: 0.00000  Tot: -0.00000 ]
	SubspaceRotationAdjust: set factor to 0.0174
[...]
ion Pt   2.616230655353525  14.593010640527551  18.465590653330739 1
ion Pt   2.616981391680339   0.572490570161050  25.406568539194485 1
ion Pt   2.617044513436678   4.684164160337985  29.120611899877851 1
ion Pt   2.614794500805060   8.114056648395678   2.167391042544448 1
ion Pt   2.614866581316281  16.803625810707942   0.713810332441535 1

# Forces in Cartesian coordinates:
force Pt  -0.000002772360076  -0.000076537060836   0.000029358460226 1
force Pt  -0.000001143819475  -0.000123480146386   0.000102994741215 1
force Pt  -0.000000369714178   0.000280273414546  -0.000270406352508 1
force Pt  -0.000002376897455  -0.000004249498656  -0.000052260255658 1
force Pt  -0.000001461205047  -0.000072244785614   0.000156287248085 1
force Pt  -0.000000791056272   0.000293503845381  -0.000163426277494 1
force Pt   0.000000446667800  -0.000052783488116  -0.000010169852040 1
force Pt  -0.000001388746606   0.000151520570754   0.000109475690295 1
force Pt   0.000001151844860  -0.000231926983679  -0.000148085757534 1
force Pt  -0.000000228105572  -0.000101689155481  -0.000148350043699 1
force Pt   0.000000447965499   0.000208336881659  -0.000313122611362 1
force Pt   0.000001889576376   0.000360591588246  -0.000136123589128 1
force Pt  -0.000000236169437  -0.000097306442190   0.000182620772307 1
force Pt   0.000000604729140   0.000099886348526  -0.000121287657815 1
force Pt   0.000000757485150  -0.000055682186140   0.000268599551225 1
force Pt   0.000000705625210  -0.000080802955422  -0.000107795509104 1
force Pt   0.000001584330600   0.000110370213276  -0.000296664653342 1
force Pt  -0.000000377430140  -0.000052017965600  -0.000006580138728 1
force Pt  -0.000000909751602  -0.000345338505761   0.000020624851174 1
force Pt  -0.000002554627138   0.000064348061713   0.000111188372916 1
force Pt  -0.000001438755378  -0.000201590309829   0.000192783321210 1
force Pt  -0.000000266555177  -0.000250220478995  -0.000088646786733 1
force Pt  -0.000000314581963   0.000198916327475   0.000346280121063 1
force Pt   0.000001263809828   0.000111624156169   0.000062117111513 1
force Pt  -0.000000599976806   0.000128630699943  -0.000062001100744 1
force Pt   0.000000011255242   0.000002819779975  -0.000216316165692 1
force Pt   0.000001038060151  -0.000250925130587  -0.000129827338176 1
force Pt  -0.000000894351587   0.000003754827274   0.000021239139907 1
force Pt   0.000001580934828   0.000027257379622  -0.000077948315833 1
force Pt   0.000000752289930   0.000049690360759  -0.000173670605938 1
force Pt   0.000001587800483   0.000107487547517   0.000145501557232 1
force Pt   0.000001196066239   0.000132712368880  -0.000291291678157 1
force Pt  -0.000001385156315  -0.000063994481003  -0.000023695363844 1
force Pt  -0.000000568703422  -0.000293925648116  -0.000137471418262 1

# Energy components:
   Eewald =    18252.8103298501555400
       EH =    21084.8548866743622057
     Eloc =   -42887.2129097031720448
      Enl =      -35.8798519629928023
     EvdW =       -0.8145257618645699
      Exc =     -967.3389743415231123
 Exc_core =      557.3069536475584300
       KE =      971.1989278519708932
-------------------------------------
     Etot =    -3025.0751637455045966
       TS =        0.0058867291424439
-------------------------------------
        F =    -3025.0810504746468723


Dumping 'jdft.fillings' ... done
Dumping 'jdft.wfns' ... done
Dumping 'jdft.ionpos' ... done
Dumping 'jdft.lattice' ... done
Dumping 'jdft.eigenvals' ... done
Dumping 'jdft.eigStats' ... 
	eMin: -1.637738 at state 1 ( [ +0.000000 +0.500000 +0.000000 ] spin 1 )
	HOMO: +0.312688 at state 12 ( [ -0.454545 +0.000000 +0.000000 ] spin 1 )
	mu  : +0.312998
	LUMO: +0.313047 at state 25 ( [ +0.090909 +0.500000 +0.000000 ] spin -1 )
	eMax: +0.623058 at state 14 ( [ -0.363636 +0.000000 +0.000000 ] spin 1 )
	HOMO-LUMO gap: +0.000359
	Optical gap  : +0.000644 at state 12 ( [ -0.454545 +0.000000 +0.000000 ] spin 1 )
Dumping 'jdft.Ecomponents' ... done
IonicMinimize: Iter:   6  F: -3025.081050474646872  |grad|_K:  1.357e-04  alpha:  1.000e+00  linmin: -1.195e-01  t[s]:  22535.50

#--- Lowdin population analysis ---
# oxidation-state Pt -0.002 -0.011 +0.041 +0.021 +0.015 +0.012 +0.012 +0.017 +0.014 +0.005 +0.011 +0.010 +0.009 +0.011 +0.009 +0.005 -0.009 +0.010 +0.014 -0.007 +0.013 +0.012 +0.006 +0.016 +0.013 +0.008 +0.012 +0.014 +0.018 +0.014 -0.013 -0.004 +0.007 +0.044
# magnetic-moments Pt -0.000 -0.000 -0.000 -0.000 -0.000 -0.000 -0.000 -0.000 -0.000 -0.000 -0.000 -0.000 -0.000 -0.000 -0.000 -0.000 -0.000 -0.000 -0.000 -0.000 -0.000 -0.000 -0.000 -0.000 -0.000 -0.000 -0.000 -0.000 -0.000 -0.000 -0.000 -0.000 -0.000 -0.000


Computing DFT-D3 correction:
# coordination-number Pt 7.092 9.388 5.897 7.125 9.380 9.521 9.564 9.257 9.537 9.563 9.539 9.373 9.565 9.562 9.316 7.125 7.531 9.318 9.565 7.536 9.375 9.536 9.562 9.251 9.564 9.565 9.522 9.380 7.124 9.538 9.385 7.091 7.127 5.897
# diagonal-C6 Pt 336.87 336.87 336.87 336.87 336.87 336.87 336.87 336.87 336.87 336.87 336.87 336.87 336.87 336.87 336.87 336.87 336.87 336.87 336.87 336.87 336.87 336.87 336.87 336.87 336.87 336.87 336.87 336.87 336.87 336.87 336.87 336.87 336.87 336.87
EvdW_6 =   -0.315967
EvdW_8 =   -0.498583

-------- Electronic minimization -----------
	FillingsUpdate:  mu: +0.313357981  nElectrons: 544.000000  magneticMoment: [ Abs: 0.00000  Tot: -0.00000 ]
ElecMinimize: Iter:   0  F: -3025.080961465572727  |grad|_K:  9.477e-07  alpha:  1.000e+00
	FillingsUpdate:  mu: +0.312932173  nElectrons: 544.000000  magneticMoment: [ Abs: 0.00000  Tot: -0.00000 ]
	SubspaceRotationAdjust: set factor to 0.0166
ElecMinimize: Iter:   1  F: -3025.081037650733379  |grad|_K:  2.016e-07  alpha:  1.992e-01  linmin: -6.734e-05  t[s]:  22731.04
	FillingsUpdate:  mu: +0.312988696  nElectrons: 544.000000  magneticMoment: [ Abs: 0.00000  Tot: -0.00000 ]
	SubspaceRotationAdjust: set factor to 0.019
ElecMinimize: Iter:   2  F: -3025.081044705182194  |grad|_K:  9.168e-08  alpha:  4.076e-01  linmin: -1.177e-04  t[s]:  22835.71
	FillingsUpdate:  mu: +0.312976042  nElectrons: 544.000000  magneticMoment: [ Abs: 0.00000  Tot: -0.00000 ]
	SubspaceRotationAdjust: set factor to 0.0227
ElecMinimize: Iter:   3  F: -3025.081046524896919  |grad|_K:  6.441e-08  alpha:  5.083e-01  linmin: -5.974e-05  t[s]:  22940.74
	FillingsUpdate:  mu: +0.312999968  nElectrons: 544.000000  magneticMoment: [ Abs: 0.00000  Tot: -0.00000 ]
	SubspaceRotationAdjust: set factor to 0.0278
ElecMinimize: Iter:   4  F: -3025.081047568580743  |grad|_K:  5.624e-08  alpha:  5.907e-01  linmin:  4.209e-06  t[s]:  23044.91
	FillingsUpdate:  mu: +0.313003018  nElectrons: 544.000000  magneticMoment: [ Abs: 0.00000  Tot: -0.00000 ]
	SubspaceRotationAdjust: set factor to 0.0183
ElecMinimize: Iter:   5  F: -3025.081048236764673  |grad|_K:  7.637e-08  alpha:  4.964e-01  linmin: -4.583e-05  t[s]:  23149.65
	FillingsUpdate:  mu: +0.313000521  nElectrons: 544.000000  magneticMoment: [ Abs: 0.00000  Tot: -0.00000 ]
	SubspaceRotationAdjust: set factor to 0.0155
ElecMinimize: Iter:   6  F: -3025.081048888086116  |grad|_K:  5.800e-08  alpha:  2.622e-01  linmin:  9.813e-06  t[s]:  23254.30
ElecMinimize: 	Predicted alpha/alphaT>3.000000, increasing alphaT to 7.866601e-01.
	FillingsUpdate:  mu: +0.313014882  nElectrons: 544.000000  magneticMoment: [ Abs: 0.00000  Tot: -0.00000 ]
	SubspaceRotationAdjust: set factor to 0.0178
ElecMinimize: Iter:   7  F: -3025.081050166845216  |grad|_K:  6.552e-08  alpha:  8.932e-01  linmin:  2.053e-05  t[s]:  23384.36
	FillingsUpdate:  mu: +0.313020301  nElectrons: 544.000000  magneticMoment: [ Abs: 0.00000  Tot: -0.00000 ]
	SubspaceRotationAdjust: set factor to 0.0172
ElecMinimize: Iter:   8  F: -3025.081051416760147  |grad|_K:  8.040e-08  alpha:  6.845e-01  linmin: -5.462e-06  t[s]:  23489.91
	FillingsUpdate:  mu: +0.313025933  nElectrons: 544.000000  magneticMoment: [ Abs: 0.00000  Tot: -0.00000 ]
	SubspaceRotationAdjust: set factor to 0.0135
ElecMinimize: Iter:   9  F: -3025.081052475545221  |grad|_K:  7.690e-08  alpha:  3.847e-01  linmin:  5.158e-07  t[s]:  23594.32
	FillingsUpdate:  mu: +0.313038430  nElectrons: 544.000000  magneticMoment: [ Abs: 0.00000  Tot: -0.00000 ]
	SubspaceRotationAdjust: set factor to 0.0154
ElecMinimize: Iter:  10  F: -3025.081053885320216  |grad|_K:  6.282e-08  alpha:  5.599e-01  linmin: -2.578e-06  t[s]:  23698.81
	FillingsUpdate:  mu: +0.313028655  nElectrons: 544.000000  magneticMoment: [ Abs: 0.00000  Tot: -0.00000 ]
	SubspaceRotationAdjust: set factor to 0.0169
ElecMinimize: Iter:  11  F: -3025.081055020180429  |grad|_K:  6.253e-08  alpha:  6.757e-01  linmin:  1.096e-05  t[s]:  23803.34
	FillingsUpdate:  mu: +0.313033880  nElectrons: 544.000000  magneticMoment: [ Abs: 0.00000  Tot: -0.00000 ]
	SubspaceRotationAdjust: set factor to 0.0148
ElecMinimize: Iter:  12  F: -3025.081055783665306  |grad|_K:  6.454e-08  alpha:  4.589e-01  linmin: -2.518e-06  t[s]:  23907.80
	FillingsUpdate:  mu: +0.313034137  nElectrons: 544.000000  magneticMoment: [ Abs: 0.00000  Tot: -0.00000 ]
	SubspaceRotationAdjust: set factor to 0.0149
ElecMinimize: Iter:  13  F: -3025.081056578765129  |grad|_K:  5.299e-08  alpha:  4.484e-01  linmin: -1.279e-06  t[s]:  24012.58
	FillingsUpdate:  mu: +0.313009916  nElectrons: 544.000000  magneticMoment: [ Abs: 0.00000  Tot: -0.00000 ]
	SubspaceRotationAdjust: set factor to 0.0169
ElecMinimize: Iter:  14  F: -3025.081057418356977  |grad|_K:  5.028e-08  alpha:  7.032e-01  linmin:  3.484e-05  t[s]:  24116.73
	FillingsUpdate:  mu: +0.313020165  nElectrons: 544.000000  magneticMoment: [ Abs: 0.00000  Tot: -0.00000 ]
	SubspaceRotationAdjust: set factor to 0.0175
ElecMinimize: Iter:  15  F: -3025.081058078992555  |grad|_K:  5.082e-08  alpha:  6.144e-01  linmin:  2.342e-06  t[s]:  24221.61
	FillingsUpdate:  mu: +0.313012370  nElectrons: 544.000000  magneticMoment: [ Abs: 0.00000  Tot: -0.00000 ]
	SubspaceRotationAdjust: set factor to 0.0138
ElecMinimize: Iter:  16  F: -3025.081058524901891  |grad|_K:  4.808e-08  alpha:  4.060e-01  linmin: -2.877e-06  t[s]:  24326.37
	FillingsUpdate:  mu: +0.312994578  nElectrons: 544.000000  magneticMoment: [ Abs: 0.00000  Tot: -0.00000 ]
	SubspaceRotationAdjust: set factor to 0.0131
ElecMinimize: Iter:  17  F: -3025.081058966798537  |grad|_K:  3.686e-08  alpha:  4.494e-01  linmin:  4.619e-05  t[s]:  24430.62
	FillingsUpdate:  mu: +0.313003091  nElectrons: 544.000000  magneticMoment: [ Abs: 0.00000  Tot: -0.00000 ]
	SubspaceRotationAdjust: set factor to 0.0149
ElecMinimize: Iter:  18  F: -3025.081059303413895  |grad|_K:  2.916e-08  alpha:  5.825e-01  linmin:  2.005e-05  t[s]:  24534.99
	FillingsUpdate:  mu: +0.312994427  nElectrons: 544.000000  magneticMoment: [ Abs: 0.00000  Tot: -0.00000 ]
	SubspaceRotationAdjust: set factor to 0.0147
ElecMinimize: Iter:  19  F: -3025.081059498964350  |grad|_K:  2.535e-08  alpha:  5.405e-01  linmin: -2.603e-05  t[s]:  24639.67
	FillingsUpdate:  mu: +0.312991366  nElectrons: 544.000000  magneticMoment: [ Abs: 0.00000  Tot: -0.00000 ]
	SubspaceRotationAdjust: set factor to 0.0129
ElecMinimize: Iter:  20  F: -3025.081059613996331  |grad|_K:  2.172e-08  alpha:  4.209e-01  linmin:  3.372e-05  t[s]:  24744.03
	FillingsUpdate:  mu: +0.312995742  nElectrons: 544.000000  magneticMoment: [ Abs: 0.00000  Tot: -0.00000 ]
	SubspaceRotationAdjust: set factor to 0.0136
ElecMinimize: Iter:  21  F: -3025.081059711419130  |grad|_K:  1.720e-08  alpha:  4.855e-01  linmin: -1.113e-04  t[s]:  24848.38
	FillingsUpdate:  mu: +0.312992629  nElectrons: 544.000000  magneticMoment: [ Abs: 0.00000  Tot: -0.00000 ]
	SubspaceRotationAdjust: set factor to 0.0163
ElecMinimize: Iter:  22  F: -3025.081059798721981  |grad|_K:  1.633e-08  alpha:  6.943e-01  linmin:  2.666e-04  t[s]:  24953.31
ElecMinimize: Converged (|Delta F|<1.000000e-07 for 2 iters).
Setting wave functions to eigenvectors of Hamiltonian
Converging empty states (this may take a while): |deigs|: 3.944e-09

Computing DFT-D3 correction:
# coordination-number Pt 7.092 9.388 5.897 7.125 9.380 9.521 9.564 9.257 9.537 9.563 9.539 9.373 9.565 9.562 9.316 7.125 7.531 9.318 9.565 7.536 9.375 9.536 9.562 9.251 9.564 9.565 9.522 9.380 7.124 9.538 9.385 7.091 7.127 5.897
# diagonal-C6 Pt 336.87 336.87 336.87 336.87 336.87 336.87 336.87 336.87 336.87 336.87 336.87 336.87 336.87 336.87 336.87 336.87 336.87 336.87 336.87 336.87 336.87 336.87 336.87 336.87 336.87 336.87 336.87 336.87 336.87 336.87 336.87 336.87 336.87 336.87
EvdW_6 =   -0.315967
EvdW_8 =   -0.498583

# Ionic positions in cartesian coordinates:
ion Pt  -0.001122345823566  12.442693760289602   1.387172835600327 1
ion Pt   5.230965756933272  16.552914730422565   5.099511252714561 1
ion Pt   5.233156909349844  21.900573456478899  29.795866264453906 1
ion Pt   5.230601525881741   3.745895632200289   2.905234963443697 1
ion Pt   5.231208952614923   7.563100230614832   6.744200930540608 1
ion Pt   5.231468060856828  11.424523666264898  10.389471339162970 1
ion Pt   0.000315199085054  19.000284164181771  17.492600002482320 1
ion Pt   5.231137340999029  20.393341182581526   8.465396852236028 1
ion Pt   5.231821136449178   2.537662497807375  12.041923894602480 1
ion Pt   5.232195811190833   6.334786647710088  15.665143960953690 1
ion Pt   0.000347308421350  10.179750932507133  19.300419039655459 1
ion Pt   0.000908314243996  13.991261499283809  23.031410859049032 1
ion Pt   5.231637005457761  15.249334786215192  13.942958939419055 1
ion Pt   5.232804199174021   1.200955791627661  21.015406923766783 1
ion Pt   0.000864052491602   5.108849954455517  24.559512370341238 1
ion Pt   0.001127822091975   9.017752167167568  28.339963806216193 1
ion Pt   5.233170995264857  17.741394823154177  26.875249830531384 1
ion Pt   2.615158049402456  12.020453954140438   5.948567533850076 1
ion Pt   2.615223476157510  15.930907247055996   9.490988518848228 1
ion Pt   2.614675363328796  20.960175342019639   3.634076267600136 1
ion Pt   2.615120353765712   3.137910183859827   7.475923115593686 1
ion Pt   2.615733072210412   6.952436666542686  11.207293641073372 1
ion Pt   2.615853325857688  10.798261670161546  14.843268320045876 1
ion Pt   2.616857203303503  18.308105736886219  22.040259595475113 1
ion Pt   2.615716466584186  19.704481770795329  13.013059905981072 1
ion Pt   2.616406776654995   1.884490581459103  16.564100314258742 1
ion Pt   2.616571961622351   5.708535909321045  20.118595007044885 1
ion Pt   2.616889640462502   9.566943184426822  23.763834024706401 1
ion Pt   2.617221272059909  13.383987435600393  27.602848185592425 1
ion Pt   2.616247298977871  14.594883663962209  18.464686417011709 1
ion Pt   2.617024621555622   0.575360673499217  25.407036306448813 1
ion Pt   2.617059033313673   4.686572834994364  29.121197693345600 1
ion Pt   2.614715557015893   8.111514286587500   2.168470693915580 1
ion Pt   2.614840483044218  16.801100935724953   0.712049394038649 1

# Forces in Cartesian coordinates:
force Pt  -0.000002434881733  -0.000153548383598   0.000084460997655 1
force Pt  -0.000001152520431  -0.000141892219218  -0.000086916183075 1
force Pt  -0.000001153531683   0.000235190996204  -0.000094501246069 1
force Pt  -0.000001390909822   0.000057600517164  -0.000048049749290 1
force Pt  -0.000001590148647   0.000001772669270   0.000131275551602 1
force Pt  -0.000000376207336   0.000129473810669  -0.000080735175447 1
force Pt   0.000000558928148   0.000110357617163   0.000025233207612 1
force Pt  -0.000001767515966   0.000043669662884   0.000116187337080 1
force Pt   0.000001531809502  -0.000041872503556  -0.000192199511028 1
force Pt  -0.000000226104581  -0.000172493651385  -0.000220262440264 1
force Pt  -0.000000228521560   0.000137831034683  -0.000052761816767 1
force Pt   0.000001697052205   0.000182256367776  -0.000115498253522 1
force Pt   0.000000643429899  -0.000028579503015  -0.000147025442794 1
force Pt   0.000000463380382   0.000043081951452  -0.000140046450732 1
force Pt   0.000001108144538   0.000021541739724  -0.000020276782101 1
force Pt   0.000001217133277   0.000018565251856   0.000073711594281 1
force Pt   0.000001077592443   0.000000636038869  -0.000255114063104 1
force Pt  -0.000000632473020  -0.000100997364769  -0.000015999641110 1
force Pt  -0.000000804124663  -0.000201764898871   0.000082208768563 1
force Pt  -0.000002424450223  -0.000010338126869   0.000131407633425 1
force Pt  -0.000001546764847  -0.000026425155234   0.000102411139629 1
force Pt  -0.000000280934301  -0.000102687273375  -0.000123702411210 1
force Pt  -0.000000162250160   0.000149575210486  -0.000063381241013 1
force Pt   0.000001368021301   0.000036055885489  -0.000036027919176 1
force Pt  -0.000000175730901  -0.000086327764701  -0.000140460106273 1
force Pt  -0.000000089592171  -0.000018845364417  -0.000076644579247 1
force Pt   0.000000898561678  -0.000192806893510  -0.000066808530402 1
force Pt  -0.000001131341611   0.000029615614893  -0.000123493679162 1
force Pt   0.000001029288193  -0.000002485267403   0.000040768504245 1
force Pt   0.000000772115664   0.000042663330336   0.000040048415860 1
force Pt   0.000001188938609   0.000078604463509   0.000104772643090 1
force Pt   0.000001575382671   0.000197801904328  -0.000088503757112 1
force Pt  -0.000000157690403   0.000070706753357  -0.000054296806158 1
force Pt  -0.000000486694335  -0.000345576172510   0.000080139669842 1

# Energy components:
   Eewald =    18254.3316921177392942
       EH =    21086.3699331703064672
     Eloc =   -42890.2500156010355568
      Enl =      -35.8798234928779607
     EvdW =       -0.8145495333510461
      Exc =     -967.3395364193426076
 Exc_core =      557.3069532252973204
       KE =      971.2001768713416823
-------------------------------------
     Etot =    -3025.0751696619263384
       TS =        0.0058901367957237
-------------------------------------
        F =    -3025.0810597987219808


Dumping 'jdft.fillings' ... done
Dumping 'jdft.wfns' ... done
Dumping 'jdft.ionpos' ... done
Dumping 'jdft.lattice' ... done
Dumping 'jdft.eigenvals' ... done
Dumping 'jdft.eigStats' ... 
	eMin: -1.637737 at state 23 ( [ +0.000000 +0.500000 +0.000000 ] spin -1 )
	HOMO: +0.312680 at state 10 ( [ +0.454545 +0.000000 +0.000000 ] spin 1 )
	mu  : +0.312993
	LUMO: +0.313017 at state 25 ( [ +0.090909 +0.500000 +0.000000 ] spin -1 )
	eMax: +0.623054 at state 36 ( [ -0.363636 +0.000000 +0.000000 ] spin -1 )
	HOMO-LUMO gap: +0.000337
	Optical gap  : +0.000640 at state 36 ( [ -0.363636 +0.000000 +0.000000 ] spin -1 )
Dumping 'jdft.Ecomponents' ... done
IonicMinimize: Iter:   7  F: -3025.081059798721981  |grad|_K:  9.335e-05  alpha:  1.000e+00  linmin: -3.058e-01  t[s]:  25064.33
IonicMinimize: Converged (|grad|_K<1.000000e-04).

#--- Lowdin population analysis ---
# oxidation-state Pt +0.000 -0.013 +0.041 +0.020 +0.017 +0.013 +0.012 +0.017 +0.015 +0.005 +0.010 +0.010 +0.010 +0.011 +0.008 +0.006 -0.008 +0.012 +0.013 -0.008 +0.013 +0.013 +0.005 +0.016 +0.013 +0.010 +0.010 +0.012 +0.018 +0.013 -0.014 -0.004 +0.009 +0.043
# magnetic-moments Pt -0.000 -0.000 -0.000 -0.000 -0.000 -0.000 -0.000 -0.000 -0.000 -0.000 -0.000 -0.000 -0.000 -0.000 -0.000 -0.000 -0.000 -0.000 -0.000 -0.000 -0.000 -0.000 -0.000 -0.000 -0.000 -0.000 -0.000 -0.000 -0.000 -0.000 -0.000 -0.000 -0.000 -0.000


Dumping 'jdft.n_up' ... done
Dumping 'jdft.n_dn' ... done
Dumping 'jdft.tau_up' ... done
Dumping 'jdft.tau_dn' ... done
Dumping 'jdft.eigenvals' ... done
Dumping 'jdft.eigStats' ... 
	eMin: -1.637737 at state 23 ( [ +0.000000 +0.500000 +0.000000 ] spin -1 )
	HOMO: +0.312680 at state 10 ( [ +0.454545 +0.000000 +0.000000 ] spin 1 )
	mu  : +0.312993
	LUMO: +0.313017 at state 25 ( [ +0.090909 +0.500000 +0.000000 ] spin -1 )
	eMax: +0.623054 at state 36 ( [ -0.363636 +0.000000 +0.000000 ] spin -1 )
	HOMO-LUMO gap: +0.000337
	Optical gap  : +0.000640 at state 36 ( [ -0.363636 +0.000000 +0.000000 ] spin -1 )
Dumping 'jdft.kPts' ... done
Dumping 'jdft.dosUp' ... done.
Dumping 'jdft.dosDn' ... done.
End date and time: Thu Dec  9 12:45:20 2021  (Duration: 0-6:58:50.14)
Done!
