
*************** JDFTx 1.6.0  ***************

Start date and time: Wed Feb 16 17:01:55 2022
Executable /projects/musgravc/apps/jdftx-1.6.1/build/jdftx with command-line: -i in
Running on hosts (process indices):  shas0922.rc.int.colorado.edu (0-23)
Divided in process groups (process indices):  0 (0)  1 (1)  2 (2)  3 (3)  4 (4)  5 (5)  6 (6)  7 (7)  8 (8)  9 (9)  10 (10)  11 (11)  12 (12)  13 (13)  14 (14)  15 (15)  16 (16)  17 (17)  18 (18)  19 (19)  20 (20)  21 (21)  22 (22)  23 (23)
Resource initialization completed at t[s]:      0.00
Run totals: 24 processes, 24 threads, 0 GPUs


Input parsed successfully to the following command list (including defaults):

basis kpoint-dependent
converge-empty-states yes
coords-type Cartesian
core-overlap-check none
coulomb-interaction Periodic
davidson-band-ratio 1.1
density-of-states Etol 1.000000e-06 Esigma 1.000000e-03 \
		Complete \
	Total \
	OrthoOrbital Cu 1   s \
	OrthoOrbital Cu 1   p \
	OrthoOrbital Cu 1   px \
	OrthoOrbital Cu 1   py \
	OrthoOrbital Cu 1   pz \
	OrthoOrbital Cu 1   d \
	OrthoOrbital Cu 1   dxy \
	OrthoOrbital Cu 1   dyz \
	OrthoOrbital Cu 1   dz2 \
	OrthoOrbital Cu 1   dxz \
	OrthoOrbital Cu 1   dx2-y2 \
	OrthoOrbital Cu 2   s \
	OrthoOrbital Cu 2   p \
	OrthoOrbital Cu 2   px \
	OrthoOrbital Cu 2   py \
	OrthoOrbital Cu 2   pz \
	OrthoOrbital Cu 2   d \
	OrthoOrbital Cu 2   dxy \
	OrthoOrbital Cu 2   dyz \
	OrthoOrbital Cu 2   dz2 \
	OrthoOrbital Cu 2   dxz \
	OrthoOrbital Cu 2   dx2-y2 \
	OrthoOrbital Cu 3   s \
	OrthoOrbital Cu 3   p \
	OrthoOrbital Cu 3   px \
	OrthoOrbital Cu 3   py \
	OrthoOrbital Cu 3   pz \
	OrthoOrbital Cu 3   d \
	OrthoOrbital Cu 3   dxy \
	OrthoOrbital Cu 3   dyz \
	OrthoOrbital Cu 3   dz2 \
	OrthoOrbital Cu 3   dxz \
	OrthoOrbital Cu 3   dx2-y2 \
	OrthoOrbital Cu 4   s \
	OrthoOrbital Cu 4   p \
	OrthoOrbital Cu 4   px \
	OrthoOrbital Cu 4   py \
	OrthoOrbital Cu 4   pz \
	OrthoOrbital Cu 4   d \
	OrthoOrbital Cu 4   dxy \
	OrthoOrbital Cu 4   dyz \
	OrthoOrbital Cu 4   dz2 \
	OrthoOrbital Cu 4   dxz \
	OrthoOrbital Cu 4   dx2-y2 \
	OrthoOrbital Cu 5   s \
	OrthoOrbital Cu 5   p \
	OrthoOrbital Cu 5   px \
	OrthoOrbital Cu 5   py \
	OrthoOrbital Cu 5   pz \
	OrthoOrbital Cu 5   d \
	OrthoOrbital Cu 5   dxy \
	OrthoOrbital Cu 5   dyz \
	OrthoOrbital Cu 5   dz2 \
	OrthoOrbital Cu 5   dxz \
	OrthoOrbital Cu 5   dx2-y2 \
	OrthoOrbital Cu 6   s \
	OrthoOrbital Cu 6   p \
	OrthoOrbital Cu 6   px \
	OrthoOrbital Cu 6   py \
	OrthoOrbital Cu 6   pz \
	OrthoOrbital Cu 6   d \
	OrthoOrbital Cu 6   dxy \
	OrthoOrbital Cu 6   dyz \
	OrthoOrbital Cu 6   dz2 \
	OrthoOrbital Cu 6   dxz \
	OrthoOrbital Cu 6   dx2-y2 \
	OrthoOrbital Cu 7   s \
	OrthoOrbital Cu 7   p \
	OrthoOrbital Cu 7   px \
	OrthoOrbital Cu 7   py \
	OrthoOrbital Cu 7   pz \
	OrthoOrbital Cu 7   d \
	OrthoOrbital Cu 7   dxy \
	OrthoOrbital Cu 7   dyz \
	OrthoOrbital Cu 7   dz2 \
	OrthoOrbital Cu 7   dxz \
	OrthoOrbital Cu 7   dx2-y2 \
	OrthoOrbital Cu 8   s \
	OrthoOrbital Cu 8   p \
	OrthoOrbital Cu 8   px \
	OrthoOrbital Cu 8   py \
	OrthoOrbital Cu 8   pz \
	OrthoOrbital Cu 8   d \
	OrthoOrbital Cu 8   dxy \
	OrthoOrbital Cu 8   dyz \
	OrthoOrbital Cu 8   dz2 \
	OrthoOrbital Cu 8   dxz \
	OrthoOrbital Cu 8   dx2-y2 \
	OrthoOrbital Cu 9   s \
	OrthoOrbital Cu 9   p \
	OrthoOrbital Cu 9   px \
	OrthoOrbital Cu 9   py \
	OrthoOrbital Cu 9   pz \
	OrthoOrbital Cu 9   d \
	OrthoOrbital Cu 9   dxy \
	OrthoOrbital Cu 9   dyz \
	OrthoOrbital Cu 9   dz2 \
	OrthoOrbital Cu 9   dxz \
	OrthoOrbital Cu 9   dx2-y2 \
	OrthoOrbital Cu 10   s \
	OrthoOrbital Cu 10   p \
	OrthoOrbital Cu 10   px \
	OrthoOrbital Cu 10   py \
	OrthoOrbital Cu 10   pz \
	OrthoOrbital Cu 10   d \
	OrthoOrbital Cu 10   dxy \
	OrthoOrbital Cu 10   dyz \
	OrthoOrbital Cu 10   dz2 \
	OrthoOrbital Cu 10   dxz \
	OrthoOrbital Cu 10   dx2-y2 \
	OrthoOrbital Cu 11   s \
	OrthoOrbital Cu 11   p \
	OrthoOrbital Cu 11   px \
	OrthoOrbital Cu 11   py \
	OrthoOrbital Cu 11   pz \
	OrthoOrbital Cu 11   d \
	OrthoOrbital Cu 11   dxy \
	OrthoOrbital Cu 11   dyz \
	OrthoOrbital Cu 11   dz2 \
	OrthoOrbital Cu 11   dxz \
	OrthoOrbital Cu 11   dx2-y2 \
	OrthoOrbital Cu 12   s \
	OrthoOrbital Cu 12   p \
	OrthoOrbital Cu 12   px \
	OrthoOrbital Cu 12   py \
	OrthoOrbital Cu 12   pz \
	OrthoOrbital Cu 12   d \
	OrthoOrbital Cu 12   dxy \
	OrthoOrbital Cu 12   dyz \
	OrthoOrbital Cu 12   dz2 \
	OrthoOrbital Cu 12   dxz \
	OrthoOrbital Cu 12   dx2-y2 \
	OrthoOrbital Cu 13   s \
	OrthoOrbital Cu 13   p \
	OrthoOrbital Cu 13   px \
	OrthoOrbital Cu 13   py \
	OrthoOrbital Cu 13   pz \
	OrthoOrbital Cu 13   d \
	OrthoOrbital Cu 13   dxy \
	OrthoOrbital Cu 13   dyz \
	OrthoOrbital Cu 13   dz2 \
	OrthoOrbital Cu 13   dxz \
	OrthoOrbital Cu 13   dx2-y2 \
	OrthoOrbital Cu 14   s \
	OrthoOrbital Cu 14   p \
	OrthoOrbital Cu 14   px \
	OrthoOrbital Cu 14   py \
	OrthoOrbital Cu 14   pz \
	OrthoOrbital Cu 14   d \
	OrthoOrbital Cu 14   dxy \
	OrthoOrbital Cu 14   dyz \
	OrthoOrbital Cu 14   dz2 \
	OrthoOrbital Cu 14   dxz \
	OrthoOrbital Cu 14   dx2-y2 \
	OrthoOrbital Cu 15   s \
	OrthoOrbital Cu 15   p \
	OrthoOrbital Cu 15   px \
	OrthoOrbital Cu 15   py \
	OrthoOrbital Cu 15   pz \
	OrthoOrbital Cu 15   d \
	OrthoOrbital Cu 15   dxy \
	OrthoOrbital Cu 15   dyz \
	OrthoOrbital Cu 15   dz2 \
	OrthoOrbital Cu 15   dxz \
	OrthoOrbital Cu 15   dx2-y2 \
	OrthoOrbital Cu 16   s \
	OrthoOrbital Cu 16   p \
	OrthoOrbital Cu 16   px \
	OrthoOrbital Cu 16   py \
	OrthoOrbital Cu 16   pz \
	OrthoOrbital Cu 16   d \
	OrthoOrbital Cu 16   dxy \
	OrthoOrbital Cu 16   dyz \
	OrthoOrbital Cu 16   dz2 \
	OrthoOrbital Cu 16   dxz \
	OrthoOrbital Cu 16   dx2-y2 \
	OrthoOrbital Cu 17   s \
	OrthoOrbital Cu 17   p \
	OrthoOrbital Cu 17   px \
	OrthoOrbital Cu 17   py \
	OrthoOrbital Cu 17   pz \
	OrthoOrbital Cu 17   d \
	OrthoOrbital Cu 17   dxy \
	OrthoOrbital Cu 17   dyz \
	OrthoOrbital Cu 17   dz2 \
	OrthoOrbital Cu 17   dxz \
	OrthoOrbital Cu 17   dx2-y2 \
	OrthoOrbital Cu 18   s \
	OrthoOrbital Cu 18   p \
	OrthoOrbital Cu 18   px \
	OrthoOrbital Cu 18   py \
	OrthoOrbital Cu 18   pz \
	OrthoOrbital Cu 18   d \
	OrthoOrbital Cu 18   dxy \
	OrthoOrbital Cu 18   dyz \
	OrthoOrbital Cu 18   dz2 \
	OrthoOrbital Cu 18   dxz \
	OrthoOrbital Cu 18   dx2-y2 \
	OrthoOrbital Cu 19   s \
	OrthoOrbital Cu 19   p \
	OrthoOrbital Cu 19   px \
	OrthoOrbital Cu 19   py \
	OrthoOrbital Cu 19   pz \
	OrthoOrbital Cu 19   d \
	OrthoOrbital Cu 19   dxy \
	OrthoOrbital Cu 19   dyz \
	OrthoOrbital Cu 19   dz2 \
	OrthoOrbital Cu 19   dxz \
	OrthoOrbital Cu 19   dx2-y2 \
	OrthoOrbital Cu 20   s \
	OrthoOrbital Cu 20   p \
	OrthoOrbital Cu 20   px \
	OrthoOrbital Cu 20   py \
	OrthoOrbital Cu 20   pz \
	OrthoOrbital Cu 20   d \
	OrthoOrbital Cu 20   dxy \
	OrthoOrbital Cu 20   dyz \
	OrthoOrbital Cu 20   dz2 \
	OrthoOrbital Cu 20   dxz \
	OrthoOrbital Cu 20   dx2-y2 \
	OrthoOrbital Cu 21   s \
	OrthoOrbital Cu 21   p \
	OrthoOrbital Cu 21   px \
	OrthoOrbital Cu 21   py \
	OrthoOrbital Cu 21   pz \
	OrthoOrbital Cu 21   d \
	OrthoOrbital Cu 21   dxy \
	OrthoOrbital Cu 21   dyz \
	OrthoOrbital Cu 21   dz2 \
	OrthoOrbital Cu 21   dxz \
	OrthoOrbital Cu 21   dx2-y2 \
	OrthoOrbital Cu 22   s \
	OrthoOrbital Cu 22   p \
	OrthoOrbital Cu 22   px \
	OrthoOrbital Cu 22   py \
	OrthoOrbital Cu 22   pz \
	OrthoOrbital Cu 22   d \
	OrthoOrbital Cu 22   dxy \
	OrthoOrbital Cu 22   dyz \
	OrthoOrbital Cu 22   dz2 \
	OrthoOrbital Cu 22   dxz \
	OrthoOrbital Cu 22   dx2-y2 \
	OrthoOrbital Cu 23   s \
	OrthoOrbital Cu 23   p \
	OrthoOrbital Cu 23   px \
	OrthoOrbital Cu 23   py \
	OrthoOrbital Cu 23   pz \
	OrthoOrbital Cu 23   d \
	OrthoOrbital Cu 23   dxy \
	OrthoOrbital Cu 23   dyz \
	OrthoOrbital Cu 23   dz2 \
	OrthoOrbital Cu 23   dxz \
	OrthoOrbital Cu 23   dx2-y2 \
	OrthoOrbital Cu 24   s \
	OrthoOrbital Cu 24   p \
	OrthoOrbital Cu 24   px \
	OrthoOrbital Cu 24   py \
	OrthoOrbital Cu 24   pz \
	OrthoOrbital Cu 24   d \
	OrthoOrbital Cu 24   dxy \
	OrthoOrbital Cu 24   dyz \
	OrthoOrbital Cu 24   dz2 \
	OrthoOrbital Cu 24   dxz \
	OrthoOrbital Cu 24   dx2-y2 \
	OrthoOrbital Cu 25   s \
	OrthoOrbital Cu 25   p \
	OrthoOrbital Cu 25   px \
	OrthoOrbital Cu 25   py \
	OrthoOrbital Cu 25   pz \
	OrthoOrbital Cu 25   d \
	OrthoOrbital Cu 25   dxy \
	OrthoOrbital Cu 25   dyz \
	OrthoOrbital Cu 25   dz2 \
	OrthoOrbital Cu 25   dxz \
	OrthoOrbital Cu 25   dx2-y2 \
	OrthoOrbital Cu 26   s \
	OrthoOrbital Cu 26   p \
	OrthoOrbital Cu 26   px \
	OrthoOrbital Cu 26   py \
	OrthoOrbital Cu 26   pz \
	OrthoOrbital Cu 26   d \
	OrthoOrbital Cu 26   dxy \
	OrthoOrbital Cu 26   dyz \
	OrthoOrbital Cu 26   dz2 \
	OrthoOrbital Cu 26   dxz \
	OrthoOrbital Cu 26   dx2-y2 \
	OrthoOrbital Cu 27   s \
	OrthoOrbital Cu 27   p \
	OrthoOrbital Cu 27   px \
	OrthoOrbital Cu 27   py \
	OrthoOrbital Cu 27   pz \
	OrthoOrbital Cu 27   d \
	OrthoOrbital Cu 27   dxy \
	OrthoOrbital Cu 27   dyz \
	OrthoOrbital Cu 27   dz2 \
	OrthoOrbital Cu 27   dxz \
	OrthoOrbital Cu 27   dx2-y2 \
	OrthoOrbital Cu 28   s \
	OrthoOrbital Cu 28   p \
	OrthoOrbital Cu 28   px \
	OrthoOrbital Cu 28   py \
	OrthoOrbital Cu 28   pz \
	OrthoOrbital Cu 28   d \
	OrthoOrbital Cu 28   dxy \
	OrthoOrbital Cu 28   dyz \
	OrthoOrbital Cu 28   dz2 \
	OrthoOrbital Cu 28   dxz \
	OrthoOrbital Cu 28   dx2-y2 \
	OrthoOrbital Cu 29   s \
	OrthoOrbital Cu 29   p \
	OrthoOrbital Cu 29   px \
	OrthoOrbital Cu 29   py \
	OrthoOrbital Cu 29   pz \
	OrthoOrbital Cu 29   d \
	OrthoOrbital Cu 29   dxy \
	OrthoOrbital Cu 29   dyz \
	OrthoOrbital Cu 29   dz2 \
	OrthoOrbital Cu 29   dxz \
	OrthoOrbital Cu 29   dx2-y2 \
	OrthoOrbital Cu 30   s \
	OrthoOrbital Cu 30   p \
	OrthoOrbital Cu 30   px \
	OrthoOrbital Cu 30   py \
	OrthoOrbital Cu 30   pz \
	OrthoOrbital Cu 30   d \
	OrthoOrbital Cu 30   dxy \
	OrthoOrbital Cu 30   dyz \
	OrthoOrbital Cu 30   dz2 \
	OrthoOrbital Cu 30   dxz \
	OrthoOrbital Cu 30   dx2-y2 \
	OrthoOrbital Cu 31   s \
	OrthoOrbital Cu 31   p \
	OrthoOrbital Cu 31   px \
	OrthoOrbital Cu 31   py \
	OrthoOrbital Cu 31   pz \
	OrthoOrbital Cu 31   d \
	OrthoOrbital Cu 31   dxy \
	OrthoOrbital Cu 31   dyz \
	OrthoOrbital Cu 31   dz2 \
	OrthoOrbital Cu 31   dxz \
	OrthoOrbital Cu 31   dx2-y2 \
	OrthoOrbital Cu 32   s \
	OrthoOrbital Cu 32   p \
	OrthoOrbital Cu 32   px \
	OrthoOrbital Cu 32   py \
	OrthoOrbital Cu 32   pz \
	OrthoOrbital Cu 32   d \
	OrthoOrbital Cu 32   dxy \
	OrthoOrbital Cu 32   dyz \
	OrthoOrbital Cu 32   dz2 \
	OrthoOrbital Cu 32   dxz \
	OrthoOrbital Cu 32   dx2-y2 \
	OrthoOrbital Cu 33   s \
	OrthoOrbital Cu 33   p \
	OrthoOrbital Cu 33   px \
	OrthoOrbital Cu 33   py \
	OrthoOrbital Cu 33   pz \
	OrthoOrbital Cu 33   d \
	OrthoOrbital Cu 33   dxy \
	OrthoOrbital Cu 33   dyz \
	OrthoOrbital Cu 33   dz2 \
	OrthoOrbital Cu 33   dxz \
	OrthoOrbital Cu 33   dx2-y2 \
	OrthoOrbital Cu 34   s \
	OrthoOrbital Cu 34   p \
	OrthoOrbital Cu 34   px \
	OrthoOrbital Cu 34   py \
	OrthoOrbital Cu 34   pz \
	OrthoOrbital Cu 34   d \
	OrthoOrbital Cu 34   dxy \
	OrthoOrbital Cu 34   dyz \
	OrthoOrbital Cu 34   dz2 \
	OrthoOrbital Cu 34   dxz \
	OrthoOrbital Cu 34   dx2-y2 \
	OrthoOrbital Cu 35   s \
	OrthoOrbital Cu 35   p \
	OrthoOrbital Cu 35   px \
	OrthoOrbital Cu 35   py \
	OrthoOrbital Cu 35   pz \
	OrthoOrbital Cu 35   d \
	OrthoOrbital Cu 35   dxy \
	OrthoOrbital Cu 35   dyz \
	OrthoOrbital Cu 35   dz2 \
	OrthoOrbital Cu 35   dxz \
	OrthoOrbital Cu 35   dx2-y2 \
	OrthoOrbital Cu 36   s \
	OrthoOrbital Cu 36   p \
	OrthoOrbital Cu 36   px \
	OrthoOrbital Cu 36   py \
	OrthoOrbital Cu 36   pz \
	OrthoOrbital Cu 36   d \
	OrthoOrbital Cu 36   dxy \
	OrthoOrbital Cu 36   dyz \
	OrthoOrbital Cu 36   dz2 \
	OrthoOrbital Cu 36   dxz \
	OrthoOrbital Cu 36   dx2-y2 \
	OrthoOrbital Cu 37   s \
	OrthoOrbital Cu 37   p \
	OrthoOrbital Cu 37   px \
	OrthoOrbital Cu 37   py \
	OrthoOrbital Cu 37   pz \
	OrthoOrbital Cu 37   d \
	OrthoOrbital Cu 37   dxy \
	OrthoOrbital Cu 37   dyz \
	OrthoOrbital Cu 37   dz2 \
	OrthoOrbital Cu 37   dxz \
	OrthoOrbital Cu 37   dx2-y2 \
	OrthoOrbital Cu 38   s \
	OrthoOrbital Cu 38   p \
	OrthoOrbital Cu 38   px \
	OrthoOrbital Cu 38   py \
	OrthoOrbital Cu 38   pz \
	OrthoOrbital Cu 38   d \
	OrthoOrbital Cu 38   dxy \
	OrthoOrbital Cu 38   dyz \
	OrthoOrbital Cu 38   dz2 \
	OrthoOrbital Cu 38   dxz \
	OrthoOrbital Cu 38   dx2-y2 \
	OrthoOrbital Cu 39   s \
	OrthoOrbital Cu 39   p \
	OrthoOrbital Cu 39   px \
	OrthoOrbital Cu 39   py \
	OrthoOrbital Cu 39   pz \
	OrthoOrbital Cu 39   d \
	OrthoOrbital Cu 39   dxy \
	OrthoOrbital Cu 39   dyz \
	OrthoOrbital Cu 39   dz2 \
	OrthoOrbital Cu 39   dxz \
	OrthoOrbital Cu 39   dx2-y2 \
	OrthoOrbital Cu 40   s \
	OrthoOrbital Cu 40   p \
	OrthoOrbital Cu 40   px \
	OrthoOrbital Cu 40   py \
	OrthoOrbital Cu 40   pz \
	OrthoOrbital Cu 40   d \
	OrthoOrbital Cu 40   dxy \
	OrthoOrbital Cu 40   dyz \
	OrthoOrbital Cu 40   dz2 \
	OrthoOrbital Cu 40   dxz \
	OrthoOrbital Cu 40   dx2-y2 \
	OrthoOrbital Cu 41   s \
	OrthoOrbital Cu 41   p \
	OrthoOrbital Cu 41   px \
	OrthoOrbital Cu 41   py \
	OrthoOrbital Cu 41   pz \
	OrthoOrbital Cu 41   d \
	OrthoOrbital Cu 41   dxy \
	OrthoOrbital Cu 41   dyz \
	OrthoOrbital Cu 41   dz2 \
	OrthoOrbital Cu 41   dxz \
	OrthoOrbital Cu 41   dx2-y2 \
	OrthoOrbital Cu 42   s \
	OrthoOrbital Cu 42   p \
	OrthoOrbital Cu 42   px \
	OrthoOrbital Cu 42   py \
	OrthoOrbital Cu 42   pz \
	OrthoOrbital Cu 42   d \
	OrthoOrbital Cu 42   dxy \
	OrthoOrbital Cu 42   dyz \
	OrthoOrbital Cu 42   dz2 \
	OrthoOrbital Cu 42   dxz \
	OrthoOrbital Cu 42   dx2-y2 \
	OrthoOrbital Cu 43   s \
	OrthoOrbital Cu 43   p \
	OrthoOrbital Cu 43   px \
	OrthoOrbital Cu 43   py \
	OrthoOrbital Cu 43   pz \
	OrthoOrbital Cu 43   d \
	OrthoOrbital Cu 43   dxy \
	OrthoOrbital Cu 43   dyz \
	OrthoOrbital Cu 43   dz2 \
	OrthoOrbital Cu 43   dxz \
	OrthoOrbital Cu 43   dx2-y2 \
	OrthoOrbital Cu 44   s \
	OrthoOrbital Cu 44   p \
	OrthoOrbital Cu 44   px \
	OrthoOrbital Cu 44   py \
	OrthoOrbital Cu 44   pz \
	OrthoOrbital Cu 44   d \
	OrthoOrbital Cu 44   dxy \
	OrthoOrbital Cu 44   dyz \
	OrthoOrbital Cu 44   dz2 \
	OrthoOrbital Cu 44   dxz \
	OrthoOrbital Cu 44   dx2-y2 \
	OrthoOrbital Cu 45   s \
	OrthoOrbital Cu 45   p \
	OrthoOrbital Cu 45   px \
	OrthoOrbital Cu 45   py \
	OrthoOrbital Cu 45   pz \
	OrthoOrbital Cu 45   d \
	OrthoOrbital Cu 45   dxy \
	OrthoOrbital Cu 45   dyz \
	OrthoOrbital Cu 45   dz2 \
	OrthoOrbital Cu 45   dxz \
	OrthoOrbital Cu 45   dx2-y2 \
	OrthoOrbital Cu 46   s \
	OrthoOrbital Cu 46   p \
	OrthoOrbital Cu 46   px \
	OrthoOrbital Cu 46   py \
	OrthoOrbital Cu 46   pz \
	OrthoOrbital Cu 46   d \
	OrthoOrbital Cu 46   dxy \
	OrthoOrbital Cu 46   dyz \
	OrthoOrbital Cu 46   dz2 \
	OrthoOrbital Cu 46   dxz \
	OrthoOrbital Cu 46   dx2-y2 \
	OrthoOrbital Cu 47   s \
	OrthoOrbital Cu 47   p \
	OrthoOrbital Cu 47   px \
	OrthoOrbital Cu 47   py \
	OrthoOrbital Cu 47   pz \
	OrthoOrbital Cu 47   d \
	OrthoOrbital Cu 47   dxy \
	OrthoOrbital Cu 47   dyz \
	OrthoOrbital Cu 47   dz2 \
	OrthoOrbital Cu 47   dxz \
	OrthoOrbital Cu 47   dx2-y2 \
	OrthoOrbital Cu 48   s \
	OrthoOrbital Cu 48   p \
	OrthoOrbital Cu 48   px \
	OrthoOrbital Cu 48   py \
	OrthoOrbital Cu 48   pz \
	OrthoOrbital Cu 48   d \
	OrthoOrbital Cu 48   dxy \
	OrthoOrbital Cu 48   dyz \
	OrthoOrbital Cu 48   dz2 \
	OrthoOrbital Cu 48   dxz \
	OrthoOrbital Cu 48   dx2-y2 \
	OrthoOrbital C 1   s \
	OrthoOrbital C 1   p \
	OrthoOrbital C 1   px \
	OrthoOrbital C 1   py \
	OrthoOrbital C 1   pz \
	OrthoOrbital O 1   s \
	OrthoOrbital O 1   p \
	OrthoOrbital O 1   px \
	OrthoOrbital O 1   py \
	OrthoOrbital O 1   pz
dump End ElecDensity KEdensity BandEigs EigStats RhoAtom DOS Kpoints
dump Ionic State IonicPositions Lattice EigStats Ecomponents
dump 
dump 
dump 
dump 
dump 
dump 
dump 
dump 
dump-name jdft.$VAR
elec-cutoff 20
elec-eigen-algo Davidson
elec-ex-corr gga-PBE
elec-initial-magnetization 0.000000 no
elec-n-bands 554
elec-smearing Fermi 0.001
electronic-minimize  \
	dirUpdateScheme      FletcherReeves \
	linminMethod         DirUpdateRecommended \
	nIterations          100 \
	history              15 \
	knormThreshold       0 \
	energyDiffThreshold  1e-07 \
	nEnergyDiff          2 \
	alphaTstart          1 \
	alphaTmin            1e-10 \
	updateTestStepSize   yes \
	alphaTreduceFactor   0.1 \
	alphaTincreaseFactor 3 \
	nAlphaAdjustMax      3 \
	wolfeEnergy          0.0001 \
	wolfeGradient        0.9 \
	fdTest               no
exchange-regularization WignerSeitzTruncated
fluid LinearPCM 298.000000 1.013250
fluid-anion F- 0.5 MeanFieldLJ \
	epsBulk 1 \
	pMol 0 \
	epsInf 1 \
	Pvap 0 \
	sigmaBulk 0 \
	Rvdw 2.24877 \
	Res 0 \
	tauNuc 343133
fluid-cation Na+ 0.5 MeanFieldLJ \
	epsBulk 1 \
	pMol 0 \
	epsInf 1 \
	Pvap 0 \
	sigmaBulk 0 \
	Rvdw 2.19208 \
	Res 0 \
	tauNuc 343133
fluid-ex-corr lda-TF lda-PZ
fluid-gummel-loop 10 1.000000e-05
fluid-minimize  \
	dirUpdateScheme      PolakRibiere \
	linminMethod         DirUpdateRecommended \
	nIterations          400 \
	history              15 \
	knormThreshold       1e-11 \
	energyDiffThreshold  0 \
	nEnergyDiff          2 \
	alphaTstart          1 \
	alphaTmin            1e-10 \
	updateTestStepSize   yes \
	alphaTreduceFactor   0.1 \
	alphaTincreaseFactor 3 \
	nAlphaAdjustMax      6 \
	wolfeEnergy          0.0001 \
	wolfeGradient        0.9 \
	fdTest               no
fluid-solvent H2O 55.338 ScalarEOS \
	epsBulk 78.4 \
	pMol 0.92466 \
	epsInf 1.77 \
	Pvap 1.06736e-10 \
	sigmaBulk 4.62e-05 \
	Rvdw 2.61727 \
	Res 1.42 \
	tauNuc 343133 \
	poleEl 15 7 1
forces-output-coords Positions
ion Cu   9.533169000000001   0.029049000000000  15.714320000000001 0
ion Cu   9.533169000000001  11.704867999999999  15.714320000000001 0
ion Cu   4.766546000000001   0.029049000000000  15.714320000000001 0
ion Cu   4.766546000000001  11.704867999999999  15.714320000000001 0
ion Cu   0.000000000000000   3.882763000000000   2.011863000000000 0
ion Cu   0.000000000000000  15.558558000000000   2.011863000000000 0
ion Cu   4.766623000000001   3.882763000000000   2.011863000000000 0
ion Cu   4.766623000000001  15.558558000000000   2.011863000000000 0
ion Cu   0.000048000000000   7.846205000000000   4.822845000000000 0
ion Cu   0.000048000000000  19.521999999999998   4.822845000000000 0
ion Cu   4.766661000000001   7.846205000000000   4.822845000000000 0
ion Cu   4.766661000000001  19.521999999999998   4.822845000000000 0
ion Cu   0.000019000000000   0.010648000000000   7.572401000000000 0
ion Cu   0.000019000000000  11.686444000000000   7.572401000000000 0
ion Cu   4.766642000000000   0.010648000000000   7.572401000000000 0
ion Cu   4.766642000000000  11.686444000000000   7.572401000000000 0
ion Cu   0.000048000000000   3.891052000000000  10.322502999999999 0
ion Cu   0.000048000000000  15.566848000000002  10.322502999999999 0
ion Cu   4.766661000000001   3.891052000000000  10.322502999999999 0
ion Cu   4.766661000000001  15.566848000000002  10.322502999999999 0
ion Cu   9.533188000000003   7.731151000000000  13.180692000000001 0
ion Cu   9.533188000000003  19.406946999999999  13.180692000000001 0
ion Cu   4.766565000000001   7.731151000000000  13.180692000000001 0
ion Cu   4.766565000000001  19.406946999999999  13.180692000000001 0
ion Cu   2.383292000000000   0.052658000000000   3.331310000000000 0
ion Cu   2.383292000000000  11.728453999999999   3.331310000000000 0
ion Cu   7.149905000000001   0.052658000000000   3.331310000000000 0
ion Cu   7.149905000000001  11.728453999999999   3.331310000000000 0
ion Cu   2.383321000000000   3.893061000000000   6.189945000000000 0
ion Cu   2.383321000000000  15.568833000000000   6.189945000000000 0
ion Cu   7.149943000000000   3.893061000000000   6.189945000000000 0
ion Cu   7.149943000000000  15.568833000000000   6.189945000000000 0
ion Cu   2.383359000000000   7.773301000000000   8.939650000000000 0
ion Cu   2.383359000000000  19.449120000000001   8.939650000000000 0
ion Cu   7.149981000000001   7.773301000000000   8.939650000000000 0
ion Cu   7.149981000000001  19.449120000000001   8.939650000000000 0
ion Cu   2.383292000000000  23.288868999999998  11.688513000000000 0
ion Cu   2.383292000000000  11.613097000000000  11.688513000000000 0
ion Cu   7.149905000000001  23.288868999999998  11.688513000000000 0
ion Cu   7.149905000000001  11.613097000000000  11.688513000000000 0
ion Cu   2.383302000000000   3.900837000000000  14.500237000000000 0
ion Cu   2.383302000000000  15.576631999999998  14.500237000000000 0
ion Cu   7.149924000000001   3.900837000000000  14.500237000000000 0
ion Cu   7.149924000000001  15.576631999999998  14.500237000000000 0
ion Cu   2.383321000000000   7.755134000000001   0.798177000000000 0
ion Cu   2.383321000000000  19.430952999999999   0.798177000000000 0
ion Cu   7.149943000000000   7.755134000000001   0.798177000000000 0
ion Cu   7.149943000000000  19.430952999999999   0.798177000000000 0
ion C   3.574919000000000  13.640738999999998  18.391355999999998 1  Linear 0 0 1
ion O   3.635017000000000  13.640738999999998  20.546726000000000 1  Linear 0 0 1
ion-species /projects/musgravc/apps/jdftx-1.6.0/build/pseudopotentials/GBRV_v1.5/$ID_pbe_v1.uspp
ion-species /projects/musgravc/apps/jdftx-1.6.0/build/pseudopotentials/GBRV_v1.5/$ID_pbe_v1.2.uspp
ion-species /projects/musgravc/apps/jdftx-1.6.0/build/pseudopotentials/GBRV_v1.5/$ID_pbe_v1.4.uspp
ion-species /projects/musgravc/apps/jdftx-1.6.0/build/pseudopotentials/GBRV_v1.5/$ID_pbe_v1.5.uspp
ion-width Ecut
ionic-minimize  \
	dirUpdateScheme      L-BFGS \
	linminMethod         DirUpdateRecommended \
	nIterations          100 \
	history              15 \
	knormThreshold       0.0001 \
	energyDiffThreshold  1e-06 \
	nEnergyDiff          2 \
	alphaTstart          1 \
	alphaTmin            1e-10 \
	updateTestStepSize   yes \
	alphaTreduceFactor   0.1 \
	alphaTincreaseFactor 3 \
	nAlphaAdjustMax      3 \
	wolfeEnergy          0.0001 \
	wolfeGradient        0.9 \
	fdTest               no
kpoint   0.000000000000   0.000000000000   0.000000000000  1.00000000000000
kpoint-folding 6 2 1 
latt-move-scale 0 0 0
latt-scale 1 1 1 
lattice  \
	   9.533245000000001    0.000000000000000    0.000000000000000  \
	   0.000000000000000   23.351590999999999    0.000000000000000  \
	   0.000000000000000    0.000000000000000   49.536203999999998 
lattice-minimize  \
	dirUpdateScheme      L-BFGS \
	linminMethod         DirUpdateRecommended \
	nIterations          0 \
	history              15 \
	knormThreshold       0 \
	energyDiffThreshold  1e-06 \
	nEnergyDiff          2 \
	alphaTstart          1 \
	alphaTmin            1e-10 \
	updateTestStepSize   yes \
	alphaTreduceFactor   0.1 \
	alphaTincreaseFactor 3 \
	nAlphaAdjustMax      3 \
	wolfeEnergy          0.0001 \
	wolfeGradient        0.9 \
	fdTest               no
lcao-params 30 1e-06 0.001
pcm-variant CANDLE
spintype z-spin
subspace-rotation-factor 1 yes
symmetries automatic
symmetry-threshold 0.0001
van-der-waals D3



---------- Setting up symmetries ----------

Found 8 point-group symmetries of the bravais lattice
Found 1 space-group symmetries with basis
Applied RMS atom displacement 0 bohrs to make symmetries exact.

---------- Initializing the Grid ----------
R = 
[      9.53325            0            0  ]
[            0      23.3516            0  ]
[            0            0      49.5362  ]
unit cell volume = 11027.6
G =
[   0.659081          0          0  ]
[          0   0.269069          0  ]
[          0          0    0.12684  ]
Minimum fftbox size, Smin = [  40  96  200  ]
Chosen fftbox size, S = [  40  96  200  ]

---------- Exchange Correlation functional ----------
Initalized PBE GGA exchange.
Initalized PBE GGA correlation.

---------- Setting up pseudopotentials ----------
Width of ionic core gaussian charges (only for fluid interactions / plotting) set to 0.397384

Reading pseudopotential file '/projects/musgravc/apps/jdftx-1.6.0/build/pseudopotentials/GBRV_v1.5/cu_pbe_v1.2.uspp':
  Title: Cu.  Created by USPP 7.3.6 on 3-2-2014
  Reference state energy: -201.059491.  19 valence electrons in orbitals:
    |300>  occupation: 2  eigenvalue: -5.020764
    |310>  occupation: 6  eigenvalue: -3.445588
    |320>  occupation: 8  eigenvalue: -0.925168
    |400>  occupation: 2  eigenvalue: -0.567638
    |410>  occupation: 0  eigenvalue: -0.326154
  lMax: 2  lLocal: 3  QijEcut: 6
  6 projectors sampled on a log grid with 613 points:
    l: 0  eig: -5.020767  rCut: 1.4
    l: 0  eig: -0.567640  rCut: 1.4
    l: 1  eig: -3.445589  rCut: 1.55
    l: 1  eig: -0.326157  rCut: 1.55
    l: 2  eig: -0.925170  rCut: 1.5
    l: 2  eig: 1.500000  rCut: 1.5
  Partial core density with radius 0.8
  Transforming core density to a uniform radial grid of dG=0.02 with 1125 points.
  Transforming local potential to a uniform radial grid of dG=0.02 with 1125 points.
  Transforming nonlocal projectors to a uniform radial grid of dG=0.02 with 432 points.
  Transforming density augmentations to a uniform radial grid of dG=0.02 with 1125 points.
  Transforming atomic orbitals to a uniform radial grid of dG=0.02 with 432 points.
  Core radius for overlap checks: 1.55 bohrs.

Reading pseudopotential file '/projects/musgravc/apps/jdftx-1.6.0/build/pseudopotentials/GBRV_v1.5/c_pbe_v1.2.uspp':
  Title: C.  Created by USPP 7.3.6 on 3-2-2014
  Reference state energy: -5.406344.  4 valence electrons in orbitals:
    |200>  occupation: 2  eigenvalue: -0.504890
    |210>  occupation: 2  eigenvalue: -0.194356
  lMax: 1  lLocal: 2  QijEcut: 5
  4 projectors sampled on a log grid with 503 points:
    l: 0  eig: -0.504890  rCut: 1.3
    l: 0  eig: 0.000000  rCut: 1.3
    l: 1  eig: -0.194357  rCut: 1.3
    l: 1  eig: 0.000000  rCut: 1.3
  Partial core density with radius 1.1
  Transforming core density to a uniform radial grid of dG=0.02 with 1125 points.
  Transforming local potential to a uniform radial grid of dG=0.02 with 1125 points.
  Transforming nonlocal projectors to a uniform radial grid of dG=0.02 with 432 points.
  Transforming density augmentations to a uniform radial grid of dG=0.02 with 1125 points.
  Transforming atomic orbitals to a uniform radial grid of dG=0.02 with 432 points.
  Core radius for overlap checks: 1.30 bohrs.

Reading pseudopotential file '/projects/musgravc/apps/jdftx-1.6.0/build/pseudopotentials/GBRV_v1.5/o_pbe_v1.2.uspp':
  Title: O.  Created by USPP 7.3.6 on 3-2-2014
  Reference state energy: -15.894388.  6 valence electrons in orbitals:
    |200>  occupation: 2  eigenvalue: -0.878823
    |210>  occupation: 4  eigenvalue: -0.332131
  lMax: 2  lLocal: 2  QijEcut: 6
  5 projectors sampled on a log grid with 511 points:
    l: 0  eig: -0.878823  rCut: 1.25
    l: 0  eig: 0.000000  rCut: 1.25
    l: 1  eig: -0.332132  rCut: 1.25
    l: 1  eig: 0.000000  rCut: 1.25
    l: 2  eig: 1.000000  rCut: 1.25
  Partial core density with radius 0.7
  Transforming core density to a uniform radial grid of dG=0.02 with 1125 points.
  Transforming local potential to a uniform radial grid of dG=0.02 with 1125 points.
  Transforming nonlocal projectors to a uniform radial grid of dG=0.02 with 432 points.
  Transforming density augmentations to a uniform radial grid of dG=0.02 with 1125 points.
  Transforming atomic orbitals to a uniform radial grid of dG=0.02 with 432 points.
  Core radius for overlap checks: 1.25 bohrs.

Initialized 3 species with 50 total atoms.

Folded 1 k-points by 6x2x1 to 12 k-points.

---------- Setting up k-points, bands, fillings ----------
Adding inversion symmetry to k-mesh for non-inversion-symmetric unit cell.
Reduced to 8 k-points under symmetry. 
Computing the number of bands and number of electrons
Calculating initial fillings.
nElectrons: 922.000000   nBands: 554   nStates: 16

----- Setting up reduced wavefunction bases (one per k-point) -----
average nbasis = 47121.583 , ideal nbasis = 47110.633

----- Initializing Supercell corresponding to k-point mesh -----
Lattice vector linear combinations in supercell:
[   6   0   0  ]
[   0   2   0  ]
[   0   0   1  ]
Supercell lattice vectors:
[  57.1995  0  0  ]
[  0  46.7032  0  ]
[  0  0  49.5362  ]

Initializing DFT-D3 calculator:
	Parameters set for gga-PBE functional
	s6:  1.000  s_r6:  1.217
	s8:  0.722  s_r8:  1.000
	Per-atom parameters loaded for:
	Cu:  sqrtQ[a0]:  5.226  Rcov[a0]:  1.909  CN: [ 0.00 0.96 ]
	 C:  sqrtQ[a0]:  3.105  Rcov[a0]:  1.417  CN: [ 0.00 0.99 2.00 3.00 3.98 ]
	 O:  sqrtQ[a0]:  2.594  Rcov[a0]:  1.191  CN: [ 0.00 0.99 1.99 ]

Initializing DFT-D2 calculator for fluid / solvation:
	Cu:  C6:  187.33 Eh-a0^6  R0: 2.952 a0
	 C:  C6:   30.35 Eh-a0^6  R0: 2.744 a0
	 O:  C6:   12.14 Eh-a0^6  R0: 2.536 a0

---------- Setting up ewald sum ----------
Optimum gaussian width for ewald sums = 4.626384 bohr.
Real space sum over 455 unit cells with max indices [  6  3  2  ]
Reciprocal space sum over 7733 terms with max indices [  5  9  18  ]

Computing DFT-D3 correction:
# coordination-number Cu 5.564 5.766 5.564 6.576 6.865 6.865 6.865 6.865 9.103 9.103 9.103 9.103 9.045 9.045 9.045 9.045 9.019 9.019 9.019 9.020 7.549 7.549 7.550 7.550 7.549 7.549 7.549 7.549 9.019 9.019 9.019 9.019 9.045 9.045 9.045 9.045 9.103 9.106 9.103 9.104 6.866 7.305 6.866 6.901 5.565 5.565 5.565 5.565
# coordination-number C 2.667
# coordination-number O 1.039
# diagonal-C6 Cu 175.00 175.00 175.00 175.00 175.00 175.00 175.00 175.00 175.00 175.00 175.00 175.00 175.00 175.00 175.00 175.00 175.00 175.00 175.00 175.00 175.00 175.00 175.00 175.00 175.00 175.00 175.00 175.00 175.00 175.00 175.00 175.00 175.00 175.00 175.00 175.00 175.00 175.00 175.00 175.00 175.00 175.00 175.00 175.00 175.00 175.00 175.00 175.00
# diagonal-C6 C 26.49
# diagonal-C6 O 12.78
EvdW_6 =   -0.260438
EvdW_8 =   -0.398331

---------- Allocating electronic variables ----------
Initializing wave functions:  linear combination of atomic orbitals
Cu pseudo-atom occupations:   s ( 2 1 )  p ( 6 0 )  d ( 10 )
C pseudo-atom occupations:   s ( 2 )  p ( 2 )
O pseudo-atom occupations:   s ( 2 )  p ( 4 )
	FillingsUpdate:  mu: -2.654111351  nElectrons: 922.000000  magneticMoment: [ Abs: 0.44682  Tot: -0.00070 ]
LCAOMinimize: Iter:   0  F: -9471.1931875273185142  |grad|_K:  3.354e-02  alpha:  1.000e+00
LCAOMinimize: 	Step increased F by 1.439738e+03, reducing alpha to 4.070263e-02.
LCAOMinimize: 	Step increased F by 7.384220e+01, reducing alpha to 4.070263e-03.
	FillingsUpdate:  mu: -2.513174298  nElectrons: 922.000000  magneticMoment: [ Abs: 0.44953  Tot: +0.00152 ]
LCAOMinimize: Iter:   1  F: -9495.5680648610232311  |grad|_K:  2.261e-02  alpha:  4.070e-03  linmin: -1.528e-01  cgtest:  9.418e-01  t[s]:    304.25
LCAOMinimize: Encountered beta<0, resetting CG.
LCAOMinimize: 	Predicted alpha/alphaT>3.000000, increasing alphaT to 1.221079e-02.
	FillingsUpdate:  mu: -1.436155019  nElectrons: 922.000000  magneticMoment: [ Abs: 0.46127  Tot: -0.00557 ]
LCAOMinimize: Iter:   2  F: -9522.3292827790501178  |grad|_K:  1.589e-02  alpha:  1.601e-02  linmin: -1.854e-02  cgtest:  1.394e-02  t[s]:    396.22
LCAOMinimize: 	Wrong curvature in test step, increasing alphaT to 4.801739e-02.
	FillingsUpdate:  mu: -1.231914706  nElectrons: 922.000000  magneticMoment: [ Abs: 0.49578  Tot: -0.00648 ]
LCAOMinimize: Iter:   3  F: -9553.6770600908839697  |grad|_K:  1.688e-02  alpha: -6.072e-02  linmin: -1.004e-01  cgtest:  8.068e-01  t[s]:    462.82
	FillingsUpdate:  mu: +3.399095911  nElectrons: 922.000000  magneticMoment: [ Abs: 0.00368  Tot: -0.00085 ]
LCAOMinimize: Iter:   4  F: -9588.9511813617573353  |grad|_K:  1.345e-02  alpha:  4.937e-01  linmin:  1.037e-02  cgtest: -1.532e+00  t[s]:    534.67
LCAOMinimize: 	Step increased F by 2.972411e+01, reducing alpha to 1.848224e-02.
	FillingsUpdate:  mu: +3.080578480  nElectrons: 922.000000  magneticMoment: [ Abs: 0.00384  Tot: -0.00108 ]
LCAOMinimize: Iter:   5  F: -9598.7325661194954591  |grad|_K:  8.610e-03  alpha:  1.848e-02  linmin: -2.803e-02  cgtest:  1.213e+00  t[s]:    659.30
LCAOMinimize: Encountered beta<0, resetting CG.
LCAOMinimize: 	Predicted alpha/alphaT>3.000000, increasing alphaT to 5.544671e-02.
	FillingsUpdate:  mu: +2.443467635  nElectrons: 922.000000  magneticMoment: [ Abs: 0.00381  Tot: +0.00019 ]
LCAOMinimize: Iter:   6  F: -9618.1367959685176174  |grad|_K:  6.240e-03  alpha:  1.079e-01  linmin:  2.712e-02  cgtest: -6.365e-01  t[s]:    750.38
	FillingsUpdate:  mu: +2.433779474  nElectrons: 922.000000  magneticMoment: [ Abs: 0.00380  Tot: +0.00017 ]
LCAOMinimize: Iter:   7  F: -9618.3667728421605716  |grad|_K:  6.326e-03  alpha:  2.802e-03  linmin: -9.649e-03  cgtest:  1.001e+00  t[s]:    822.22
LCAOMinimize: 	Predicted alpha/alphaT>3.000000, increasing alphaT to 8.404539e-03.
LCAOMinimize: 	Predicted alpha/alphaT>3.000000, increasing alphaT to 2.521362e-02.
LCAOMinimize: 	Wrong curvature in test step, increasing alphaT to 7.564085e-02.
	FillingsUpdate:  mu: +2.182237411  nElectrons: 922.000000  magneticMoment: [ Abs: 0.00379  Tot: +0.00043 ]
LCAOMinimize: Iter:   8  F: -9624.9155364689850103  |grad|_K:  5.411e-03  alpha: -1.506e+00  linmin: -5.290e-02  cgtest:  8.366e-01  t[s]:    926.11
	FillingsUpdate:  mu: +2.065502997  nElectrons: 922.000000  magneticMoment: [ Abs: 0.00363  Tot: +0.00022 ]
LCAOMinimize: Iter:   9  F: -9629.3815090462503576  |grad|_K:  4.251e-03  alpha:  2.717e-02  linmin: -7.558e-02  cgtest:  9.102e-01  t[s]:    998.48
LCAOMinimize: Encountered beta<0, resetting CG.
LCAOMinimize: 	Wrong curvature in test step, increasing alphaT to 8.151531e-02.
	FillingsUpdate:  mu: +1.765714374  nElectrons: 922.000000  magneticMoment: [ Abs: 0.00421  Tot: +0.00009 ]
LCAOMinimize: Iter:  10  F: -9645.1507619856893143  |grad|_K:  4.153e-03  alpha: -3.388e-03  linmin: -7.182e-02  cgtest:  8.878e-01  t[s]:   1064.92
	FillingsUpdate:  mu: +1.731867441  nElectrons: 922.000000  magneticMoment: [ Abs: 0.00437  Tot: -0.00007 ]
LCAOMinimize: Iter:  11  F: -9647.6062072068489215  |grad|_K:  4.001e-03  alpha:  2.061e-02  linmin: -5.617e-02  cgtest:  9.438e-01  t[s]:   1136.52
LCAOMinimize: 	Wrong curvature in test step, increasing alphaT to 6.181650e-02.
	FillingsUpdate:  mu: +1.714751537  nElectrons: 922.000000  magneticMoment: [ Abs: 0.00457  Tot: +0.00236 ]
LCAOMinimize: Iter:  12  F: -9649.7922587467564881  |grad|_K:  3.907e-03  alpha: -9.316e-01  linmin: -8.981e-02  cgtest:  9.475e-01  t[s]:   1202.92
	FillingsUpdate:  mu: +1.636856369  nElectrons: 922.000000  magneticMoment: [ Abs: 0.00427  Tot: +0.00181 ]
LCAOMinimize: Iter:  13  F: -9654.1674278115806374  |grad|_K:  4.844e-03  alpha:  3.680e-02  linmin: -8.925e-02  cgtest:  7.271e-01  t[s]:   1274.61
LCAOMinimize: 	Wrong curvature in test step, increasing alphaT to 1.104138e-01.
	FillingsUpdate:  mu: +0.735630741  nElectrons: 922.000000  magneticMoment: [ Abs: 0.00357  Tot: -0.00017 ]
LCAOMinimize: Iter:  14  F: -9672.9622361209458177  |grad|_K:  4.198e-03  alpha: -1.890e-02  linmin: -3.273e-02  cgtest:  4.238e-01  t[s]:   1341.46
	FillingsUpdate:  mu: +0.800374075  nElectrons: 922.000000  magneticMoment: [ Abs: 0.00363  Tot: +0.00015 ]
LCAOMinimize: Iter:  15  F: -9677.8273669245663768  |grad|_K:  3.322e-03  alpha:  3.453e-02  linmin: -7.754e-02  cgtest:  8.703e-01  t[s]:   1413.06
LCAOMinimize: Encountered beta<0, resetting CG.
LCAOMinimize: 	Predicted alpha/alphaT>3.000000, increasing alphaT to 1.035998e-01.
LCAOMinimize: 	Predicted alpha/alphaT>3.000000, increasing alphaT to 3.107995e-01.
	FillingsUpdate:  mu: +0.833021504  nElectrons: 922.000000  magneticMoment: [ Abs: 0.00385  Tot: -0.00002 ]
LCAOMinimize: Iter:  16  F: -9684.5805622926982323  |grad|_K:  2.901e-03  alpha:  1.080e-01  linmin: -1.058e-01  cgtest:  6.351e-01  t[s]:   1522.33
LCAOMinimize: 	Predicted alpha/alphaT>3.000000, increasing alphaT to 3.239655e-01.
	FillingsUpdate:  mu: +0.818298951  nElectrons: 922.000000  magneticMoment: [ Abs: 0.00403  Tot: -0.00013 ]
LCAOMinimize: Iter:  17  F: -9686.3408229241358640  |grad|_K:  2.731e-03  alpha:  2.694e-02  linmin: -1.338e-01  cgtest:  9.401e-01  t[s]:   1613.38
LCAOMinimize: 	Predicted alpha/alphaT>3.000000, increasing alphaT to 8.082082e-02.
LCAOMinimize: 	Predicted alpha/alphaT>3.000000, increasing alphaT to 2.424624e-01.
	FillingsUpdate:  mu: +0.495857849  nElectrons: 922.000000  magneticMoment: [ Abs: 0.00632  Tot: +0.00077 ]
LCAOMinimize: Iter:  18  F: -9692.9914165781592601  |grad|_K:  5.709e-03  alpha:  1.922e-01  linmin:  6.254e-03  cgtest:  5.908e-02  t[s]:   1722.67
	FillingsUpdate:  mu: +0.477713093  nElectrons: 922.000000  magneticMoment: [ Abs: 0.00655  Tot: +0.00072 ]
LCAOMinimize: Iter:  19  F: -9693.4913337729321938  |grad|_K:  6.042e-03  alpha:  3.199e-03  linmin: -1.589e-02  cgtest:  9.764e-01  t[s]:   1794.42
LCAOMinimize: 	Predicted alpha/alphaT>3.000000, increasing alphaT to 9.598446e-03.
LCAOMinimize: 	Predicted alpha/alphaT>3.000000, increasing alphaT to 2.879534e-02.
	FillingsUpdate:  mu: +0.558770398  nElectrons: 922.000000  magneticMoment: [ Abs: 0.00672  Tot: -0.00017 ]
LCAOMinimize: Iter:  20  F: -9697.6482500413603702  |grad|_K:  2.638e-03  alpha:  3.430e-02  linmin:  2.067e-02  cgtest: -4.300e-01  t[s]:   1903.88
LCAOMinimize: 	Predicted alpha/alphaT>3.000000, increasing alphaT to 1.028869e-01.
	FillingsUpdate:  mu: +0.590914783  nElectrons: 922.000000  magneticMoment: [ Abs: 0.00760  Tot: -0.00061 ]
LCAOMinimize: Iter:  21  F: -9699.2146252407783322  |grad|_K:  3.344e-03  alpha:  4.646e-02  linmin: -2.950e-02  cgtest:  8.334e-01  t[s]:   1994.36
	FillingsUpdate:  mu: +0.472058329  nElectrons: 922.000000  magneticMoment: [ Abs: 0.00828  Tot: -0.00041 ]
LCAOMinimize: Iter:  22  F: -9700.9330311852445448  |grad|_K:  2.405e-03  alpha:  3.554e-02  linmin:  6.011e-03  cgtest: -3.179e-01  t[s]:   2066.11
	FillingsUpdate:  mu: +0.502664660  nElectrons: 922.000000  magneticMoment: [ Abs: 0.00996  Tot: +0.00027 ]
LCAOMinimize: Iter:  23  F: -9701.4799804400590801  |grad|_K:  4.529e-03  alpha:  4.680e-02  linmin:  2.967e-02  cgtest:  6.487e-01  t[s]:   2137.88
	FillingsUpdate:  mu: +0.497115746  nElectrons: 922.000000  magneticMoment: [ Abs: 0.01000  Tot: +0.00027 ]
LCAOMinimize: Iter:  24  F: -9701.4938102598498517  |grad|_K:  4.508e-03  alpha:  3.855e-04  linmin: -1.021e-02  cgtest:  9.962e-01  t[s]:   2209.62
LCAOMinimize: Encountered beta<0, resetting CG.
LCAOMinimize: 	Predicted alpha/alphaT>3.000000, increasing alphaT to 1.156398e-03.
LCAOMinimize: 	Predicted alpha/alphaT>3.000000, increasing alphaT to 3.469194e-03.
LCAOMinimize: 	Predicted alpha/alphaT>3.000000, increasing alphaT to 1.040758e-02.
	FillingsUpdate:  mu: +0.317954963  nElectrons: 922.000000  magneticMoment: [ Abs: 0.00976  Tot: -0.00019 ]
LCAOMinimize: Iter:  25  F: -9702.4272425910221500  |grad|_K:  1.358e-03  alpha:  1.283e-02  linmin: -1.142e-01  cgtest:  6.738e-01  t[s]:   2319.01
LCAOMinimize: Encountered beta<0, resetting CG.
LCAOMinimize: 	Predicted alpha/alphaT>3.000000, increasing alphaT to 3.849404e-02.
	FillingsUpdate:  mu: +0.221465649  nElectrons: 922.000000  magneticMoment: [ Abs: 0.00958  Tot: -0.00025 ]
LCAOMinimize: Iter:  26  F: -9702.6720265382737125  |grad|_K:  7.562e-04  alpha:  4.137e-02  linmin: -2.840e-03  cgtest: -2.267e-02  t[s]:   2409.53
	FillingsUpdate:  mu: +0.210939250  nElectrons: 922.000000  magneticMoment: [ Abs: 0.00961  Tot: -0.00008 ]
LCAOMinimize: Iter:  27  F: -9702.7548278449321515  |grad|_K:  7.446e-04  alpha:  4.492e-02  linmin:  3.029e-03  cgtest: -2.343e-02  t[s]:   2481.19
	FillingsUpdate:  mu: +0.173231248  nElectrons: 922.000000  magneticMoment: [ Abs: 0.00973  Tot: -0.00009 ]
LCAOMinimize: Iter:  28  F: -9702.8321903070627741  |grad|_K:  4.136e-04  alpha:  4.448e-02  linmin:  1.015e-04  cgtest:  2.243e-01  t[s]:   2553.69
	FillingsUpdate:  mu: +0.157735841  nElectrons: 922.000000  magneticMoment: [ Abs: 0.00972  Tot: -0.00018 ]
LCAOMinimize: Iter:  29  F: -9702.8765135198391363  |grad|_K:  3.073e-04  alpha:  8.246e-02  linmin:  8.202e-03  cgtest: -5.324e-02  t[s]:   2625.33
	FillingsUpdate:  mu: +0.144178957  nElectrons: 922.000000  magneticMoment: [ Abs: 0.00969  Tot: -0.00016 ]
LCAOMinimize: Iter:  30  F: -9702.8827455267019104  |grad|_K:  1.665e-04  alpha:  2.095e-02  linmin: -6.382e-03  cgtest:  1.227e-01  t[s]:   2697.16
LCAOMinimize: None of the convergence criteria satisfied after 30 iterations.
----- createFluidSolver() ----- (Fluid-side solver setup)
   Initializing fluid molecule 'H2O'
     Initializing site 'O'
       Electron density: proportional to exp(-r/0.36935)*erfc((r-0.51523)/0.36823) with norm 6.826
       Charge density: gaussian nuclear width 0.478731 with net site charge 0.826
       Polarizability: cuspless exponential with width 0.32 and norm 3.73
       Hard sphere radius: 2.57003 bohrs
       Positions in reference frame:
         [ +0.000000 +0.000000 +0.000000 ]
     Initializing site 'H'
       Electron density: proportional to exp(-r/0.34641)*erfc((r-0)/0.390882) with norm 0.587
       Charge density: gaussian nuclear width 0.377945 with net site charge -0.413
       Polarizability: cuspless exponential with width 0.39 and norm 3.3
       Positions in reference frame:
         [ +0.000000 -1.441945 +1.122523 ]
         [ +0.000000 +1.441945 +1.122523 ]
     Net charge: 0   dipole magnitude: 0.927204
     Initializing spherical shell mfKernel with radius 2.61727 Bohr
     deltaS corrections:
       site 'O': -7.54299
       site 'H': -6.83917
   Initializing fluid molecule 'Na+'
     Initializing site 'Na'
       Electron density: proportional to exp(-r/0.19682)*erfc((r-0.71491)/0.41314) with norm 8.1383
       Charge density: gaussian nuclear width 0.365347 with net site charge -1
       Hard sphere radius: 1.86327 bohrs
       Positions in reference frame:
         [ +0.000000 +0.000000 +0.000000 ]
     Net charge: -1   dipole magnitude: 0
     Initializing gaussian mfKernel with width: 1.55004 Bohr
     deltaS corrections:
       site 'Na': -22.3555
   Initializing fluid molecule 'F-'
     Initializing site 'F'
       Electron density: proportional to exp(-r/0.38886)*erfc((r-0)/0.438782) with norm 8
       Charge density: gaussian nuclear width 0.374796 with net site charge 1
       Hard sphere radius: 2.39995 bohrs
       Positions in reference frame:
         [ +0.000000 +0.000000 +0.000000 ]
     Net charge: 1   dipole magnitude: 0
     Initializing gaussian mfKernel with width: 1.59012 Bohr
     deltaS corrections:
       site 'F': -9.04335

Correction to mu due to finite nuclear width = -0.0829565
   Cavity determined by nc: 0.00142 and sigma: 0.707107
   Nonlocal vdW cavity from gaussian model electron density with norm = 8 and sigma = 0.993594 bohr
   Charge asymmetry in cavity with sensitivity pCavity = 36.5 e-bohr/Eh
   Electrostatic cavity expanded by eta = 1.46 bohrs
   Weighted density cavitation model constrained by Nbulk: 0.0049383 bohr^-3, Pvap: 3.14029 kPa, Rvdw: 2.61727 bohr and sigmaBulk: 4.62e-05 Eh/bohr^2 at T: 298 K.
   Weighted density dispersion model using vdW pair potentials with single solvent site with sqrtC6eff: 0.77 SI.


---- Citations for features of the code used in this run ----

   Software package:
      R. Sundararaman, K. Letchworth-Weaver, K.A. Schwarz, D. Gunceler, Y. Ozhabes and T.A. Arias, 'JDFTx: software for joint density-functional theory', SoftwareX 6, 278 (2017)

   gga-PBE exchange-correlation functional:
      J.P. Perdew, K. Burke and M. Ernzerhof, Phys. Rev. Lett. 77, 3865 (1996)

   Pseudopotentials:
      KF Garrity, JW Bennett, KM Rabe and D Vanderbilt, Comput. Mater. Sci. 81, 446 (2014)

   DFT-D3 dispersion correction:
      S. Grimme, J. Antony, S. Ehrlich and H. Krieg, J. Chem. Phys. 132, 154104 (2010)

   DFT-D2 dispersion correction:
      S. Grimme, J. Comput. Chem. 27, 1787 (2006)

   Charge-asymmetric nonlocally-determined local-electric (CANDLE) solvation model:
      R. Sundararaman and W.A. Goddard III, J. Chem. Phys. 142, 064107 (2015)

   Total energy minimization with Auxiliary Hamiltonian:
      C. Freysoldt, S. Boeck, and J. Neugebauer, Phys. Rev. B 79, 241103(R) (2009)

   Linear-tetrahedron sampling for density of states:
      G. Lehmann and M. Taut, Phys. status solidi (b) 54, 469 (1972)

This list may not be complete. Please suggest additional citations or
report any other bugs at https://github.com/shankar1729/jdftx/issues

Initialization completed successfully at t[s]:   2727.04


Computing DFT-D3 correction:
# coordination-number Cu 5.564 5.766 5.564 6.576 6.865 6.865 6.865 6.865 9.103 9.103 9.103 9.103 9.045 9.045 9.045 9.045 9.019 9.019 9.019 9.020 7.549 7.549 7.550 7.550 7.549 7.549 7.549 7.549 9.019 9.019 9.019 9.019 9.045 9.045 9.045 9.045 9.103 9.106 9.103 9.104 6.866 7.305 6.866 6.901 5.565 5.565 5.565 5.565
# coordination-number C 2.667
# coordination-number O 1.039
# diagonal-C6 Cu 175.00 175.00 175.00 175.00 175.00 175.00 175.00 175.00 175.00 175.00 175.00 175.00 175.00 175.00 175.00 175.00 175.00 175.00 175.00 175.00 175.00 175.00 175.00 175.00 175.00 175.00 175.00 175.00 175.00 175.00 175.00 175.00 175.00 175.00 175.00 175.00 175.00 175.00 175.00 175.00 175.00 175.00 175.00 175.00 175.00 175.00 175.00 175.00
# diagonal-C6 C 26.49
# diagonal-C6 O 12.78
EvdW_6 =   -0.260438
EvdW_8 =   -0.398331
Fluid solver invoked on fresh (random / LCAO) wavefunctions
Running a vacuum solve first:

-------- Initial electronic minimization -----------
	FillingsUpdate:  mu: +0.144187326  nElectrons: 922.000000  magneticMoment: [ Abs: 0.00969  Tot: -0.00016 ]
ElecMinimize: Iter:   0  F: -9702.882745526687359  |grad|_K:  2.833e-04  alpha:  1.000e+00
	FillingsUpdate:  mu: +0.019578220  nElectrons: 922.000000  magneticMoment: [ Abs: 0.00927  Tot: -0.00018 ]
	SubspaceRotationAdjust: set factor to 0.9
ElecMinimize: Iter:   1  F: -9706.075817074754013  |grad|_K:  1.481e-04  alpha:  9.867e-02  linmin:  1.107e-04  t[s]:   2956.27
	FillingsUpdate:  mu: +0.305781613  nElectrons: 922.000000  magneticMoment: [ Abs: 0.00756  Tot: +0.00001 ]
	SubspaceRotationAdjust: set factor to 0.499
ElecMinimize: Iter:   2  F: -9707.310923260667550  |grad|_K:  2.800e-04  alpha:  1.343e-01  linmin: -6.440e-05  t[s]:   3108.60
	FillingsUpdate:  mu: +0.337567054  nElectrons: 922.000000  magneticMoment: [ Abs: 0.00480  Tot: -0.00017 ]
	SubspaceRotationAdjust: set factor to 0.249
ElecMinimize: Iter:   3  F: -9709.202241824024895  |grad|_K:  1.309e-04  alpha:  7.154e-02  linmin:  3.406e-05  t[s]:   3260.61
	FillingsUpdate:  mu: +0.221390865  nElectrons: 922.000000  magneticMoment: [ Abs: 0.00397  Tot: -0.00008 ]
	SubspaceRotationAdjust: set factor to 0.206
ElecMinimize: Iter:   4  F: -9709.886348024025210  |grad|_K:  6.132e-05  alpha:  1.011e-01  linmin: -4.000e-05  t[s]:   3412.81
	FillingsUpdate:  mu: +0.134963331  nElectrons: 922.000000  magneticMoment: [ Abs: 0.00348  Tot: -0.00009 ]
	SubspaceRotationAdjust: set factor to 0.223
ElecMinimize: Iter:   5  F: -9710.227302970126402  |grad|_K:  4.545e-05  alpha:  2.049e-01  linmin:  1.766e-06  t[s]:   3564.75
	FillingsUpdate:  mu: +0.124388579  nElectrons: 922.000000  magneticMoment: [ Abs: 0.00307  Tot: -0.00009 ]
	SubspaceRotationAdjust: set factor to 0.257
ElecMinimize: Iter:   6  F: -9710.336339432151362  |grad|_K:  2.583e-05  alpha:  1.260e-01  linmin: -9.330e-08  t[s]:   3716.90
	FillingsUpdate:  mu: +0.115442390  nElectrons: 922.000000  magneticMoment: [ Abs: 0.00243  Tot: -0.00010 ]
	SubspaceRotationAdjust: set factor to 0.284
ElecMinimize: Iter:   7  F: -9710.407927358923189  |grad|_K:  2.090e-05  alpha:  2.557e-01  linmin:  2.334e-06  t[s]:   3868.74
	FillingsUpdate:  mu: +0.119195210  nElectrons: 922.000000  magneticMoment: [ Abs: 0.00218  Tot: -0.00009 ]
	SubspaceRotationAdjust: set factor to 0.316
ElecMinimize: Iter:   8  F: -9710.434499717774088  |grad|_K:  1.474e-05  alpha:  1.453e-01  linmin:  2.682e-07  t[s]:   4020.86
	FillingsUpdate:  mu: +0.115070270  nElectrons: 922.000000  magneticMoment: [ Abs: 0.00192  Tot: -0.00008 ]
	SubspaceRotationAdjust: set factor to 0.354
ElecMinimize: Iter:   9  F: -9710.454042738521821  |grad|_K:  1.196e-05  alpha:  2.142e-01  linmin:  1.306e-06  t[s]:   4172.92
	FillingsUpdate:  mu: +0.108109784  nElectrons: 922.000000  magneticMoment: [ Abs: 0.00173  Tot: -0.00008 ]
	SubspaceRotationAdjust: set factor to 0.362
ElecMinimize: Iter:  10  F: -9710.463835903994550  |grad|_K:  9.911e-06  alpha:  1.631e-01  linmin:  3.226e-07  t[s]:   4324.94
	FillingsUpdate:  mu: +0.102230677  nElectrons: 922.000000  magneticMoment: [ Abs: 0.00142  Tot: -0.00007 ]
	SubspaceRotationAdjust: set factor to 0.422
ElecMinimize: Iter:  11  F: -9710.473118692758362  |grad|_K:  8.263e-06  alpha:  2.253e-01  linmin:  1.190e-06  t[s]:   4476.91
	FillingsUpdate:  mu: +0.101195769  nElectrons: 922.000000  magneticMoment: [ Abs: 0.00125  Tot: -0.00006 ]
	SubspaceRotationAdjust: set factor to 0.494
ElecMinimize: Iter:  12  F: -9710.477584009122438  |grad|_K:  6.740e-06  alpha:  1.560e-01  linmin:  4.331e-08  t[s]:   4629.18
	FillingsUpdate:  mu: +0.104460253  nElectrons: 922.000000  magneticMoment: [ Abs: 0.00100  Tot: -0.00005 ]
	SubspaceRotationAdjust: set factor to 0.494
ElecMinimize: Iter:  13  F: -9710.482682900177679  |grad|_K:  6.511e-06  alpha:  2.674e-01  linmin:  3.773e-07  t[s]:   4781.35
	FillingsUpdate:  mu: +0.104612133  nElectrons: 922.000000  magneticMoment: [ Abs: 0.00085  Tot: -0.00004 ]
	SubspaceRotationAdjust: set factor to 0.496
ElecMinimize: Iter:  14  F: -9710.484859370324557  |grad|_K:  4.582e-06  alpha:  1.225e-01  linmin:  8.699e-08  t[s]:   4933.41
	FillingsUpdate:  mu: +0.101600389  nElectrons: 922.000000  magneticMoment: [ Abs: 0.00069  Tot: -0.00004 ]
	SubspaceRotationAdjust: set factor to 0.438
ElecMinimize: Iter:  15  F: -9710.486498034360920  |grad|_K:  4.213e-06  alpha:  1.860e-01  linmin:  6.330e-07  t[s]:   5085.44
	FillingsUpdate:  mu: +0.100554107  nElectrons: 922.000000  magneticMoment: [ Abs: 0.00056  Tot: -0.00003 ]
	SubspaceRotationAdjust: set factor to 0.385
ElecMinimize: Iter:  16  F: -9710.487506313402264  |grad|_K:  2.903e-06  alpha:  1.355e-01  linmin:  6.329e-08  t[s]:   5237.45
	FillingsUpdate:  mu: +0.102180799  nElectrons: 922.000000  magneticMoment: [ Abs: 0.00044  Tot: -0.00003 ]
	SubspaceRotationAdjust: set factor to 0.417
ElecMinimize: Iter:  17  F: -9710.488180888509305  |grad|_K:  2.275e-06  alpha:  1.905e-01  linmin: -7.832e-08  t[s]:   5389.45
	FillingsUpdate:  mu: +0.103131532  nElectrons: 922.000000  magneticMoment: [ Abs: 0.00035  Tot: -0.00002 ]
	SubspaceRotationAdjust: set factor to 0.438
ElecMinimize: Iter:  18  F: -9710.488512517458730  |grad|_K:  1.655e-06  alpha:  1.525e-01  linmin: -5.289e-09  t[s]:   5542.56
	FillingsUpdate:  mu: +0.103324906  nElectrons: 922.000000  magneticMoment: [ Abs: 0.00027  Tot: -0.00002 ]
	SubspaceRotationAdjust: set factor to 0.419
ElecMinimize: Iter:  19  F: -9710.488730882127129  |grad|_K:  1.486e-06  alpha:  1.897e-01  linmin: -1.570e-07  t[s]:   5694.64
	FillingsUpdate:  mu: +0.103298155  nElectrons: 922.000000  magneticMoment: [ Abs: 0.00020  Tot: -0.00001 ]
	SubspaceRotationAdjust: set factor to 0.392
ElecMinimize: Iter:  20  F: -9710.488864733251830  |grad|_K:  9.732e-07  alpha:  1.443e-01  linmin: -1.138e-07  t[s]:   5847.71
	FillingsUpdate:  mu: +0.103564676  nElectrons: 922.000000  magneticMoment: [ Abs: 0.00016  Tot: -0.00001 ]
	SubspaceRotationAdjust: set factor to 0.418
ElecMinimize: Iter:  21  F: -9710.488936366853522  |grad|_K:  8.393e-07  alpha:  1.800e-01  linmin:  4.634e-08  t[s]:   5999.73
	FillingsUpdate:  mu: +0.103802328  nElectrons: 922.000000  magneticMoment: [ Abs: 0.00012  Tot: -0.00001 ]
	SubspaceRotationAdjust: set factor to 0.465
ElecMinimize: Iter:  22  F: -9710.488982850740285  |grad|_K:  6.085e-07  alpha:  1.571e-01  linmin:  1.129e-08  t[s]:   6152.11
	FillingsUpdate:  mu: +0.103848620  nElectrons: 922.000000  magneticMoment: [ Abs: 0.00009  Tot: -0.00001 ]
	SubspaceRotationAdjust: set factor to 0.506
ElecMinimize: Iter:  23  F: -9710.489018166765163  |grad|_K:  6.003e-07  alpha:  2.270e-01  linmin:  1.206e-07  t[s]:   6303.97
	FillingsUpdate:  mu: +0.103824503  nElectrons: 922.000000  magneticMoment: [ Abs: 0.00007  Tot: -0.00000 ]
	SubspaceRotationAdjust: set factor to 0.56
ElecMinimize: Iter:  24  F: -9710.489039133854021  |grad|_K:  4.185e-07  alpha:  1.385e-01  linmin: -4.147e-08  t[s]:   6456.17
	FillingsUpdate:  mu: +0.103803711  nElectrons: 922.000000  magneticMoment: [ Abs: 0.00006  Tot: -0.00000 ]
	SubspaceRotationAdjust: set factor to 0.57
ElecMinimize: Iter:  25  F: -9710.489052832457674  |grad|_K:  4.170e-07  alpha:  1.862e-01  linmin:  1.361e-07  t[s]:   6608.15
	FillingsUpdate:  mu: +0.103829410  nElectrons: 922.000000  magneticMoment: [ Abs: 0.00005  Tot: -0.00000 ]
	SubspaceRotationAdjust: set factor to 0.499
ElecMinimize: Iter:  26  F: -9710.489062954526162  |grad|_K:  3.171e-07  alpha:  1.386e-01  linmin:  3.624e-08  t[s]:   6760.84
	FillingsUpdate:  mu: +0.103808462  nElectrons: 922.000000  magneticMoment: [ Abs: 0.00005  Tot: -0.00000 ]
	SubspaceRotationAdjust: set factor to 0.444
ElecMinimize: Iter:  27  F: -9710.489068962546298  |grad|_K:  2.699e-07  alpha:  1.422e-01  linmin:  9.132e-08  t[s]:   6912.95
	FillingsUpdate:  mu: +0.103784894  nElectrons: 922.000000  magneticMoment: [ Abs: 0.00004  Tot: -0.00000 ]
	SubspaceRotationAdjust: set factor to 0.449
ElecMinimize: Iter:  28  F: -9710.489074457886090  |grad|_K:  2.142e-07  alpha:  1.797e-01  linmin:  1.371e-07  t[s]:   7065.20
	FillingsUpdate:  mu: +0.103778080  nElectrons: 922.000000  magneticMoment: [ Abs: 0.00004  Tot: +0.00000 ]
	SubspaceRotationAdjust: set factor to 0.468
ElecMinimize: Iter:  29  F: -9710.489077360327428  |grad|_K:  1.655e-07  alpha:  1.507e-01  linmin: -4.948e-08  t[s]:   7217.20
	FillingsUpdate:  mu: +0.103785060  nElectrons: 922.000000  magneticMoment: [ Abs: 0.00003  Tot: +0.00000 ]
	SubspaceRotationAdjust: set factor to 0.469
ElecMinimize: Iter:  30  F: -9710.489079504252004  |grad|_K:  1.281e-07  alpha:  1.863e-01  linmin:  2.977e-09  t[s]:   7369.74
	FillingsUpdate:  mu: +0.103804647  nElectrons: 922.000000  magneticMoment: [ Abs: 0.00003  Tot: +0.00000 ]
	SubspaceRotationAdjust: set factor to 0.455
ElecMinimize: Iter:  31  F: -9710.489080525343525  |grad|_K:  1.074e-07  alpha:  1.481e-01  linmin: -2.156e-08  t[s]:   7521.83
	FillingsUpdate:  mu: +0.103807581  nElectrons: 922.000000  magneticMoment: [ Abs: 0.00002  Tot: +0.00000 ]
	SubspaceRotationAdjust: set factor to 0.441
ElecMinimize: Iter:  32  F: -9710.489081358538897  |grad|_K:  8.441e-08  alpha:  1.721e-01  linmin:  1.371e-07  t[s]:   7674.07
	FillingsUpdate:  mu: +0.103785467  nElectrons: 922.000000  magneticMoment: [ Abs: 0.00002  Tot: +0.00000 ]
	SubspaceRotationAdjust: set factor to 0.459
ElecMinimize: Iter:  33  F: -9710.489081809006166  |grad|_K:  6.872e-08  alpha:  1.505e-01  linmin:  1.956e-07  t[s]:   7826.19
	FillingsUpdate:  mu: +0.103759169  nElectrons: 922.000000  magneticMoment: [ Abs: 0.00001  Tot: +0.00000 ]
	SubspaceRotationAdjust: set factor to 0.491
ElecMinimize: Iter:  34  F: -9710.489082168422101  |grad|_K:  5.478e-08  alpha:  1.810e-01  linmin: -9.922e-07  t[s]:   7979.12
	FillingsUpdate:  mu: +0.103764984  nElectrons: 922.000000  magneticMoment: [ Abs: 0.00001  Tot: +0.00000 ]
	SubspaceRotationAdjust: set factor to 0.58
ElecMinimize: Iter:  35  F: -9710.489082372223493  |grad|_K:  4.515e-08  alpha:  1.607e-01  linmin:  3.993e-07  t[s]:   8131.26
	FillingsUpdate:  mu: +0.103778584  nElectrons: 922.000000  magneticMoment: [ Abs: 0.00001  Tot: +0.00000 ]
	SubspaceRotationAdjust: set factor to 0.597
ElecMinimize: Iter:  36  F: -9710.489082516120106  |grad|_K:  3.979e-08  alpha:  1.691e-01  linmin: -3.990e-07  t[s]:   8284.12
	FillingsUpdate:  mu: +0.103775326  nElectrons: 922.000000  magneticMoment: [ Abs: 0.00001  Tot: +0.00000 ]
	SubspaceRotationAdjust: set factor to 0.553
ElecMinimize: Iter:  37  F: -9710.489082611475169  |grad|_K:  3.694e-08  alpha:  1.425e-01  linmin:  1.401e-06  t[s]:   8436.11
	FillingsUpdate:  mu: +0.103765952  nElectrons: 922.000000  magneticMoment: [ Abs: 0.00001  Tot: +0.00000 ]
	SubspaceRotationAdjust: set factor to 0.491
ElecMinimize: Iter:  38  F: -9710.489082688680355  |grad|_K:  3.028e-08  alpha:  1.394e-01  linmin: -8.140e-07  t[s]:   8588.65
ElecMinimize: Converged (|Delta F|<1.000000e-07 for 2 iters).
Setting wave functions to eigenvectors of Hamiltonian
Converging empty states (this may take a while): |deigs|: 1.382e-02
Vacuum energy after initial minimize, F = -9710.489082688680355


-------- Electronic minimization -----------
	Linear fluid (dielectric constant: 78.4, screening length: 8.12261 Bohr) occupying 0.469980 of unit cell:	Completed after 26 iterations at t[s]:   9566.70
	FillingsUpdate:  mu: -0.158542938  nElectrons: 922.000000  magneticMoment: [ Abs: 0.00000  Tot: -0.00000 ]
ElecMinimize: Iter:   0  F: -9710.488856319694605  |grad|_K:  1.139e-06  alpha:  1.000e+00
	Linear fluid (dielectric constant: 78.4, screening length: 8.12261 Bohr) occupying 0.471621 of unit cell:	Completed after 19 iterations at t[s]:   9695.53
	Linear fluid (dielectric constant: 78.4, screening length: 8.12261 Bohr) occupying 0.470842 of unit cell:	Completed after 18 iterations at t[s]:   9739.69
	FillingsUpdate:  mu: -0.153963962  nElectrons: 922.000000  magneticMoment: [ Abs: 0.00000  Tot: -0.00000 ]
	SubspaceRotationAdjust: set factor to 0.425
ElecMinimize: Iter:   1  F: -9710.489129180559758  |grad|_K:  1.575e-06  alpha:  5.134e-01  linmin:  4.374e-07  t[s]:   9797.18
	Linear fluid (dielectric constant: 78.4, screening length: 8.12261 Bohr) occupying 0.472599 of unit cell:	Completed after 19 iterations at t[s]:   9859.07
	Linear fluid (dielectric constant: 78.4, screening length: 8.12261 Bohr) occupying 0.471408 of unit cell:	Completed after 18 iterations at t[s]:   9903.57
	FillingsUpdate:  mu: -0.154035591  nElectrons: 922.000000  magneticMoment: [ Abs: 0.00000  Tot: -0.00000 ]
	SubspaceRotationAdjust: set factor to 0.542
ElecMinimize: Iter:   2  F: -9710.489292094986013  |grad|_K:  1.242e-06  alpha:  1.587e-01  linmin:  6.911e-08  t[s]:   9960.98
	Linear fluid (dielectric constant: 78.4, screening length: 8.12261 Bohr) occupying 0.471791 of unit cell:	Completed after 12 iterations at t[s]:  10022.25
	Linear fluid (dielectric constant: 78.4, screening length: 8.12261 Bohr) occupying 0.471827 of unit cell:	Completed after 4 iterations at t[s]:  10063.26
	FillingsUpdate:  mu: -0.155065599  nElectrons: 922.000000  magneticMoment: [ Abs: 0.00000  Tot: -0.00000 ]
	SubspaceRotationAdjust: set factor to 0.618
ElecMinimize: Iter:   3  F: -9710.489404201569414  |grad|_K:  7.951e-07  alpha:  1.736e-01  linmin:  2.099e-08  t[s]:  10120.74
	Linear fluid (dielectric constant: 78.4, screening length: 8.12261 Bohr) occupying 0.472047 of unit cell:	Completed after 11 iterations at t[s]:  10181.03
	Linear fluid (dielectric constant: 78.4, screening length: 8.12261 Bohr) occupying 0.472184 of unit cell:	Completed after 11 iterations at t[s]:  10223.99
	FillingsUpdate:  mu: -0.154815327  nElectrons: 922.000000  magneticMoment: [ Abs: 0.00000  Tot: -0.00000 ]
	SubspaceRotationAdjust: set factor to 0.688
ElecMinimize: Iter:   4  F: -9710.489479645200845  |grad|_K:  6.240e-07  alpha:  2.839e-01  linmin: -6.282e-08  t[s]:  10281.32
	Linear fluid (dielectric constant: 78.4, screening length: 8.12261 Bohr) occupying 0.472438 of unit cell:	Completed after 12 iterations at t[s]:  10342.66
	Linear fluid (dielectric constant: 78.4, screening length: 8.12261 Bohr) occupying 0.472316 of unit cell:	Completed after 11 iterations at t[s]:  10385.34
	FillingsUpdate:  mu: -0.154335934  nElectrons: 922.000000  magneticMoment: [ Abs: 0.00000  Tot: -0.00000 ]
	SubspaceRotationAdjust: set factor to 0.762
ElecMinimize: Iter:   5  F: -9710.489503735025210  |grad|_K:  4.279e-07  alpha:  1.472e-01  linmin:  1.717e-08  t[s]:  10442.46
	Linear fluid (dielectric constant: 78.4, screening length: 8.12261 Bohr) occupying 0.472381 of unit cell:	Completed after 9 iterations at t[s]:  10502.61
	Linear fluid (dielectric constant: 78.4, screening length: 8.12261 Bohr) occupying 0.472395 of unit cell:	Completed after 3 iterations at t[s]:  10543.61
	FillingsUpdate:  mu: -0.154407480  nElectrons: 922.000000  magneticMoment: [ Abs: 0.00000  Tot: -0.00000 ]
	SubspaceRotationAdjust: set factor to 0.774
ElecMinimize: Iter:   6  F: -9710.489517531903402  |grad|_K:  3.425e-07  alpha:  1.793e-01  linmin: -9.842e-08  t[s]:  10601.23
	Linear fluid (dielectric constant: 78.4, screening length: 8.12261 Bohr) occupying 0.472448 of unit cell:	Completed after 8 iterations at t[s]:  10661.15
	Linear fluid (dielectric constant: 78.4, screening length: 8.12261 Bohr) occupying 0.472444 of unit cell:	Completed after 2 iterations at t[s]:  10702.22
	FillingsUpdate:  mu: -0.154505003  nElectrons: 922.000000  magneticMoment: [ Abs: 0.00000  Tot: -0.00000 ]
	SubspaceRotationAdjust: set factor to 0.737
ElecMinimize: Iter:   7  F: -9710.489525695395059  |grad|_K:  2.639e-07  alpha:  1.651e-01  linmin:  9.696e-08  t[s]:  10759.57
	Linear fluid (dielectric constant: 78.4, screening length: 8.12261 Bohr) occupying 0.472471 of unit cell:	Completed after 5 iterations at t[s]:  10819.06
	Linear fluid (dielectric constant: 78.4, screening length: 8.12261 Bohr) occupying 0.472471 of unit cell:	Completed after 0 iterations at t[s]:  10859.35
	FillingsUpdate:  mu: -0.154515659  nElectrons: 922.000000  magneticMoment: [ Abs: 0.00000  Tot: -0.00000 ]
	SubspaceRotationAdjust: set factor to 0.786
ElecMinimize: Iter:   8  F: -9710.489530458300578  |grad|_K:  1.699e-07  alpha:  1.632e-01  linmin:  1.004e-07  t[s]:  10916.83
	Linear fluid (dielectric constant: 78.4, screening length: 8.12261 Bohr) occupying 0.472481 of unit cell:	Completed after 6 iterations at t[s]:  10976.48
	Linear fluid (dielectric constant: 78.4, screening length: 8.12261 Bohr) occupying 0.472479 of unit cell:	Completed after 2 iterations at t[s]:  11017.54
	FillingsUpdate:  mu: -0.154430565  nElectrons: 922.000000  magneticMoment: [ Abs: 0.00000  Tot: -0.00000 ]
	SubspaceRotationAdjust: set factor to 0.83
ElecMinimize: Iter:   9  F: -9710.489532042589417  |grad|_K:  1.184e-07  alpha:  1.316e-01  linmin: -4.075e-07  t[s]:  11074.86
	Linear fluid (dielectric constant: 78.4, screening length: 8.12261 Bohr) occupying 0.472480 of unit cell:	Completed after 3 iterations at t[s]:  11133.85
	Linear fluid (dielectric constant: 78.4, screening length: 8.12261 Bohr) occupying 0.472481 of unit cell:	Completed after 3 iterations at t[s]:  11174.91
	FillingsUpdate:  mu: -0.154441051  nElectrons: 922.000000  magneticMoment: [ Abs: 0.00000  Tot: -0.00000 ]
	SubspaceRotationAdjust: set factor to 0.778
ElecMinimize: Iter:  10  F: -9710.489533357051187  |grad|_K:  1.125e-07  alpha:  2.234e-01  linmin:  1.478e-06  t[s]:  11232.91
	Linear fluid (dielectric constant: 78.4, screening length: 8.12261 Bohr) occupying 0.472478 of unit cell:	Completed after 6 iterations at t[s]:  11292.47
	Linear fluid (dielectric constant: 78.4, screening length: 8.12261 Bohr) occupying 0.472479 of unit cell:	Completed after 3 iterations at t[s]:  11333.57
	FillingsUpdate:  mu: -0.154504987  nElectrons: 922.000000  magneticMoment: [ Abs: 0.00000  Tot: -0.00000 ]
	SubspaceRotationAdjust: set factor to 0.589
ElecMinimize: Iter:  11  F: -9710.489534031386938  |grad|_K:  6.281e-08  alpha:  1.273e-01  linmin:  3.670e-06  t[s]:  11391.06
	Linear fluid (dielectric constant: 78.4, screening length: 8.12261 Bohr) occupying 0.472477 of unit cell:	Completed after 2 iterations at t[s]:  11449.76
	Linear fluid (dielectric constant: 78.4, screening length: 8.12261 Bohr) occupying 0.472477 of unit cell:	Completed after 2 iterations at t[s]:  11490.82
	FillingsUpdate:  mu: -0.154464594  nElectrons: 922.000000  magneticMoment: [ Abs: 0.00000  Tot: -0.00000 ]
	SubspaceRotationAdjust: set factor to 0.579
ElecMinimize: Iter:  12  F: -9710.489534326066860  |grad|_K:  5.124e-08  alpha:  1.797e-01  linmin: -1.837e-07  t[s]:  11548.30
	Linear fluid (dielectric constant: 78.4, screening length: 8.12261 Bohr) occupying 0.472473 of unit cell:	Completed after 2 iterations at t[s]:  11607.29
	Linear fluid (dielectric constant: 78.4, screening length: 8.12261 Bohr) occupying 0.472474 of unit cell:	Completed after 0 iterations at t[s]:  11647.66
	FillingsUpdate:  mu: -0.154458753  nElectrons: 922.000000  magneticMoment: [ Abs: 0.00000  Tot: -0.00000 ]
	SubspaceRotationAdjust: set factor to 0.6
ElecMinimize: Iter:  13  F: -9710.489534494707186  |grad|_K:  3.884e-08  alpha:  1.516e-01  linmin:  2.155e-06  t[s]:  11704.92
	Linear fluid (dielectric constant: 78.4, screening length: 8.12261 Bohr) occupying 0.472471 of unit cell:	Completed after 2 iterations at t[s]:  11763.71
	Linear fluid (dielectric constant: 78.4, screening length: 8.12261 Bohr) occupying 0.472470 of unit cell:	Completed after 0 iterations at t[s]:  11804.83
	FillingsUpdate:  mu: -0.154465240  nElectrons: 922.000000  magneticMoment: [ Abs: 0.00000  Tot: -0.00000 ]
	SubspaceRotationAdjust: set factor to 0.643
ElecMinimize: Iter:  14  F: -9710.489534603248103  |grad|_K:  2.913e-08  alpha:  1.764e-01  linmin: -4.299e-06  t[s]:  11862.52
	Linear fluid (dielectric constant: 78.4, screening length: 8.12261 Bohr) occupying 0.472467 of unit cell:	Completed after 2 iterations at t[s]:  11921.69
	Linear fluid (dielectric constant: 78.4, screening length: 8.12261 Bohr) occupying 0.472467 of unit cell:	Completed after 0 iterations at t[s]:  11961.90
	FillingsUpdate:  mu: -0.154484194  nElectrons: 922.000000  magneticMoment: [ Abs: 0.00000  Tot: -0.00000 ]
	SubspaceRotationAdjust: set factor to 0.659
ElecMinimize: Iter:  15  F: -9710.489534670301509  |grad|_K:  2.261e-08  alpha:  1.691e-01  linmin:  2.005e-07  t[s]:  12019.24
	Linear fluid (dielectric constant: 78.4, screening length: 8.12261 Bohr) occupying 0.472464 of unit cell:	Completed after 1 iterations at t[s]:  12077.78
	Linear fluid (dielectric constant: 78.4, screening length: 8.12261 Bohr) occupying 0.472464 of unit cell:	Completed after 0 iterations at t[s]:  12118.70
	FillingsUpdate:  mu: -0.154486569  nElectrons: 922.000000  magneticMoment: [ Abs: 0.00000  Tot: +0.00000 ]
	SubspaceRotationAdjust: set factor to 0.772
ElecMinimize: Iter:  16  F: -9710.489534718619325  |grad|_K:  1.947e-08  alpha:  2.278e-01  linmin: -1.782e-06  t[s]:  12176.03
ElecMinimize: Converged (|Delta F|<1.000000e-07 for 2 iters).
Setting wave functions to eigenvectors of Hamiltonian
Converging empty states (this may take a while): |deigs|: 8.179e-05
Single-point solvation energy estimate, DeltaF = -0.000452029938970

Computing DFT-D3 correction:
# coordination-number Cu 5.564 5.766 5.564 6.576 6.865 6.865 6.865 6.865 9.103 9.103 9.103 9.103 9.045 9.045 9.045 9.045 9.019 9.019 9.019 9.020 7.549 7.549 7.550 7.550 7.549 7.549 7.549 7.549 9.019 9.019 9.019 9.019 9.045 9.045 9.045 9.045 9.103 9.106 9.103 9.104 6.866 7.305 6.866 6.901 5.565 5.565 5.565 5.565
# coordination-number C 2.667
# coordination-number O 1.039
# diagonal-C6 Cu 175.00 175.00 175.00 175.00 175.00 175.00 175.00 175.00 175.00 175.00 175.00 175.00 175.00 175.00 175.00 175.00 175.00 175.00 175.00 175.00 175.00 175.00 175.00 175.00 175.00 175.00 175.00 175.00 175.00 175.00 175.00 175.00 175.00 175.00 175.00 175.00 175.00 175.00 175.00 175.00 175.00 175.00 175.00 175.00 175.00 175.00 175.00 175.00
# diagonal-C6 C 26.49
# diagonal-C6 O 12.78
EvdW_6 =   -0.260438
EvdW_8 =   -0.398331

# Ionic positions in cartesian coordinates:
ion Cu   9.533169000000001   0.029049000000000  15.714320000000001 0
ion Cu   9.533169000000001  11.704867999999999  15.714320000000001 0
ion Cu   4.766546000000001   0.029049000000000  15.714320000000001 0
ion Cu   4.766546000000001  11.704867999999999  15.714320000000001 0
ion Cu   0.000000000000000   3.882763000000000   2.011863000000000 0
ion Cu   0.000000000000000  15.558558000000000   2.011863000000000 0
ion Cu   4.766623000000001   3.882763000000000   2.011863000000000 0
ion Cu   4.766623000000001  15.558558000000000   2.011863000000000 0
ion Cu   0.000048000000000   7.846205000000000   4.822845000000000 0
ion Cu   0.000048000000000  19.521999999999998   4.822845000000000 0
ion Cu   4.766661000000001   7.846205000000000   4.822845000000000 0
ion Cu   4.766661000000001  19.521999999999998   4.822845000000000 0
ion Cu   0.000019000000000   0.010648000000000   7.572401000000000 0
ion Cu   0.000019000000000  11.686444000000000   7.572401000000000 0
ion Cu   4.766642000000000   0.010648000000000   7.572401000000000 0
ion Cu   4.766642000000000  11.686444000000000   7.572401000000000 0
ion Cu   0.000048000000000   3.891052000000000  10.322502999999999 0
ion Cu   0.000048000000000  15.566848000000002  10.322502999999999 0
ion Cu   4.766661000000001   3.891052000000000  10.322502999999999 0
ion Cu   4.766661000000001  15.566848000000002  10.322502999999999 0
ion Cu   9.533188000000003   7.731151000000000  13.180692000000001 0
ion Cu   9.533188000000003  19.406946999999999  13.180692000000001 0
ion Cu   4.766565000000001   7.731151000000000  13.180692000000001 0
ion Cu   4.766565000000001  19.406946999999999  13.180692000000001 0
ion Cu   2.383292000000000   0.052658000000000   3.331310000000000 0
ion Cu   2.383292000000000  11.728453999999999   3.331310000000000 0
ion Cu   7.149905000000001   0.052658000000000   3.331310000000000 0
ion Cu   7.149905000000001  11.728453999999999   3.331310000000000 0
ion Cu   2.383321000000000   3.893061000000000   6.189945000000000 0
ion Cu   2.383321000000000  15.568833000000000   6.189945000000000 0
ion Cu   7.149943000000000   3.893061000000000   6.189945000000000 0
ion Cu   7.149943000000000  15.568833000000000   6.189945000000000 0
ion Cu   2.383359000000000   7.773301000000000   8.939650000000000 0
ion Cu   2.383359000000000  19.449120000000001   8.939650000000000 0
ion Cu   7.149981000000001   7.773301000000000   8.939650000000000 0
ion Cu   7.149981000000001  19.449120000000001   8.939650000000000 0
ion Cu   2.383292000000000  23.288868999999998  11.688513000000000 0
ion Cu   2.383292000000000  11.613097000000000  11.688513000000000 0
ion Cu   7.149905000000001  23.288868999999998  11.688513000000000 0
ion Cu   7.149905000000001  11.613097000000000  11.688513000000000 0
ion Cu   2.383302000000000   3.900837000000000  14.500237000000000 0
ion Cu   2.383302000000000  15.576631999999998  14.500237000000000 0
ion Cu   7.149924000000001   3.900837000000000  14.500237000000000 0
ion Cu   7.149924000000001  15.576631999999998  14.500237000000000 0
ion Cu   2.383321000000000   7.755134000000001   0.798177000000000 0
ion Cu   2.383321000000000  19.430952999999999   0.798177000000000 0
ion Cu   7.149943000000000   7.755134000000001   0.798177000000000 0
ion Cu   7.149943000000000  19.430952999999999   0.798177000000000 0
ion C   3.574919000000000  13.640738999999998  18.391355999999998 1  Linear 0 0 1
ion O   3.635017000000000  13.640738999999998  20.546726000000000 1  Linear 0 0 1

# Forces in Cartesian coordinates:
force Cu  -0.000087479227175  -0.000281063588790  -0.000305838405061 0
force Cu  -0.001840799853555  -0.002546920674277   0.001577010178463 0
force Cu   0.000081377293041  -0.000337419808804  -0.000347120986140 0
force Cu   0.004388256239587  -0.006600445760981  -0.008426930688656 0
force Cu   0.000095006582430   0.000618004775885   0.000476129426460 0
force Cu  -0.000011170110771   0.000978669488207   0.000590527233335 0
force Cu  -0.000185805010604   0.000422167224012   0.000536442993568 0
force Cu   0.000082923358697   0.000499965327839   0.000294751526415 0
force Cu  -0.000121985628885  -0.000163459522797  -0.000874522006194 0
force Cu  -0.000038686660831   0.000005488767813  -0.000538665346181 0
force Cu   0.000026569686952   0.000085805081375  -0.000200277127759 0
force Cu  -0.000120665553032  -0.000123645020481  -0.000226448679533 0
force Cu   0.000043396121243   0.000424644457155  -0.000522967483557 0
force Cu  -0.000285395182089   0.000269453854315  -0.000466940453472 0
force Cu  -0.000190267117839   0.000254745263946  -0.000049831246666 0
force Cu   0.000294053463016   0.000037254577792  -0.001137016445657 0
force Cu   0.000195155841042   0.000676285747368   0.000709694053380 0
force Cu   0.001174578444288  -0.000653963103508   0.001853334735720 0
force Cu   0.000011877625250   0.000603857815344   0.000557769956639 0
force Cu  -0.000994555790690  -0.000934183633347   0.001381566801240 0
force Cu   0.000658618064163   0.000974835933089   0.000326062069784 0
force Cu   0.000327492334837  -0.000290366973699  -0.000106993342476 0
force Cu  -0.000573622760169   0.001990716219530   0.000657384869495 0
force Cu  -0.000197346617408   0.000161893792866  -0.000453432277233 0
force Cu   0.000222304757360   0.000188555272342   0.000333410660105 0
force Cu   0.000061547770327   0.000025242117511  -0.000098075942230 0
force Cu  -0.000025941993856  -0.000147791722418   0.000427093737452 0
force Cu  -0.000110348489245  -0.000224462291052  -0.000618168153301 0
force Cu   0.000109500509793  -0.000391829642900  -0.000454591398470 0
force Cu  -0.000007356586372  -0.000006142343209  -0.000129137289097 0
force Cu  -0.000172910521218  -0.000294533239190  -0.000210165345508 0
force Cu  -0.000035911379980  -0.000147304828801   0.001010918426996 0
force Cu  -0.000495307343901  -0.000400439210677  -0.000126214806271 0
force Cu  -0.000227986066759  -0.000044581934452  -0.000065844142192 0
force Cu   0.000284251939850   0.000008096247473   0.000047215230421 0
force Cu   0.000222936512593  -0.000241587027934   0.000195655265434 0
force Cu   0.000051812984744   0.000009592478286   0.000489882630412 0
force Cu   0.000306877263993  -0.001800892427979  -0.005799608914548 0
force Cu   0.000043195027772  -0.000275413511959   0.000517594258872 0
force Cu  -0.000138019091030   0.000073991204568   0.000892203464472 0
force Cu  -0.000048768307052  -0.000273971101208  -0.000623199577453 0
force Cu  -0.000526134443705   0.003541770513659   0.006351698653225 0
force Cu   0.000031440035379  -0.000401237981661  -0.000661848715297 0
force Cu   0.002713879357639   0.002481775260711  -0.002986736529216 0
force Cu  -0.000099988448514   0.000229536847656   0.000227190792127 0
force Cu  -0.000104726784492  -0.000552617907424   0.000037030001675 0
force Cu   0.000116413044755   0.000370356246034  -0.000050861245886 0
force Cu   0.000204447138040  -0.000584136297852  -0.000482892115635 0
force C  -0.001815822140150  -0.007977753308748  -0.055718311695861 1  Linear 0 0 1
force O  -0.003496299559948   0.010441622329701   0.061362531916931 1  Linear 0 0 1

# Energy components:
   A_diel =       -0.0013833231732076
   Eewald =    37485.2210516201230348
       EH =    46373.0827088880905649
     Eloc =   -95395.9552728770941030
      Enl =     1761.0260817331193266
     EvdW =       -0.6587692574937849
      Exc =     -936.6971151788745829
 Exc_core =        2.3531768911767728
       KE =     1001.1417770891659984
-------------------------------------
     Etot =    -9710.4877444149587973
       TS =        0.0017903036612265
-------------------------------------
        F =    -9710.4895347186193248


Dumping 'jdft.fillings' ... done
Dumping 'jdft.wfns' ... done
Dumping 'jdft.fluidState' ... done
Dumping 'jdft.ionpos' ... done
Dumping 'jdft.lattice' ... done
Dumping 'jdft.eigenvals' ... done
Dumping 'jdft.eigStats' ... 
	eMin: -4.315101 at state 8 ( [ +0.000000 +0.000000 +0.000000 ] spin -1 )
	HOMO: -0.154591 at state 14 ( [ +0.500000 +0.000000 +0.000000 ] spin -1 )
	mu  : -0.154487
	LUMO: -0.154384 at state 8 ( [ +0.000000 +0.000000 +0.000000 ] spin -1 )
	eMax: +0.182022 at state 12 ( [ +0.333333 +0.000000 +0.000000 ] spin -1 )
	HOMO-LUMO gap: +0.000208
	Optical gap  : +0.000839 at state 6 ( [ +0.500000 +0.000000 +0.000000 ] spin 1 )
Dumping 'jdft.Ecomponents' ... done
IonicMinimize: Iter:   0  F: -9710.489534718619325  |grad|_K:  5.861e-02  t[s]:  12942.70

#--- Lowdin population analysis ---
# oxidation-state Cu +0.190 +0.179 +0.190 -0.014 +0.094 +0.085 +0.093 +0.087 +0.039 +0.039 +0.039 +0.040 +0.071 +0.069 +0.071 +0.073 +0.068 +0.070 +0.067 +0.064 +0.068 +0.068 +0.067 +0.065 +0.066 +0.066 +0.067 +0.066 +0.067 +0.068 +0.067 +0.069 +0.072 +0.073 +0.069 +0.071 +0.039 +0.040 +0.038 +0.042 +0.096 +0.069 +0.094 +0.104 +0.186 +0.184 +0.186 +0.183
# magnetic-moments Cu +0.000 +0.000 -0.000 -0.000 -0.000 +0.000 +0.000 +0.000 +0.000 -0.000 +0.000 +0.000 +0.000 +0.000 +0.000 +0.000 +0.000 +0.000 +0.000 -0.000 +0.000 -0.000 +0.000 -0.000 +0.000 -0.000 +0.000 -0.000 +0.000 +0.000 +0.000 +0.000 +0.000 +0.000 +0.000 +0.000 +0.000 +0.000 -0.000 +0.000 +0.000 +0.000 -0.000 +0.000 +0.000 -0.000 +0.000 -0.000
# oxidation-state C +0.380
# magnetic-moments C +0.000
# oxidation-state O -0.114
# magnetic-moments O +0.000


Computing DFT-D3 correction:
# coordination-number Cu 5.564 5.780 5.564 6.576 6.865 6.865 6.865 6.865 9.103 9.103 9.103 9.103 9.045 9.045 9.045 9.045 9.019 9.019 9.019 9.020 7.549 7.550 7.550 7.550 7.549 7.549 7.549 7.549 9.019 9.019 9.019 9.019 9.045 9.045 9.045 9.045 9.103 9.106 9.103 9.104 6.866 7.347 6.866 6.904 5.565 5.565 5.565 5.565
# coordination-number C 2.730
# coordination-number O 1.035
# diagonal-C6 Cu 175.00 175.00 175.00 175.00 175.00 175.00 175.00 175.00 175.00 175.00 175.00 175.00 175.00 175.00 175.00 175.00 175.00 175.00 175.00 175.00 175.00 175.00 175.00 175.00 175.00 175.00 175.00 175.00 175.00 175.00 175.00 175.00 175.00 175.00 175.00 175.00 175.00 175.00 175.00 175.00 175.00 175.00 175.00 175.00 175.00 175.00 175.00 175.00
# diagonal-C6 C 26.23
# diagonal-C6 O 12.78
EvdW_6 =   -0.260408
EvdW_8 =   -0.398334

-------- Electronic minimization -----------
	Linear fluid (dielectric constant: 78.4, screening length: 8.12261 Bohr) occupying 0.472433 of unit cell:	Completed after 18 iterations at t[s]:  13004.84
	FillingsUpdate:  mu: -0.154943374  nElectrons: 922.000000  magneticMoment: [ Abs: 0.00000  Tot: +0.00000 ]
ElecMinimize: Iter:   0  F: -9710.442248518435008  |grad|_K:  1.403e-05  alpha:  1.000e+00
	Linear fluid (dielectric constant: 78.4, screening length: 8.12261 Bohr) occupying 0.471924 of unit cell:	Completed after 19 iterations at t[s]:  13133.76
	Linear fluid (dielectric constant: 78.4, screening length: 8.12261 Bohr) occupying 0.472162 of unit cell:	Completed after 17 iterations at t[s]:  13177.40
	FillingsUpdate:  mu: -0.152740910  nElectrons: 922.000000  magneticMoment: [ Abs: 0.00000  Tot: +0.00000 ]
	SubspaceRotationAdjust: set factor to 0.715
ElecMinimize: Iter:   1  F: -9710.484519202556839  |grad|_K:  6.077e-06  alpha:  5.129e-01  linmin:  5.148e-05  t[s]:  13234.97
	Linear fluid (dielectric constant: 78.4, screening length: 8.12261 Bohr) occupying 0.471938 of unit cell:	Completed after 20 iterations at t[s]:  13297.14
	Linear fluid (dielectric constant: 78.4, screening length: 8.12261 Bohr) occupying 0.472047 of unit cell:	Completed after 19 iterations at t[s]:  13341.47
	FillingsUpdate:  mu: -0.160701210  nElectrons: 922.000000  magneticMoment: [ Abs: 0.00000  Tot: +0.00000 ]
	SubspaceRotationAdjust: set factor to 0.687
ElecMinimize: Iter:   2  F: -9710.487314394165878  |grad|_K:  4.411e-06  alpha:  1.771e-01  linmin: -1.794e-04  t[s]:  13398.89
	Linear fluid (dielectric constant: 78.4, screening length: 8.12261 Bohr) occupying 0.472244 of unit cell:	Completed after 18 iterations at t[s]:  13460.60
	Linear fluid (dielectric constant: 78.4, screening length: 8.12261 Bohr) occupying 0.472179 of unit cell:	Completed after 14 iterations at t[s]:  13504.60
	FillingsUpdate:  mu: -0.158527764  nElectrons: 922.000000  magneticMoment: [ Abs: 0.00000  Tot: +0.00000 ]
	SubspaceRotationAdjust: set factor to 0.657
ElecMinimize: Iter:   3  F: -9710.488359712317106  |grad|_K:  3.189e-06  alpha:  1.257e-01  linmin:  1.503e-06  t[s]:  13562.06
	Linear fluid (dielectric constant: 78.4, screening length: 8.12261 Bohr) occupying 0.472285 of unit cell:	Completed after 14 iterations at t[s]:  13623.54
	Linear fluid (dielectric constant: 78.4, screening length: 8.12261 Bohr) occupying 0.472336 of unit cell:	Completed after 13 iterations at t[s]:  13666.34
[...]
Dumping 'jdft.ionpos' ... done
Dumping 'jdft.lattice' ... done
Dumping 'jdft.eigenvals' ... done
Dumping 'jdft.eigStats' ... 
	eMin: -4.314454 at state 8 ( [ +0.000000 +0.000000 +0.000000 ] spin -1 )
	HOMO: -0.155458 at state 14 ( [ +0.500000 +0.000000 +0.000000 ] spin -1 )
	mu  : -0.155389
	LUMO: -0.155315 at state 8 ( [ +0.000000 +0.000000 +0.000000 ] spin -1 )
	eMax: +0.181318 at state 4 ( [ +0.333333 +0.000000 +0.000000 ] spin 1 )
	HOMO-LUMO gap: +0.000143
	Optical gap  : +0.000808 at state 6 ( [ +0.500000 +0.000000 +0.000000 ] spin 1 )
Dumping 'jdft.Ecomponents' ... done
IonicMinimize: Iter:   6  F: -9710.491288847404576  |grad|_K:  8.842e-04  alpha:  1.000e+00  linmin:  2.675e-02  t[s]:  31660.64

#--- Lowdin population analysis ---
# oxidation-state Cu +0.192 +0.181 +0.192 -0.010 +0.095 +0.086 +0.094 +0.088 +0.039 +0.039 +0.039 +0.040 +0.071 +0.069 +0.071 +0.073 +0.068 +0.070 +0.067 +0.065 +0.068 +0.068 +0.067 +0.065 +0.066 +0.067 +0.067 +0.066 +0.067 +0.068 +0.067 +0.069 +0.072 +0.073 +0.069 +0.071 +0.039 +0.040 +0.039 +0.042 +0.097 +0.072 +0.095 +0.106 +0.188 +0.187 +0.188 +0.186
# magnetic-moments Cu -0.000 -0.000 -0.000 -0.000 -0.000 -0.000 -0.000 -0.000 -0.000 -0.000 -0.000 -0.000 -0.000 -0.000 -0.000 -0.000 -0.000 -0.000 -0.000 -0.000 -0.000 -0.000 -0.000 -0.000 -0.000 -0.000 -0.000 -0.000 -0.000 -0.000 -0.000 -0.000 -0.000 -0.000 -0.000 -0.000 -0.000 -0.000 -0.000 -0.000 -0.000 -0.000 -0.000 -0.000 -0.000 -0.000 -0.000 -0.000
# oxidation-state C +0.363
# magnetic-moments C -0.000
# oxidation-state O -0.138
# magnetic-moments O -0.000


Computing DFT-D3 correction:
# coordination-number Cu 5.564 5.755 5.564 6.569 6.865 6.865 6.865 6.865 9.103 9.103 9.103 9.103 9.045 9.045 9.045 9.045 9.019 9.019 9.019 9.020 7.549 7.549 7.550 7.550 7.549 7.549 7.549 7.549 9.019 9.019 9.019 9.019 9.045 9.045 9.045 9.045 9.103 9.106 9.103 9.104 6.866 7.274 6.866 6.899 5.565 5.565 5.565 5.565
# coordination-number C 2.620
# coordination-number O 1.033
# diagonal-C6 Cu 175.00 175.00 175.00 175.00 175.00 175.00 175.00 175.00 175.00 175.00 175.00 175.00 175.00 175.00 175.00 175.00 175.00 175.00 175.00 175.00 175.00 175.00 175.00 175.00 175.00 175.00 175.00 175.00 175.00 175.00 175.00 175.00 175.00 175.00 175.00 175.00 175.00 175.00 175.00 175.00 175.00 175.00 175.00 175.00 175.00 175.00 175.00 175.00
# diagonal-C6 C 26.73
# diagonal-C6 O 12.78
EvdW_6 =   -0.260427
EvdW_8 =   -0.398298

-------- Electronic minimization -----------
	Linear fluid (dielectric constant: 78.4, screening length: 8.12261 Bohr) occupying 0.471924 of unit cell:	Completed after 8 iterations at t[s]:  31729.44
	FillingsUpdate:  mu: -0.155480432  nElectrons: 922.000000  magneticMoment: [ Abs: 0.00000  Tot: -0.00000 ]
ElecMinimize: Iter:   0  F: -9710.491255395187181  |grad|_K:  4.066e-07  alpha:  1.000e+00
	Linear fluid (dielectric constant: 78.4, screening length: 8.12261 Bohr) occupying 0.471931 of unit cell:	Completed after 12 iterations at t[s]:  31856.48
	Linear fluid (dielectric constant: 78.4, screening length: 8.12261 Bohr) occupying 0.471927 of unit cell:	Completed after 12 iterations at t[s]:  31899.73
	FillingsUpdate:  mu: -0.155278247  nElectrons: 922.000000  magneticMoment: [ Abs: 0.00000  Tot: -0.00000 ]
	SubspaceRotationAdjust: set factor to 0.791
ElecMinimize: Iter:   1  F: -9710.491278548759510  |grad|_K:  4.159e-07  alpha:  3.336e-01  linmin: -4.177e-07  t[s]:  31957.32
	Linear fluid (dielectric constant: 78.4, screening length: 8.12261 Bohr) occupying 0.471911 of unit cell:	Completed after 11 iterations at t[s]:  32017.77
	Linear fluid (dielectric constant: 78.4, screening length: 8.12261 Bohr) occupying 0.471922 of unit cell:	Completed after 11 iterations at t[s]:  32060.29
	FillingsUpdate:  mu: -0.155356786  nElectrons: 922.000000  magneticMoment: [ Abs: 0.00000  Tot: -0.00000 ]
	SubspaceRotationAdjust: set factor to 0.826
ElecMinimize: Iter:   2  F: -9710.491285539896126  |grad|_K:  2.259e-07  alpha:  9.619e-02  linmin:  5.465e-07  t[s]:  32117.95
	Linear fluid (dielectric constant: 78.4, screening length: 8.12261 Bohr) occupying 0.471922 of unit cell:	Completed after 2 iterations at t[s]:  32176.86
	Linear fluid (dielectric constant: 78.4, screening length: 8.12261 Bohr) occupying 0.471921 of unit cell:	Completed after 6 iterations at t[s]:  32218.30
	FillingsUpdate:  mu: -0.155457182  nElectrons: 922.000000  magneticMoment: [ Abs: 0.00000  Tot: -0.00000 ]
	SubspaceRotationAdjust: set factor to 0.946
ElecMinimize: Iter:   3  F: -9710.491290551044585  |grad|_K:  2.028e-07  alpha:  2.343e-01  linmin:  5.774e-06  t[s]:  32275.84
	Linear fluid (dielectric constant: 78.4, screening length: 8.12261 Bohr) occupying 0.471924 of unit cell:	Completed after 4 iterations at t[s]:  32335.16
	Linear fluid (dielectric constant: 78.4, screening length: 8.12261 Bohr) occupying 0.471922 of unit cell:	Completed after 3 iterations at t[s]:  32376.36
	FillingsUpdate:  mu: -0.155431201  nElectrons: 922.000000  magneticMoment: [ Abs: 0.00000  Tot: -0.00000 ]
	SubspaceRotationAdjust: set factor to 1
ElecMinimize: Iter:   4  F: -9710.491292543156305  |grad|_K:  1.227e-07  alpha:  1.155e-01  linmin:  1.232e-05  t[s]:  32433.48
	Linear fluid (dielectric constant: 78.4, screening length: 8.12261 Bohr) occupying 0.471924 of unit cell:	Completed after 6 iterations at t[s]:  32493.15
	Linear fluid (dielectric constant: 78.4, screening length: 8.12261 Bohr) occupying 0.471925 of unit cell:	Completed after 2 iterations at t[s]:  32533.84
	FillingsUpdate:  mu: -0.155400881  nElectrons: 922.000000  magneticMoment: [ Abs: 0.00000  Tot: -0.00000 ]
	SubspaceRotationAdjust: set factor to 0.851
ElecMinimize: Iter:   5  F: -9710.491293473585756  |grad|_K:  9.073e-08  alpha:  1.472e-01  linmin: -6.604e-05  t[s]:  32591.31
	Linear fluid (dielectric constant: 78.4, screening length: 8.12261 Bohr) occupying 0.471924 of unit cell:	Completed after 3 iterations at t[s]:  32650.33
	Linear fluid (dielectric constant: 78.4, screening length: 8.12261 Bohr) occupying 0.471923 of unit cell:	Completed after 2 iterations at t[s]:  32691.11
	FillingsUpdate:  mu: -0.155413272  nElectrons: 922.000000  magneticMoment: [ Abs: 0.00000  Tot: -0.00000 ]
	SubspaceRotationAdjust: set factor to 0.683
ElecMinimize: Iter:   6  F: -9710.491294025177922  |grad|_K:  6.332e-08  alpha:  1.595e-01  linmin:  9.363e-05  t[s]:  32748.48
	Linear fluid (dielectric constant: 78.4, screening length: 8.12261 Bohr) occupying 0.471924 of unit cell:	Completed after 3 iterations at t[s]:  32808.20
	Linear fluid (dielectric constant: 78.4, screening length: 8.12261 Bohr) occupying 0.471924 of unit cell:	Completed after 0 iterations at t[s]:  32848.35
	FillingsUpdate:  mu: -0.155412737  nElectrons: 922.000000  magneticMoment: [ Abs: 0.00000  Tot: -0.00000 ]
	SubspaceRotationAdjust: set factor to 0.625
ElecMinimize: Iter:   7  F: -9710.491294302193637  |grad|_K:  4.668e-08  alpha:  1.670e-01  linmin: -1.146e-04  t[s]:  32905.61
	Linear fluid (dielectric constant: 78.4, screening length: 8.12261 Bohr) occupying 0.471924 of unit cell:	Completed after 1 iterations at t[s]:  32964.20
	Linear fluid (dielectric constant: 78.4, screening length: 8.12261 Bohr) occupying 0.471924 of unit cell:	Completed after 2 iterations at t[s]:  33005.16
	FillingsUpdate:  mu: -0.155413876  nElectrons: 922.000000  magneticMoment: [ Abs: 0.00000  Tot: -0.00000 ]
	SubspaceRotationAdjust: set factor to 0.753
ElecMinimize: Iter:   8  F: -9710.491294405155713  |grad|_K:  2.303e-08  alpha:  1.103e-01  linmin:  2.209e-04  t[s]:  33062.41
	Linear fluid (dielectric constant: 78.4, screening length: 8.12261 Bohr) occupying 0.471924 of unit cell:	Completed after 1 iterations at t[s]:  33121.10
	Linear fluid (dielectric constant: 78.4, screening length: 8.12261 Bohr) occupying 0.471924 of unit cell:	Completed after 1 iterations at t[s]:  33161.73
	FillingsUpdate:  mu: -0.155408151  nElectrons: 922.000000  magneticMoment: [ Abs: 0.00000  Tot: -0.00000 ]
	SubspaceRotationAdjust: set factor to 0.779
ElecMinimize: Iter:   9  F: -9710.491294447276232  |grad|_K:  1.768e-08  alpha:  2.023e-01  linmin: -2.731e-04  t[s]:  33219.11
	Linear fluid (dielectric constant: 78.4, screening length: 8.12261 Bohr) occupying 0.471924 of unit cell:	Completed after 2 iterations at t[s]:  33277.97
	Linear fluid (dielectric constant: 78.4, screening length: 8.12261 Bohr) occupying 0.471924 of unit cell:	Completed after 0 iterations at t[s]:  33318.11
	FillingsUpdate:  mu: -0.155401946  nElectrons: 922.000000  magneticMoment: [ Abs: 0.00000  Tot: -0.00000 ]
	SubspaceRotationAdjust: set factor to 0.813
ElecMinimize: Iter:  10  F: -9710.491294469265995  |grad|_K:  1.375e-08  alpha:  1.565e-01  linmin:  3.355e-04  t[s]:  33375.24
ElecMinimize: Converged (|Delta F|<1.000000e-07 for 2 iters).
Setting wave functions to eigenvectors of Hamiltonian
Converging empty states (this may take a while): |deigs|: 1.987e-08

Computing DFT-D3 correction:
# coordination-number Cu 5.564 5.755 5.564 6.569 6.865 6.865 6.865 6.865 9.103 9.103 9.103 9.103 9.045 9.045 9.045 9.045 9.019 9.019 9.019 9.020 7.549 7.549 7.550 7.550 7.549 7.549 7.549 7.549 9.019 9.019 9.019 9.019 9.045 9.045 9.045 9.045 9.103 9.106 9.103 9.104 6.866 7.274 6.866 6.899 5.565 5.565 5.565 5.565
# coordination-number C 2.620
# coordination-number O 1.033
# diagonal-C6 Cu 175.00 175.00 175.00 175.00 175.00 175.00 175.00 175.00 175.00 175.00 175.00 175.00 175.00 175.00 175.00 175.00 175.00 175.00 175.00 175.00 175.00 175.00 175.00 175.00 175.00 175.00 175.00 175.00 175.00 175.00 175.00 175.00 175.00 175.00 175.00 175.00 175.00 175.00 175.00 175.00 175.00 175.00 175.00 175.00 175.00 175.00 175.00 175.00
# diagonal-C6 C 26.73
# diagonal-C6 O 12.78
EvdW_6 =   -0.260427
EvdW_8 =   -0.398298

# Ionic positions in cartesian coordinates:
ion Cu   9.533169000000001   0.029049000000000  15.714320000000001 0
ion Cu   9.533169000000001  11.704867999999999  15.714320000000001 0
ion Cu   4.766546000000001   0.029049000000000  15.714320000000001 0
ion Cu   4.766546000000001  11.704867999999999  15.714320000000001 0
ion Cu   0.000000000000000   3.882763000000000   2.011863000000000 0
ion Cu   0.000000000000000  15.558558000000000   2.011863000000000 0
ion Cu   4.766623000000001   3.882763000000000   2.011863000000000 0
ion Cu   4.766623000000001  15.558558000000000   2.011863000000000 0
ion Cu   0.000048000000000   7.846205000000000   4.822845000000000 0
ion Cu   0.000048000000000  19.521999999999998   4.822845000000000 0
ion Cu   4.766661000000001   7.846205000000000   4.822845000000000 0
ion Cu   4.766661000000001  19.521999999999998   4.822845000000000 0
ion Cu   0.000019000000000   0.010648000000000   7.572401000000000 0
ion Cu   0.000019000000000  11.686444000000000   7.572401000000000 0
ion Cu   4.766642000000000   0.010648000000000   7.572401000000000 0
ion Cu   4.766642000000000  11.686444000000000   7.572401000000000 0
ion Cu   0.000048000000000   3.891052000000000  10.322502999999999 0
ion Cu   0.000048000000000  15.566848000000002  10.322502999999999 0
ion Cu   4.766661000000001   3.891052000000000  10.322502999999999 0
ion Cu   4.766661000000001  15.566848000000002  10.322502999999999 0
ion Cu   9.533188000000003   7.731151000000000  13.180692000000001 0
ion Cu   9.533188000000003  19.406946999999999  13.180692000000001 0
ion Cu   4.766565000000001   7.731151000000000  13.180692000000001 0
ion Cu   4.766565000000001  19.406946999999999  13.180692000000001 0
ion Cu   2.383292000000000   0.052658000000000   3.331310000000000 0
ion Cu   2.383292000000000  11.728453999999999   3.331310000000000 0
ion Cu   7.149905000000001   0.052658000000000   3.331310000000000 0
ion Cu   7.149905000000001  11.728453999999999   3.331310000000000 0
ion Cu   2.383321000000000   3.893061000000000   6.189945000000000 0
ion Cu   2.383321000000000  15.568833000000000   6.189945000000000 0
ion Cu   7.149943000000000   3.893061000000000   6.189945000000000 0
ion Cu   7.149943000000000  15.568833000000000   6.189945000000000 0
ion Cu   2.383359000000000   7.773301000000000   8.939650000000000 0
ion Cu   2.383359000000000  19.449120000000001   8.939650000000000 0
ion Cu   7.149981000000001   7.773301000000000   8.939650000000000 0
ion Cu   7.149981000000001  19.449120000000001   8.939650000000000 0
ion Cu   2.383292000000000  23.288868999999998  11.688513000000000 0
ion Cu   2.383292000000000  11.613097000000000  11.688513000000000 0
ion Cu   7.149905000000001  23.288868999999998  11.688513000000000 0
ion Cu   7.149905000000001  11.613097000000000  11.688513000000000 0
ion Cu   2.383302000000000   3.900837000000000  14.500237000000000 0
ion Cu   2.383302000000000  15.576631999999998  14.500237000000000 0
ion Cu   7.149924000000001   3.900837000000000  14.500237000000000 0
ion Cu   7.149924000000001  15.576631999999998  14.500237000000000 0
ion Cu   2.383321000000000   7.755134000000001   0.798177000000000 0
ion Cu   2.383321000000000  19.430952999999999   0.798177000000000 0
ion Cu   7.149943000000000   7.755134000000001   0.798177000000000 0
ion Cu   7.149943000000000  19.430952999999999   0.798177000000000 0
ion C   3.574919000000000  13.640738999999998  18.433653265249461 1  Linear 0 0 1
ion O   3.635017000000000  13.640738999999998  20.645050195932548 1  Linear 0 0 1

# Forces in Cartesian coordinates:
force Cu  -0.000088043662757  -0.000282249458020  -0.000338993760366 0
force Cu  -0.001561826506758  -0.002346087787445   0.002248923017460 0
force Cu   0.000082660639271  -0.000339773225610  -0.000376882590487 0
force Cu   0.002939108755043  -0.004286959778047  -0.003971777746385 0
force Cu   0.000107167966608   0.000641385647075   0.000556485897956 0
force Cu  -0.000010597296255   0.001001009141899   0.000673887608354 0
force Cu  -0.000202396307891   0.000453020895812   0.000618703082279 0
force Cu   0.000082972304472   0.000519946671210   0.000354510133727 0
force Cu  -0.000122916084913  -0.000182164920511  -0.000856102207199 0
force Cu  -0.000048273669801   0.000018450189947  -0.000506585530342 0
force Cu   0.000025903792472   0.000069400714472  -0.000194501634193 0
force Cu  -0.000120568573280  -0.000103791614487  -0.000199535165768 0
force Cu   0.000043023468686   0.000430714380225  -0.000480542331308 0
force Cu  -0.000265003919950   0.000245056249159  -0.000434524792163 0
force Cu  -0.000201899632693   0.000267748582097  -0.000004928343795 0
force Cu   0.000279929258965  -0.000000941654028  -0.001147387789603 0
force Cu   0.000204332239233   0.000641985263091   0.000672176753546 0
force Cu   0.001163152688940  -0.000614769282646   0.001733281854103 0
force Cu   0.000006406334485   0.000589617018074   0.000521096125713 0
force Cu  -0.000992514528334  -0.000915726996985   0.001343402297274 0
force Cu   0.000665764293350   0.000908929459198   0.000219659942422 0
force Cu   0.000311165554762  -0.000168013283548  -0.000208376468910 0
force Cu  -0.000573536584689   0.001949306854420   0.000592040480853 0
force Cu  -0.000183369808905   0.000243986275318  -0.000530086716961 0
force Cu   0.000232570162919   0.000188254084782   0.000424175476112 0
force Cu   0.000047864131136  -0.000040425989653  -0.000064027553083 0
force Cu  -0.000025205051981  -0.000142485662356   0.000506492087476 0
force Cu  -0.000100430863416  -0.000286009200409  -0.000547585274632 0
force Cu   0.000116024708527  -0.000384502606217  -0.000389879555474 0
force Cu   0.000003649685089  -0.000004297125847  -0.000051110776096 0
force Cu  -0.000173505366565  -0.000274715601704  -0.000139953643805 0
force Cu  -0.000046999500695  -0.000129607343866   0.001060218467536 0
force Cu  -0.000490211861357  -0.000428597345408  -0.000169842768495 0
force Cu  -0.000228984493869  -0.000000540239773  -0.000082012730356 0
force Cu   0.000268344873449  -0.000000874458962   0.000034629421538 0
force Cu   0.000224077529861  -0.000205242895102   0.000203680529702 0
force Cu   0.000054100682688   0.000019805121203   0.000484619754684 0
force Cu   0.000368392476451  -0.001758916869284  -0.005704860358265 0
force Cu   0.000042298926602  -0.000256064863219   0.000507411870937 0
force Cu  -0.000182920879920   0.000058757391990   0.000828888441982 0
force Cu  -0.000048951420481  -0.000325020822977  -0.000708137493076 0
force Cu  -0.000508377115818   0.003584229786995   0.006628286504387 0
force Cu   0.000031134066587  -0.000452722853402  -0.000741138141662 0
force Cu   0.002605915303453   0.002448392513113  -0.002832567304591 0
force Cu  -0.000092429860718   0.000247745381388   0.000246164259617 0
force Cu  -0.000100289381989  -0.000519818877840   0.000028716336536 0
force Cu   0.000108257679458   0.000394796138411  -0.000036948949949 0
force Cu   0.000207407790793  -0.000554167058542  -0.000471497690564 0
force C   0.000722817779127  -0.009517082009071  -0.000047981923829 1  Linear 0 0 1
force O  -0.004811230453782   0.009365344070425  -0.000112678691155 1  Linear 0 0 1

# Energy components:
   A_diel =       -0.0018307271280786
   Eewald =    37474.5827187903050799
       EH =    46361.3747669932781719
     Eloc =   -95373.5434017080260674
      Enl =     1761.0087752603776607
     EvdW =       -0.6587246757620134
      Exc =     -936.6693976666372237
 Exc_core =        2.3531908156469736
       KE =     1001.0643887539513344
-------------------------------------
     Etot =    -9710.4895141639899521
       TS =        0.0017803052753340
-------------------------------------
        F =    -9710.4912944692659948


Dumping 'jdft.fillings' ... done
Dumping 'jdft.wfns' ... done
Dumping 'jdft.fluidState' ... done
Dumping 'jdft.ionpos' ... done
Dumping 'jdft.lattice' ... done
Dumping 'jdft.eigenvals' ... done
Dumping 'jdft.eigStats' ... 
	eMin: -4.314804 at state 8 ( [ +0.000000 +0.000000 +0.000000 ] spin -1 )
	HOMO: -0.155469 at state 6 ( [ +0.500000 +0.000000 +0.000000 ] spin 1 )
	mu  : -0.155402
	LUMO: -0.155346 at state 8 ( [ +0.000000 +0.000000 +0.000000 ] spin -1 )
	eMax: +0.181320 at state 4 ( [ +0.333333 +0.000000 +0.000000 ] spin 1 )
	HOMO-LUMO gap: +0.000123
	Optical gap  : +0.000807 at state 14 ( [ +0.500000 +0.000000 +0.000000 ] spin -1 )
Dumping 'jdft.Ecomponents' ... done
IonicMinimize: Iter:   7  F: -9710.491294469265995  |grad|_K:  8.660e-05  alpha:  1.000e+00  linmin: -5.733e-03  t[s]:  33641.74
IonicMinimize: Converged (|grad|_K<1.000000e-04).

#--- Lowdin population analysis ---
# oxidation-state Cu +0.192 +0.181 +0.192 -0.011 +0.095 +0.086 +0.094 +0.088 +0.039 +0.039 +0.039 +0.040 +0.072 +0.069 +0.071 +0.073 +0.069 +0.070 +0.067 +0.065 +0.068 +0.068 +0.067 +0.065 +0.066 +0.067 +0.067 +0.066 +0.068 +0.068 +0.068 +0.069 +0.072 +0.073 +0.069 +0.071 +0.039 +0.040 +0.039 +0.042 +0.097 +0.072 +0.095 +0.106 +0.188 +0.186 +0.188 +0.185
# magnetic-moments Cu +0.000 +0.000 -0.000 -0.000 +0.000 +0.000 -0.000 -0.000 -0.000 +0.000 +0.000 +0.000 -0.000 +0.000 +0.000 +0.000 +0.000 +0.000 -0.000 +0.000 +0.000 +0.000 -0.000 -0.000 -0.000 +0.000 -0.000 +0.000 -0.000 +0.000 +0.000 -0.000 -0.000 -0.000 +0.000 -0.000 -0.000 +0.000 -0.000 -0.000 -0.000 -0.000 +0.000 -0.000 +0.000 -0.000 -0.000 +0.000
# oxidation-state C +0.363
# magnetic-moments C +0.000
# oxidation-state O -0.138
# magnetic-moments O -0.000


Dumping 'jdft.n_up' ... done
Dumping 'jdft.n_dn' ... done
Dumping 'jdft.tau_up' ... done
Dumping 'jdft.tau_dn' ... done
Dumping 'jdft.eigenvals' ... done
Dumping 'jdft.eigStats' ... 
	eMin: -4.314804 at state 8 ( [ +0.000000 +0.000000 +0.000000 ] spin -1 )
	HOMO: -0.155469 at state 6 ( [ +0.500000 +0.000000 +0.000000 ] spin 1 )
	mu  : -0.155402
	LUMO: -0.155346 at state 8 ( [ +0.000000 +0.000000 +0.000000 ] spin -1 )
	eMax: +0.181320 at state 4 ( [ +0.333333 +0.000000 +0.000000 ] spin 1 )
	HOMO-LUMO gap: +0.000123
	Optical gap  : +0.000807 at state 14 ( [ +0.500000 +0.000000 +0.000000 ] spin -1 )
Dumping 'jdft.kPts' ... done
Dumping 'jdft.kMap' ... done
Dumping 'jdft.dosUp' ... done.
Dumping 'jdft.dosDn' ... done.
End date and time: Thu Feb 17 02:24:07 2022  (Duration: 0-9:22:11.82)
Done!
