
*************** JDFTx 1.6.0  ***************

Start date and time: Mon Dec  6 17:16:38 2021
Executable /projects/musgravc/apps/jdftx-1.6.1/build/jdftx with command-line: -i in
Running on hosts (process indices):  shas0813.rc.int.colorado.edu (0-23)
Divided in process groups (process indices):  0 (0)  1 (1)  2 (2)  3 (3)  4 (4)  5 (5)  6 (6)  7 (7)  8 (8)  9 (9)  10 (10)  11 (11)  12 (12)  13 (13)  14 (14)  15 (15)  16 (16)  17 (17)  18 (18)  19 (19)  20 (20)  21 (21)  22 (22)  23 (23)
Resource initialization completed at t[s]:      0.00
Run totals: 24 processes, 24 threads, 0 GPUs


Input parsed successfully to the following command list (including defaults):

basis kpoint-dependent
converge-empty-states yes
coords-type Cartesian
core-overlap-check none
coulomb-interaction Periodic
davidson-band-ratio 1.1
density-of-states Etol 1.000000e-06 Esigma 1.000000e-03 \
		Complete \
	Total \
	OrthoOrbital Ag 1   s \
	OrthoOrbital Ag 1   p \
	OrthoOrbital Ag 1   px \
	OrthoOrbital Ag 1   py \
	OrthoOrbital Ag 1   pz \
	OrthoOrbital Ag 1   d \
	OrthoOrbital Ag 1   dxy \
	OrthoOrbital Ag 1   dyz \
	OrthoOrbital Ag 1   dz2 \
	OrthoOrbital Ag 1   dxz \
	OrthoOrbital Ag 1   dx2-y2 \
	OrthoOrbital Ag 2   s \
	OrthoOrbital Ag 2   p \
	OrthoOrbital Ag 2   px \
	OrthoOrbital Ag 2   py \
	OrthoOrbital Ag 2   pz \
	OrthoOrbital Ag 2   d \
	OrthoOrbital Ag 2   dxy \
	OrthoOrbital Ag 2   dyz \
	OrthoOrbital Ag 2   dz2 \
	OrthoOrbital Ag 2   dxz \
	OrthoOrbital Ag 2   dx2-y2 \
	OrthoOrbital Ag 3   s \
	OrthoOrbital Ag 3   p \
	OrthoOrbital Ag 3   px \
	OrthoOrbital Ag 3   py \
	OrthoOrbital Ag 3   pz \
	OrthoOrbital Ag 3   d \
	OrthoOrbital Ag 3   dxy \
	OrthoOrbital Ag 3   dyz \
	OrthoOrbital Ag 3   dz2 \
	OrthoOrbital Ag 3   dxz \
	OrthoOrbital Ag 3   dx2-y2 \
	OrthoOrbital Ag 4   s \
	OrthoOrbital Ag 4   p \
	OrthoOrbital Ag 4   px \
	OrthoOrbital Ag 4   py \
	OrthoOrbital Ag 4   pz \
	OrthoOrbital Ag 4   d \
	OrthoOrbital Ag 4   dxy \
	OrthoOrbital Ag 4   dyz \
	OrthoOrbital Ag 4   dz2 \
	OrthoOrbital Ag 4   dxz \
	OrthoOrbital Ag 4   dx2-y2 \
	OrthoOrbital Ag 5   s \
	OrthoOrbital Ag 5   p \
	OrthoOrbital Ag 5   px \
	OrthoOrbital Ag 5   py \
	OrthoOrbital Ag 5   pz \
	OrthoOrbital Ag 5   d \
	OrthoOrbital Ag 5   dxy \
	OrthoOrbital Ag 5   dyz \
	OrthoOrbital Ag 5   dz2 \
	OrthoOrbital Ag 5   dxz \
	OrthoOrbital Ag 5   dx2-y2 \
	OrthoOrbital Ag 6   s \
	OrthoOrbital Ag 6   p \
	OrthoOrbital Ag 6   px \
	OrthoOrbital Ag 6   py \
	OrthoOrbital Ag 6   pz \
	OrthoOrbital Ag 6   d \
	OrthoOrbital Ag 6   dxy \
	OrthoOrbital Ag 6   dyz \
	OrthoOrbital Ag 6   dz2 \
	OrthoOrbital Ag 6   dxz \
	OrthoOrbital Ag 6   dx2-y2 \
	OrthoOrbital Ag 7   s \
	OrthoOrbital Ag 7   p \
	OrthoOrbital Ag 7   px \
	OrthoOrbital Ag 7   py \
	OrthoOrbital Ag 7   pz \
	OrthoOrbital Ag 7   d \
	OrthoOrbital Ag 7   dxy \
	OrthoOrbital Ag 7   dyz \
	OrthoOrbital Ag 7   dz2 \
	OrthoOrbital Ag 7   dxz \
	OrthoOrbital Ag 7   dx2-y2 \
	OrthoOrbital Ag 8   s \
	OrthoOrbital Ag 8   p \
	OrthoOrbital Ag 8   px \
	OrthoOrbital Ag 8   py \
	OrthoOrbital Ag 8   pz \
	OrthoOrbital Ag 8   d \
	OrthoOrbital Ag 8   dxy \
	OrthoOrbital Ag 8   dyz \
	OrthoOrbital Ag 8   dz2 \
	OrthoOrbital Ag 8   dxz \
	OrthoOrbital Ag 8   dx2-y2 \
	OrthoOrbital Ag 9   s \
	OrthoOrbital Ag 9   p \
	OrthoOrbital Ag 9   px \
	OrthoOrbital Ag 9   py \
	OrthoOrbital Ag 9   pz \
	OrthoOrbital Ag 9   d \
	OrthoOrbital Ag 9   dxy \
	OrthoOrbital Ag 9   dyz \
	OrthoOrbital Ag 9   dz2 \
	OrthoOrbital Ag 9   dxz \
	OrthoOrbital Ag 9   dx2-y2 \
	OrthoOrbital Ag 10   s \
	OrthoOrbital Ag 10   p \
	OrthoOrbital Ag 10   px \
	OrthoOrbital Ag 10   py \
	OrthoOrbital Ag 10   pz \
	OrthoOrbital Ag 10   d \
	OrthoOrbital Ag 10   dxy \
	OrthoOrbital Ag 10   dyz \
	OrthoOrbital Ag 10   dz2 \
	OrthoOrbital Ag 10   dxz \
	OrthoOrbital Ag 10   dx2-y2 \
	OrthoOrbital Ag 11   s \
	OrthoOrbital Ag 11   p \
	OrthoOrbital Ag 11   px \
	OrthoOrbital Ag 11   py \
	OrthoOrbital Ag 11   pz \
	OrthoOrbital Ag 11   d \
	OrthoOrbital Ag 11   dxy \
	OrthoOrbital Ag 11   dyz \
	OrthoOrbital Ag 11   dz2 \
	OrthoOrbital Ag 11   dxz \
	OrthoOrbital Ag 11   dx2-y2 \
	OrthoOrbital Ag 12   s \
	OrthoOrbital Ag 12   p \
	OrthoOrbital Ag 12   px \
	OrthoOrbital Ag 12   py \
	OrthoOrbital Ag 12   pz \
	OrthoOrbital Ag 12   d \
	OrthoOrbital Ag 12   dxy \
	OrthoOrbital Ag 12   dyz \
	OrthoOrbital Ag 12   dz2 \
	OrthoOrbital Ag 12   dxz \
	OrthoOrbital Ag 12   dx2-y2 \
	OrthoOrbital Ag 13   s \
	OrthoOrbital Ag 13   p \
	OrthoOrbital Ag 13   px \
	OrthoOrbital Ag 13   py \
	OrthoOrbital Ag 13   pz \
	OrthoOrbital Ag 13   d \
	OrthoOrbital Ag 13   dxy \
	OrthoOrbital Ag 13   dyz \
	OrthoOrbital Ag 13   dz2 \
	OrthoOrbital Ag 13   dxz \
	OrthoOrbital Ag 13   dx2-y2 \
	OrthoOrbital Ag 14   s \
	OrthoOrbital Ag 14   p \
	OrthoOrbital Ag 14   px \
	OrthoOrbital Ag 14   py \
	OrthoOrbital Ag 14   pz \
	OrthoOrbital Ag 14   d \
	OrthoOrbital Ag 14   dxy \
	OrthoOrbital Ag 14   dyz \
	OrthoOrbital Ag 14   dz2 \
	OrthoOrbital Ag 14   dxz \
	OrthoOrbital Ag 14   dx2-y2 \
	OrthoOrbital Ag 15   s \
	OrthoOrbital Ag 15   p \
	OrthoOrbital Ag 15   px \
	OrthoOrbital Ag 15   py \
	OrthoOrbital Ag 15   pz \
	OrthoOrbital Ag 15   d \
	OrthoOrbital Ag 15   dxy \
	OrthoOrbital Ag 15   dyz \
	OrthoOrbital Ag 15   dz2 \
	OrthoOrbital Ag 15   dxz \
	OrthoOrbital Ag 15   dx2-y2 \
	OrthoOrbital Ag 16   s \
	OrthoOrbital Ag 16   p \
	OrthoOrbital Ag 16   px \
	OrthoOrbital Ag 16   py \
	OrthoOrbital Ag 16   pz \
	OrthoOrbital Ag 16   d \
	OrthoOrbital Ag 16   dxy \
	OrthoOrbital Ag 16   dyz \
	OrthoOrbital Ag 16   dz2 \
	OrthoOrbital Ag 16   dxz \
	OrthoOrbital Ag 16   dx2-y2 \
	OrthoOrbital Ag 17   s \
	OrthoOrbital Ag 17   p \
	OrthoOrbital Ag 17   px \
	OrthoOrbital Ag 17   py \
	OrthoOrbital Ag 17   pz \
	OrthoOrbital Ag 17   d \
	OrthoOrbital Ag 17   dxy \
	OrthoOrbital Ag 17   dyz \
	OrthoOrbital Ag 17   dz2 \
	OrthoOrbital Ag 17   dxz \
	OrthoOrbital Ag 17   dx2-y2 \
	OrthoOrbital Ag 18   s \
	OrthoOrbital Ag 18   p \
	OrthoOrbital Ag 18   px \
	OrthoOrbital Ag 18   py \
	OrthoOrbital Ag 18   pz \
	OrthoOrbital Ag 18   d \
	OrthoOrbital Ag 18   dxy \
	OrthoOrbital Ag 18   dyz \
	OrthoOrbital Ag 18   dz2 \
	OrthoOrbital Ag 18   dxz \
	OrthoOrbital Ag 18   dx2-y2 \
	OrthoOrbital Ag 19   s \
	OrthoOrbital Ag 19   p \
	OrthoOrbital Ag 19   px \
	OrthoOrbital Ag 19   py \
	OrthoOrbital Ag 19   pz \
	OrthoOrbital Ag 19   d \
	OrthoOrbital Ag 19   dxy \
	OrthoOrbital Ag 19   dyz \
	OrthoOrbital Ag 19   dz2 \
	OrthoOrbital Ag 19   dxz \
	OrthoOrbital Ag 19   dx2-y2
dump End ElecDensity KEdensity BandEigs EigStats RhoAtom DOS Kpoints
dump Ionic State IonicPositions Lattice EigStats Ecomponents
dump 
dump 
dump 
dump 
dump 
dump 
dump 
dump 
dump-name jdft.$VAR
elec-cutoff 20
elec-eigen-algo Davidson
elec-ex-corr gga-PBE
elec-initial-magnetization 0.000000 no
elec-n-bands 217
elec-smearing Fermi 0.001
electronic-minimize  \
	dirUpdateScheme      FletcherReeves \
	linminMethod         DirUpdateRecommended \
	nIterations          100 \
	history              15 \
	knormThreshold       0 \
	energyDiffThreshold  1e-07 \
	nEnergyDiff          2 \
	alphaTstart          1 \
	alphaTmin            1e-10 \
	updateTestStepSize   yes \
	alphaTreduceFactor   0.1 \
	alphaTincreaseFactor 3 \
	nAlphaAdjustMax      3 \
	wolfeEnergy          0.0001 \
	wolfeGradient        0.9 \
	fdTest               no
exchange-regularization WignerSeitzTruncated
fluid LinearPCM 298.000000 1.013250
fluid-anion F- 0.5 MeanFieldLJ \
	epsBulk 1 \
	pMol 0 \
	epsInf 1 \
	Pvap 0 \
	sigmaBulk 0 \
	Rvdw 2.24877 \
	Res 0 \
	tauNuc 343133
fluid-cation Na+ 0.5 MeanFieldLJ \
	epsBulk 1 \
	pMol 0 \
	epsInf 1 \
	Pvap 0 \
	sigmaBulk 0 \
	Rvdw 2.19208 \
	Res 0 \
	tauNuc 343133
fluid-ex-corr lda-TF lda-PZ
fluid-gummel-loop 10 1.000000e-05
fluid-minimize  \
	dirUpdateScheme      PolakRibiere \
	linminMethod         DirUpdateRecommended \
	nIterations          400 \
	history              15 \
	knormThreshold       1e-11 \
	energyDiffThreshold  0 \
	nEnergyDiff          2 \
	alphaTstart          1 \
	alphaTmin            1e-10 \
	updateTestStepSize   yes \
	alphaTreduceFactor   0.1 \
	alphaTincreaseFactor 3 \
	nAlphaAdjustMax      6 \
	wolfeEnergy          0.0001 \
	wolfeGradient        0.9 \
	fdTest               no
fluid-solvent H2O 55.338 ScalarEOS \
	epsBulk 78.4 \
	pMol 0.92466 \
	epsInf 1.77 \
	Pvap 1.06736e-10 \
	sigmaBulk 4.62e-05 \
	Rvdw 2.61727 \
	Res 1.42 \
	tauNuc 343133 \
	poleEl 15 7 1
forces-output-coords Positions
ion Ag  -0.000002000000000   7.461215000000000  65.948428000000007 1
ion Ag   2.710224000000000   3.108840000000000  64.189788999999990 1
ion Ag   2.710222000000000  10.570055000000000  62.431216999999997 1
ion Ag   2.710224000000000  11.813589000000000  34.293193000000002 1
ion Ag  -0.000000000000000   6.217681000000001  60.672577999999994 1
ion Ag   2.710221000000000   1.865307000000000  58.913938999999992 1
ion Ag   2.710224000000000   9.326521000000001  57.155299999999990 1
ion Ag  -0.000002000000000   4.974147000000000  55.396660999999995 1
ion Ag   2.710224000000000   0.621773000000000  53.638089000000001 1
ion Ag   2.710221000000000   8.082987000000001  51.879449999999999 1
ion Ag   0.000003000000000   3.730601000000001  50.120810999999996 1
ion Ag   0.000000999999999  11.191816000000001  48.362171999999994 1
ion Ag   2.710227000000000   6.839442000000001  46.603532999999992 1
ion Ag   0.000000000000000   2.487068000000000  44.844960000000000 1
ion Ag   0.000004000000000   9.948282000000003  43.086320999999991 1
ion Ag   2.710223999999999   5.595908000000001  41.327681999999996 1
ion Ag   0.000003000000000   1.243534000000000  39.569042999999994 1
ion Ag   0.000001000000000   8.704748000000000  37.810403999999998 1
ion Ag   2.710227000000000   4.352374000000000  36.051831999999997 1
ion-species /projects/musgravc/apps/jdftx-1.6.0/build/pseudopotentials/GBRV_v1.5/$ID_pbe_v1.uspp
ion-species /projects/musgravc/apps/jdftx-1.6.0/build/pseudopotentials/GBRV_v1.5/$ID_pbe_v1.2.uspp
ion-species /projects/musgravc/apps/jdftx-1.6.0/build/pseudopotentials/GBRV_v1.5/$ID_pbe_v1.4.uspp
ion-species /projects/musgravc/apps/jdftx-1.6.0/build/pseudopotentials/GBRV_v1.5/$ID_pbe_v1.5.uspp
ion-width Ecut
ionic-minimize  \
	dirUpdateScheme      L-BFGS \
	linminMethod         DirUpdateRecommended \
	nIterations          100 \
	history              15 \
	knormThreshold       0.0001 \
	energyDiffThreshold  1e-06 \
	nEnergyDiff          2 \
	alphaTstart          1 \
	alphaTmin            1e-10 \
	updateTestStepSize   yes \
	alphaTreduceFactor   0.1 \
	alphaTincreaseFactor 3 \
	nAlphaAdjustMax      3 \
	wolfeEnergy          0.0001 \
	wolfeGradient        0.9 \
	fdTest               no
kpoint   0.000000000000   0.000000000000   0.000000000000  1.00000000000000
kpoint-folding 11 5 1 
latt-move-scale 0 0 0
latt-scale 1 1 1 
lattice  \
	   5.420447000000000   -2.710223000000000    0.000000000000000  \
	   0.000000000000000   11.813589000000000    0.000000000000000  \
	   0.000000000000000   -0.000000000000000   66.827747000000002 
lattice-minimize  \
	dirUpdateScheme      L-BFGS \
	linminMethod         DirUpdateRecommended \
	nIterations          0 \
	history              15 \
	knormThreshold       0 \
	energyDiffThreshold  1e-06 \
	nEnergyDiff          2 \
	alphaTstart          1 \
	alphaTmin            1e-10 \
	updateTestStepSize   yes \
	alphaTreduceFactor   0.1 \
	alphaTincreaseFactor 3 \
	nAlphaAdjustMax      3 \
	wolfeEnergy          0.0001 \
	wolfeGradient        0.9 \
	fdTest               no
lcao-params 30 1e-06 0.001
pcm-variant CANDLE
spintype z-spin
subspace-rotation-factor 1 yes
symmetries none
symmetry-threshold 0.0001
target-mu -0.0978 no

van-der-waals D3


Applied RMS atom displacement 0 bohrs to make symmetries exact.

---------- Initializing the Grid ----------
R = 
[      5.42045     -2.71022            0  ]
[            0      11.8136            0  ]
[            0            0      66.8277  ]
unit cell volume = 4279.31
G =
[    1.15916    0.26593         -0  ]
[          0   0.531861          0  ]
[         -0          0  0.0940206  ]
Minimum fftbox size, Smin = [  24  52  272  ]
Chosen fftbox size, S = [  24  54  280  ]

---------- Exchange Correlation functional ----------
Initalized PBE GGA exchange.
Initalized PBE GGA correlation.

---------- Setting up pseudopotentials ----------
Width of ionic core gaussian charges (only for fluid interactions / plotting) set to 0.397384

Reading pseudopotential file '/projects/musgravc/apps/jdftx-1.6.0/build/pseudopotentials/GBRV_v1.5/ag_pbe_v1.4.uspp':
  Title: Ag.  Created by USPP 7.3.6 on 1-4-15
  Reference state energy: -147.606242.  19 valence electrons in orbitals:
    |400>  occupation: 2  eigenvalue: -3.637437
    |410>  occupation: 6  eigenvalue: -2.297267
    |420>  occupation: 10  eigenvalue: -0.417763
    |500>  occupation: 0.5  eigenvalue: -0.283525
    |510>  occupation: 0  eigenvalue: -0.122889
  lMax: 2  lLocal: 0  QijEcut: 5.5
  6 projectors sampled on a log grid with 717 points:
    l: 0  eig: -0.283528  rCut: 1.5
    l: 0  eig: -3.637440  rCut: 1.5
    l: 1  eig: -0.122892  rCut: 1.5
    l: 1  eig: -2.297267  rCut: 1.5
    l: 2  eig: -0.417762  rCut: 1.7
    l: 2  eig: -1.000000  rCut: 1.7
  Partial core density with radius 1.2
  Transforming core density to a uniform radial grid of dG=0.02 with 1304 points.
  Transforming local potential to a uniform radial grid of dG=0.02 with 1304 points.
  Transforming nonlocal projectors to a uniform radial grid of dG=0.02 with 432 points.
  Transforming density augmentations to a uniform radial grid of dG=0.02 with 1304 points.
  Transforming atomic orbitals to a uniform radial grid of dG=0.02 with 432 points.
  Core radius for overlap checks: 1.70 bohrs.

Initialized 1 species with 19 total atoms.

Folded 1 k-points by 11x5x1 to 55 k-points.

---------- Setting up k-points, bands, fillings ----------
No reducable k-points. 
Computing the number of bands and number of electrons
Calculating initial fillings.
nElectrons: 361.000000   nBands: 217   nStates: 110

----- Setting up reduced wavefunction bases (one per k-point) -----
average nbasis = 18279.473 , ideal nbasis = 18281.540

----- Initializing Supercell corresponding to k-point mesh -----
Lattice vector linear combinations in supercell:
[  11   0   0  ]
[   0   5   0  ]
[   0   0   1  ]
Supercell lattice vectors:
[  59.6249  -13.5511  0  ]
[  0  59.0679  0  ]
[  0  0  66.8277  ]

Initializing DFT-D3 calculator:
	Parameters set for gga-PBE functional
	s6:  1.000  s_r6:  1.217
	s8:  0.722  s_r8:  1.000
	Per-atom parameters loaded for:
	Ag:  sqrtQ[a0]:  5.443  Rcov[a0]:  2.173  CN: [ 0.00 0.97 ]

Initializing DFT-D2 calculator for fluid / solvation:
	Ag:  C6:  427.91 Eh-a0^6  R0: 3.097 a0

---------- Setting up ewald sum ----------
Optimum gaussian width for ewald sums = 3.964993 bohr.
Real space sum over 1045 unit cells with max indices [  9  5  2  ]
Reciprocal space sum over 6435 terms with max indices [  4  6  27  ]

Computing DFT-D3 correction:
# coordination-number Ag 5.361 6.893 8.404 5.361 9.196 9.205 9.210 9.212 9.212 9.212 9.212 9.212 9.212 9.212 9.210 9.205 9.196 8.404 6.893
# diagonal-C6 Ag 268.61 268.61 268.61 268.61 268.61 268.61 268.61 268.61 268.61 268.61 268.61 268.61 268.61 268.61 268.61 268.61 268.61 268.61 268.61
EvdW_6 =   -0.130477
EvdW_8 =   -0.172538

---------- Allocating electronic variables ----------
Initializing wave functions:  linear combination of atomic orbitals
Ag pseudo-atom occupations:   s ( 2 1 )  p ( 6 0 )  d ( 10 )
	FillingsUpdate:  mu: -0.097800000  nElectrons: 361.000000  magneticMoment: [ Abs: 0.00155  Tot: -0.00005 ]
LCAOMinimize: Iter:   0  G: -2768.9726231808504053  |grad|_K:  7.924e-04  alpha:  1.000e+00
	FillingsUpdate:  mu: -0.097800000  nElectrons: 361.000000  magneticMoment: [ Abs: 0.00147  Tot: -0.00002 ]
LCAOMinimize: Iter:   1  G: -2769.0620184053577759  |grad|_K:  3.445e-04  alpha:  3.540e-02  linmin: -9.768e-02  cgtest:  4.588e-01  t[s]:    136.25
LCAOMinimize: Encountered beta<0, resetting CG.
LCAOMinimize: 	Predicted alpha/alphaT>3.000000, increasing alphaT to 1.062021e-01.
	FillingsUpdate:  mu: -0.097800000  nElectrons: 361.000000  magneticMoment: [ Abs: 0.00112  Tot: -0.00006 ]
LCAOMinimize: Iter:   2  G: -2769.1993887575426925  |grad|_K:  2.641e-04  alpha:  3.169e-01  linmin: -2.652e-02  cgtest:  1.995e-01  t[s]:    204.25
	FillingsUpdate:  mu: -0.097800000  nElectrons: 361.000000  magneticMoment: [ Abs: 0.00103  Tot: -0.00003 ]
LCAOMinimize: Iter:   3  G: -2769.2224747135442158  |grad|_K:  2.587e-04  alpha:  1.015e-01  linmin:  1.049e-02  cgtest: -2.596e-01  t[s]:    258.53
	FillingsUpdate:  mu: -0.097800000  nElectrons: 361.000000  magneticMoment: [ Abs: 0.00096  Tot: +0.00001 ]
LCAOMinimize: Iter:   4  G: -2769.2389177203826875  |grad|_K:  1.339e-04  alpha:  8.553e-02  linmin: -9.215e-04  cgtest:  6.715e-01  t[s]:    312.77
LCAOMinimize: Encountered beta<0, resetting CG.
	FillingsUpdate:  mu: -0.097800000  nElectrons: 361.000000  magneticMoment: [ Abs: 0.00096  Tot: +0.00000 ]
LCAOMinimize: Iter:   5  G: -2769.2418267616017147  |grad|_K:  6.558e-05  alpha:  4.805e-02  linmin:  8.871e-05  cgtest:  1.059e-03  t[s]:    366.94
	FillingsUpdate:  mu: -0.097800000  nElectrons: 361.000000  magneticMoment: [ Abs: 0.00096  Tot: +0.00000 ]
LCAOMinimize: Iter:   6  G: -2769.2427285804392341  |grad|_K:  6.984e-05  alpha:  6.194e-02  linmin: -4.931e-04  cgtest:  8.018e-03  t[s]:    421.28
	FillingsUpdate:  mu: -0.097800000  nElectrons: 361.000000  magneticMoment: [ Abs: 0.00095  Tot: +0.00000 ]
LCAOMinimize: Iter:   7  G: -2769.2433587943278326  |grad|_K:  1.811e-05  alpha:  3.812e-02  linmin: -2.626e-03  cgtest: -2.937e-02  t[s]:    475.51
LCAOMinimize: 	Predicted alpha/alphaT>3.000000, increasing alphaT to 1.143744e-01.
LCAOMinimize: 	Predicted alpha/alphaT>3.000000, increasing alphaT to 3.431232e-01.
	FillingsUpdate:  mu: -0.097800000  nElectrons: 361.000000  magneticMoment: [ Abs: 0.00094  Tot: +0.00001 ]
LCAOMinimize: Iter:   8  G: -2769.2438074030842472  |grad|_K:  1.525e-05  alpha:  4.018e-01  linmin:  5.422e-04  cgtest: -2.481e-02  t[s]:    557.92
	FillingsUpdate:  mu: -0.097800000  nElectrons: 361.000000  magneticMoment: [ Abs: 0.00094  Tot: +0.00001 ]
LCAOMinimize: Iter:   9  G: -2769.2438254339795094  |grad|_K:  6.540e-06  alpha:  2.284e-02  linmin:  1.690e-04  cgtest:  1.102e-02  t[s]:    612.22
LCAOMinimize: 	Predicted alpha/alphaT>3.000000, increasing alphaT to 6.852511e-02.
	FillingsUpdate:  mu: -0.097800000  nElectrons: 361.000000  magneticMoment: [ Abs: 0.00094  Tot: +0.00001 ]
LCAOMinimize: Iter:  10  G: -2769.2438461695187470  |grad|_K:  7.030e-06  alpha:  1.480e-01  linmin:  4.565e-03  cgtest: -5.656e-02  t[s]:    680.59
	FillingsUpdate:  mu: -0.097800000  nElectrons: 361.000000  magneticMoment: [ Abs: 0.00094  Tot: +0.00002 ]
LCAOMinimize: Iter:  11  G: -2769.2438553008564668  |grad|_K:  2.452e-06  alpha:  5.800e-02  linmin:  8.305e-04  cgtest:  2.401e-01  t[s]:    735.13
	FillingsUpdate:  mu: -0.097800000  nElectrons: 361.000000  magneticMoment: [ Abs: 0.00094  Tot: +0.00002 ]
LCAOMinimize: Iter:  12  G: -2769.2438562083229954  |grad|_K:  2.374e-06  alpha:  4.641e-02  linmin: -1.930e-02  cgtest:  1.533e-01  t[s]:    789.42
	FillingsUpdate:  mu: -0.097800000  nElectrons: 361.000000  magneticMoment: [ Abs: 0.00094  Tot: +0.00002 ]
LCAOMinimize: Iter:  13  G: -2769.2438572234896128  |grad|_K:  1.081e-06  alpha:  4.718e-02  linmin: -7.218e-02  cgtest:  1.461e-01  t[s]:    843.87
	FillingsUpdate:  mu: -0.097800000  nElectrons: 361.000000  magneticMoment: [ Abs: 0.00094  Tot: +0.00002 ]
LCAOMinimize: Iter:  14  G: -2769.2438574748675819  |grad|_K:  8.622e-07  alpha:  5.164e-02  linmin: -4.828e-02  cgtest:  2.215e-01  t[s]:    898.32
	FillingsUpdate:  mu: -0.097800000  nElectrons: 361.000000  magneticMoment: [ Abs: 0.00094  Tot: +0.00002 ]
LCAOMinimize: Iter:  15  G: -2769.2438576795539120  |grad|_K:  9.278e-07  alpha:  6.071e-02  linmin: -2.610e-02  cgtest:  3.508e-02  t[s]:    952.85
LCAOMinimize: Converged (|Delta G|<1.000000e-06 for 2 iters).
----- createFluidSolver() ----- (Fluid-side solver setup)
   Initializing fluid molecule 'H2O'
     Initializing site 'O'
       Electron density: proportional to exp(-r/0.36935)*erfc((r-0.51523)/0.36823) with norm 6.826
       Charge density: gaussian nuclear width 0.478731 with net site charge 0.826
       Polarizability: cuspless exponential with width 0.32 and norm 3.73
       Hard sphere radius: 2.57003 bohrs
       Positions in reference frame:
         [ +0.000000 +0.000000 +0.000000 ]
     Initializing site 'H'
       Electron density: proportional to exp(-r/0.34641)*erfc((r-0)/0.390882) with norm 0.587
       Charge density: gaussian nuclear width 0.377945 with net site charge -0.413
       Polarizability: cuspless exponential with width 0.39 and norm 3.3
       Positions in reference frame:
         [ +0.000000 -1.441945 +1.122523 ]
         [ +0.000000 +1.441945 +1.122523 ]
     Net charge: 0   dipole magnitude: 0.927204
     Initializing spherical shell mfKernel with radius 2.61727 Bohr
     deltaS corrections:
       site 'O': -7.54299
       site 'H': -6.83917
   Initializing fluid molecule 'Na+'
     Initializing site 'Na'
       Electron density: proportional to exp(-r/0.19682)*erfc((r-0.71491)/0.41314) with norm 8.1383
       Charge density: gaussian nuclear width 0.365347 with net site charge -1
       Hard sphere radius: 1.86327 bohrs
       Positions in reference frame:
         [ +0.000000 +0.000000 +0.000000 ]
     Net charge: -1   dipole magnitude: 0
     Initializing gaussian mfKernel with width: 1.55004 Bohr
     deltaS corrections:
       site 'Na': -22.3555
   Initializing fluid molecule 'F-'
     Initializing site 'F'
       Electron density: proportional to exp(-r/0.38886)*erfc((r-0)/0.438782) with norm 8
       Charge density: gaussian nuclear width 0.374796 with net site charge 1
       Hard sphere radius: 2.39995 bohrs
       Positions in reference frame:
         [ +0.000000 +0.000000 +0.000000 ]
     Net charge: 1   dipole magnitude: 0
     Initializing gaussian mfKernel with width: 1.59012 Bohr
     deltaS corrections:
       site 'F': -9.04335

Correction to mu due to finite nuclear width = -0.0837015
   Cavity determined by nc: 0.00142 and sigma: 0.707107
   Nonlocal vdW cavity from gaussian model electron density with norm = 8 and sigma = 0.993594 bohr
   Charge asymmetry in cavity with sensitivity pCavity = 36.5 e-bohr/Eh
   Electrostatic cavity expanded by eta = 1.46 bohrs
   Weighted density cavitation model constrained by Nbulk: 0.0049383 bohr^-3, Pvap: 3.14029 kPa, Rvdw: 2.61727 bohr and sigmaBulk: 4.62e-05 Eh/bohr^2 at T: 298 K.
   Weighted density dispersion model using vdW pair potentials with single solvent site with sqrtC6eff: 0.77 SI.


---- Citations for features of the code used in this run ----

   Software package:
      R. Sundararaman, K. Letchworth-Weaver, K.A. Schwarz, D. Gunceler, Y. Ozhabes and T.A. Arias, 'JDFTx: software for joint density-functional theory', SoftwareX 6, 278 (2017)

   gga-PBE exchange-correlation functional:
      J.P. Perdew, K. Burke and M. Ernzerhof, Phys. Rev. Lett. 77, 3865 (1996)

   Pseudopotentials:
      KF Garrity, JW Bennett, KM Rabe and D Vanderbilt, Comput. Mater. Sci. 81, 446 (2014)

   DFT-D3 dispersion correction:
      S. Grimme, J. Antony, S. Ehrlich and H. Krieg, J. Chem. Phys. 132, 154104 (2010)

   DFT-D2 dispersion correction:
      S. Grimme, J. Comput. Chem. 27, 1787 (2006)

   Charge-asymmetric nonlocally-determined local-electric (CANDLE) solvation model:
      R. Sundararaman and W.A. Goddard III, J. Chem. Phys. 142, 064107 (2015)

   Total energy minimization with Auxiliary Hamiltonian:
      C. Freysoldt, S. Boeck, and J. Neugebauer, Phys. Rev. B 79, 241103(R) (2009)

   Grand-canonical (fixed-potential) DFT:
      R. Sundararaman, W. A. Goddard III and T. A. Arias, J. Chem. Phys. 146, 114104 (2017)

   Linear-tetrahedron sampling for density of states:
      G. Lehmann and M. Taut, Phys. status solidi (b) 54, 469 (1972)

This list may not be complete. Please suggest additional citations or
report any other bugs at https://github.com/shankar1729/jdftx/issues

Initialization completed successfully at t[s]:    965.76


Computing DFT-D3 correction:
# coordination-number Ag 5.361 6.893 8.404 5.361 9.196 9.205 9.210 9.212 9.212 9.212 9.212 9.212 9.212 9.212 9.210 9.205 9.196 8.404 6.893
# diagonal-C6 Ag 268.61 268.61 268.61 268.61 268.61 268.61 268.61 268.61 268.61 268.61 268.61 268.61 268.61 268.61 268.61 268.61 268.61 268.61 268.61
EvdW_6 =   -0.130477
EvdW_8 =   -0.172538
Fluid solver invoked on fresh (random / LCAO) wavefunctions
Running a vacuum solve first:

-------- Initial electronic minimization -----------
	FillingsUpdate:  mu: +0.248929848  nElectrons: 361.000000  magneticMoment: [ Abs: 0.00094  Tot: +0.00002 ]
ElecMinimize: Iter:   0  G: -2769.244266520286146  |grad|_K:  2.069e-05  alpha:  1.000e+00
	FillingsUpdate:  mu: +0.255741066  nElectrons: 361.000000  magneticMoment: [ Abs: 0.00072  Tot: +0.00002 ]
	SubspaceRotationAdjust: set factor to 0.999
ElecMinimize: Iter:   1  G: -2769.324134532282187  |grad|_K:  1.416e-05  alpha:  4.264e-01  linmin:  2.793e-05  t[s]:   1096.74
	FillingsUpdate:  mu: +0.234458584  nElectrons: 361.000000  magneticMoment: [ Abs: 0.00057  Tot: +0.00001 ]
	SubspaceRotationAdjust: set factor to 0.56
ElecMinimize: Iter:   2  G: -2769.344989233547949  |grad|_K:  1.877e-05  alpha:  2.363e-01  linmin: -5.177e-05  t[s]:   1178.93
	FillingsUpdate:  mu: +0.244571579  nElectrons: 361.000000  magneticMoment: [ Abs: 0.00053  Tot: +0.00002 ]
	SubspaceRotationAdjust: set factor to 0.307
ElecMinimize: Iter:   3  G: -2769.348840100235975  |grad|_K:  6.994e-06  alpha:  2.520e-02  linmin:  1.699e-04  t[s]:   1261.38
ElecMinimize: 	Predicted alpha/alphaT>3.000000, increasing alphaT to 7.560879e-02.
	FillingsUpdate:  mu: +0.262239582  nElectrons: 361.000000  magneticMoment: [ Abs: 0.00045  Tot: +0.00002 ]
	SubspaceRotationAdjust: set factor to 0.256
ElecMinimize: Iter:   4  G: -2769.352438260213603  |grad|_K:  6.393e-06  alpha:  1.699e-01  linmin:  5.501e-06  t[s]:   1364.57
	FillingsUpdate:  mu: +0.258822870  nElectrons: 361.000000  magneticMoment: [ Abs: 0.00035  Tot: +0.00001 ]
	SubspaceRotationAdjust: set factor to 0.182
ElecMinimize: Iter:   5  G: -2769.355317709112114  |grad|_K:  5.100e-06  alpha:  1.606e-01  linmin:  1.278e-05  t[s]:   1446.83
	FillingsUpdate:  mu: +0.250905501  nElectrons: 361.000000  magneticMoment: [ Abs: 0.00030  Tot: +0.00001 ]
	SubspaceRotationAdjust: set factor to 0.168
ElecMinimize: Iter:   6  G: -2769.356657657127926  |grad|_K:  2.774e-06  alpha:  1.174e-01  linmin:  3.137e-06  t[s]:   1529.11
	FillingsUpdate:  mu: +0.247300025  nElectrons: 361.000000  magneticMoment: [ Abs: 0.00024  Tot: +0.00001 ]
	SubspaceRotationAdjust: set factor to 0.139
ElecMinimize: Iter:   7  G: -2769.357464706049086  |grad|_K:  2.608e-06  alpha:  2.392e-01  linmin:  2.999e-05  t[s]:   1611.38
	FillingsUpdate:  mu: +0.249381389  nElectrons: 361.000000  magneticMoment: [ Abs: 0.00020  Tot: +0.00001 ]
	SubspaceRotationAdjust: set factor to 0.171
ElecMinimize: Iter:   8  G: -2769.357988758843476  |grad|_K:  1.776e-06  alpha:  1.758e-01  linmin: -9.525e-07  t[s]:   1693.84
	FillingsUpdate:  mu: +0.253057896  nElectrons: 361.000000  magneticMoment: [ Abs: 0.00017  Tot: +0.00001 ]
	SubspaceRotationAdjust: set factor to 0.179
ElecMinimize: Iter:   9  G: -2769.358298314455624  |grad|_K:  1.468e-06  alpha:  2.235e-01  linmin: -3.867e-06  t[s]:   1776.14
	FillingsUpdate:  mu: +0.253830076  nElectrons: 361.000000  magneticMoment: [ Abs: 0.00017  Tot: +0.00001 ]
	SubspaceRotationAdjust: set factor to 0.182
ElecMinimize: Iter:  10  G: -2769.358464296575676  |grad|_K:  1.159e-06  alpha:  1.753e-01  linmin:  2.403e-07  t[s]:   1858.71
	FillingsUpdate:  mu: +0.251660476  nElectrons: 361.000000  magneticMoment: [ Abs: 0.00016  Tot: +0.00001 ]
	SubspaceRotationAdjust: set factor to 0.221
ElecMinimize: Iter:  11  G: -2769.358606935092666  |grad|_K:  9.918e-07  alpha:  2.420e-01  linmin:  2.142e-05  t[s]:   1941.10
	FillingsUpdate:  mu: +0.251197045  nElectrons: 361.000000  magneticMoment: [ Abs: 0.00016  Tot: +0.00001 ]
	SubspaceRotationAdjust: set factor to 0.213
ElecMinimize: Iter:  12  G: -2769.358685757307740  |grad|_K:  9.601e-07  alpha:  1.829e-01  linmin:  2.679e-06  t[s]:   2023.59
	FillingsUpdate:  mu: +0.252842846  nElectrons: 361.000000  magneticMoment: [ Abs: 0.00017  Tot: +0.00001 ]
	SubspaceRotationAdjust: set factor to 0.285
ElecMinimize: Iter:  13  G: -2769.358785335177799  |grad|_K:  8.014e-07  alpha:  2.463e-01  linmin:  6.000e-06  t[s]:   2105.85
	FillingsUpdate:  mu: +0.253559641  nElectrons: 361.000000  magneticMoment: [ Abs: 0.00017  Tot: +0.00001 ]
	SubspaceRotationAdjust: set factor to 0.236
ElecMinimize: Iter:  14  G: -2769.358839524596533  |grad|_K:  8.597e-07  alpha:  1.924e-01  linmin:  1.214e-06  t[s]:   2188.42
	FillingsUpdate:  mu: +0.253284363  nElectrons: 361.000000  magneticMoment: [ Abs: 0.00016  Tot: +0.00001 ]
	SubspaceRotationAdjust: set factor to 0.25
ElecMinimize: Iter:  15  G: -2769.358891781476359  |grad|_K:  6.180e-07  alpha:  1.610e-01  linmin:  5.072e-06  t[s]:   2270.81
	FillingsUpdate:  mu: +0.252353843  nElectrons: 361.000000  magneticMoment: [ Abs: 0.00015  Tot: +0.00000 ]
	SubspaceRotationAdjust: set factor to 0.249
ElecMinimize: Iter:  16  G: -2769.358938697298981  |grad|_K:  6.074e-07  alpha:  2.816e-01  linmin:  3.210e-05  t[s]:   2353.30
	FillingsUpdate:  mu: +0.252706908  nElectrons: 361.000000  magneticMoment: [ Abs: 0.00014  Tot: +0.00000 ]
	SubspaceRotationAdjust: set factor to 0.224
ElecMinimize: Iter:  17  G: -2769.358961319282571  |grad|_K:  4.730e-07  alpha:  1.409e-01  linmin: -2.380e-06  t[s]:   2435.72
	FillingsUpdate:  mu: +0.253722820  nElectrons: 361.000000  magneticMoment: [ Abs: 0.00012  Tot: +0.00000 ]
	SubspaceRotationAdjust: set factor to 0.208
ElecMinimize: Iter:  18  G: -2769.358981399110689  |grad|_K:  3.846e-07  alpha:  2.042e-01  linmin: -2.034e-06  t[s]:   2518.30
	FillingsUpdate:  mu: +0.253707028  nElectrons: 361.000000  magneticMoment: [ Abs: 0.00010  Tot: +0.00000 ]
	SubspaceRotationAdjust: set factor to 0.215
ElecMinimize: Iter:  19  G: -2769.358995665773818  |grad|_K:  3.256e-07  alpha:  2.196e-01  linmin:  2.259e-06  t[s]:   2600.68
	FillingsUpdate:  mu: +0.253345934  nElectrons: 361.000000  magneticMoment: [ Abs: 0.00009  Tot: +0.00000 ]
	SubspaceRotationAdjust: set factor to 0.184
ElecMinimize: Iter:  20  G: -2769.359002534128649  |grad|_K:  2.249e-07  alpha:  1.477e-01  linmin: -9.703e-08  t[s]:   2683.18
	FillingsUpdate:  mu: +0.253070125  nElectrons: 361.000000  magneticMoment: [ Abs: 0.00007  Tot: +0.00000 ]
	SubspaceRotationAdjust: set factor to 0.195
ElecMinimize: Iter:  21  G: -2769.359008849894963  |grad|_K:  2.032e-07  alpha:  2.845e-01  linmin:  1.990e-06  t[s]:   2765.65
	FillingsUpdate:  mu: +0.253248399  nElectrons: 361.000000  magneticMoment: [ Abs: 0.00006  Tot: +0.00000 ]
	SubspaceRotationAdjust: set factor to 0.189
ElecMinimize: Iter:  22  G: -2769.359011813251982  |grad|_K:  1.431e-07  alpha:  1.637e-01  linmin: -1.841e-08  t[s]:   2848.08
	FillingsUpdate:  mu: +0.253544075  nElectrons: 361.000000  magneticMoment: [ Abs: 0.00004  Tot: +0.00000 ]
	SubspaceRotationAdjust: set factor to 0.198
ElecMinimize: Iter:  23  G: -2769.359013861761014  |grad|_K:  1.199e-07  alpha:  2.280e-01  linmin: -7.411e-07  t[s]:   2930.37
	FillingsUpdate:  mu: +0.253482875  nElectrons: 361.000000  magneticMoment: [ Abs: 0.00003  Tot: +0.00000 ]
	SubspaceRotationAdjust: set factor to 0.193
ElecMinimize: Iter:  24  G: -2769.359015384521626  |grad|_K:  1.104e-07  alpha:  2.414e-01  linmin:  2.704e-07  t[s]:   3013.05
	FillingsUpdate:  mu: +0.253301404  nElectrons: 361.000000  magneticMoment: [ Abs: 0.00003  Tot: +0.00000 ]
	SubspaceRotationAdjust: set factor to 0.192
ElecMinimize: Iter:  25  G: -2769.359016306774265  |grad|_K:  8.176e-08  alpha:  1.724e-01  linmin:  1.697e-07  t[s]:   3095.61
	FillingsUpdate:  mu: +0.253213574  nElectrons: 361.000000  magneticMoment: [ Abs: 0.00002  Tot: +0.00000 ]
	SubspaceRotationAdjust: set factor to 0.183
ElecMinimize: Iter:  26  G: -2769.359017199309164  |grad|_K:  8.365e-08  alpha:  3.044e-01  linmin:  5.565e-07  t[s]:   3178.02
	FillingsUpdate:  mu: +0.253297376  nElectrons: 361.000000  magneticMoment: [ Abs: 0.00002  Tot: +0.00000 ]
	SubspaceRotationAdjust: set factor to 0.181
ElecMinimize: Iter:  27  G: -2769.359017772212155  |grad|_K:  6.885e-08  alpha:  1.866e-01  linmin: -4.305e-08  t[s]:   3260.46
	FillingsUpdate:  mu: +0.253408662  nElectrons: 361.000000  magneticMoment: [ Abs: 0.00002  Tot: +0.00000 ]
	SubspaceRotationAdjust: set factor to 0.215
ElecMinimize: Iter:  28  G: -2769.359018301775450  |grad|_K:  6.177e-08  alpha:  2.545e-01  linmin:  6.588e-07  t[s]:   3343.32
	FillingsUpdate:  mu: +0.253342679  nElectrons: 361.000000  magneticMoment: [ Abs: 0.00002  Tot: +0.00000 ]
	SubspaceRotationAdjust: set factor to 0.233
ElecMinimize: Iter:  29  G: -2769.359018704357823  |grad|_K:  6.148e-08  alpha:  2.406e-01  linmin:  2.275e-07  t[s]:   3425.80
	FillingsUpdate:  mu: +0.253235589  nElectrons: 361.000000  magneticMoment: [ Abs: 0.00002  Tot: -0.00000 ]
	SubspaceRotationAdjust: set factor to 0.214
ElecMinimize: Iter:  30  G: -2769.359019000253284  |grad|_K:  4.950e-08  alpha:  1.786e-01  linmin: -1.983e-07  t[s]:   3508.52
	FillingsUpdate:  mu: +0.253233018  nElectrons: 361.000000  magneticMoment: [ Abs: 0.00002  Tot: -0.00000 ]
	SubspaceRotationAdjust: set factor to 0.273
ElecMinimize: Iter:  31  G: -2769.359019300592990  |grad|_K:  4.666e-08  alpha:  2.792e-01  linmin:  5.060e-07  t[s]:   3590.85
	FillingsUpdate:  mu: +0.253285196  nElectrons: 361.000000  magneticMoment: [ Abs: 0.00002  Tot: -0.00000 ]
	SubspaceRotationAdjust: set factor to 0.222
ElecMinimize: Iter:  32  G: -2769.359019467797680  |grad|_K:  4.096e-08  alpha:  1.753e-01  linmin: -8.509e-08  t[s]:   3674.04
	FillingsUpdate:  mu: +0.253308801  nElectrons: 361.000000  magneticMoment: [ Abs: 0.00002  Tot: -0.00000 ]
	SubspaceRotationAdjust: set factor to 0.234
ElecMinimize: Iter:  33  G: -2769.359019621163043  |grad|_K:  3.122e-08  alpha:  2.083e-01  linmin:  1.160e-08  t[s]:   3756.43
	FillingsUpdate:  mu: +0.253248307  nElectrons: 361.000000  magneticMoment: [ Abs: 0.00001  Tot: -0.00000 ]
	SubspaceRotationAdjust: set factor to 0.235
ElecMinimize: Iter:  34  G: -2769.359019728824023  |grad|_K:  2.495e-08  alpha:  2.523e-01  linmin:  4.820e-07  t[s]:   3839.17
	FillingsUpdate:  mu: +0.253233823  nElectrons: 361.000000  magneticMoment: [ Abs: 0.00001  Tot: -0.00000 ]
	SubspaceRotationAdjust: set factor to 0.249
ElecMinimize: Iter:  35  G: -2769.359019796418124  |grad|_K:  2.305e-08  alpha:  2.485e-01  linmin:  6.830e-07  t[s]:   3921.79
	FillingsUpdate:  mu: +0.253258859  nElectrons: 361.000000  magneticMoment: [ Abs: 0.00001  Tot: -0.00000 ]
	SubspaceRotationAdjust: set factor to 0.223
ElecMinimize: Iter:  36  G: -2769.359019838152562  |grad|_K:  1.882e-08  alpha:  1.796e-01  linmin:  2.653e-08  t[s]:   4004.41
ElecMinimize: Converged (|Delta G|<1.000000e-07 for 2 iters).
Setting wave functions to eigenvectors of Hamiltonian
Converging empty states (this may take a while): |deigs|: 9.316e-03
Vacuum energy after initial minimize, F = -2769.359019838152562

Shifting auxilliary hamiltonian by -0.351059 to set nElectrons=361.000000

-------- Electronic minimization -----------
	Linear fluid (dielectric constant: 78.4, screening length: 8.12261 Bohr) occupying 0.373037 of unit cell:	Completed after 23 iterations at t[s]:   4290.23
	FillingsUpdate:  mu: -0.097800000  nElectrons: 361.000000  magneticMoment: [ Abs: 0.00000  Tot: -0.00000 ]
ElecMinimize: Iter:   0  G: -2769.359784521397614  |grad|_K:  8.789e-06  alpha:  1.000e+00
	Linear fluid (dielectric constant: 78.4, screening length: 8.12261 Bohr) occupying 0.429219 of unit cell:	Completed after 39 iterations at t[s]:   4360.13
	Linear fluid (dielectric constant: 78.4, screening length: 8.12261 Bohr) occupying 0.373174 of unit cell:	Completed after 28 iterations at t[s]:   4384.15
	FillingsUpdate:  mu: -0.097800000  nElectrons: 361.096012  magneticMoment: [ Abs: 0.00000  Tot: -0.00000 ]
	SubspaceRotationAdjust: set factor to 0.134
ElecMinimize: Iter:   1  G: -2769.361759004621490  |grad|_K:  5.252e-06  alpha:  7.241e-02  linmin:  1.102e-02  t[s]:   4418.37
	Linear fluid (dielectric constant: 78.4, screening length: 8.12261 Bohr) occupying 0.373110 of unit cell:	Completed after 17 iterations at t[s]:   4448.09
ElecMinimize: 	Predicted alpha/alphaT>3.000000, increasing alphaT to 2.172315e-01.
	Linear fluid (dielectric constant: 78.4, screening length: 8.12261 Bohr) occupying 0.373092 of unit cell:	Completed after 19 iterations at t[s]:   4471.28
	Linear fluid (dielectric constant: 78.4, screening length: 8.12261 Bohr) occupying 0.373127 of unit cell:	Completed after 16 iterations at t[s]:   4494.39
	FillingsUpdate:  mu: -0.097800000  nElectrons: 361.155234  magneticMoment: [ Abs: 0.00000  Tot: -0.00000 ]
	SubspaceRotationAdjust: set factor to 0.0711
ElecMinimize: Iter:   2  G: -2769.364525127760771  |grad|_K:  3.325e-06  alpha:  2.831e-01  linmin:  1.604e-03  t[s]:   4528.74
	Linear fluid (dielectric constant: 78.4, screening length: 8.12261 Bohr) occupying 0.375695 of unit cell:	Completed after 18 iterations at t[s]:   4558.47
	Linear fluid (dielectric constant: 78.4, screening length: 8.12261 Bohr) occupying 0.374669 of unit cell:	Completed after 15 iterations at t[s]:   4581.57
	FillingsUpdate:  mu: -0.097800000  nElectrons: 361.225290  magneticMoment: [ Abs: 0.00000  Tot: -0.00000 ]
	SubspaceRotationAdjust: set factor to 0.0361
ElecMinimize: Iter:   3  G: -2769.365444107759686  |grad|_K:  1.853e-06  alpha:  1.958e-01  linmin: -5.591e-04  t[s]:   4615.88
	Linear fluid (dielectric constant: 78.4, screening length: 8.12261 Bohr) occupying 0.374663 of unit cell:	Completed after 16 iterations at t[s]:   4645.43
ElecMinimize: 	Predicted alpha/alphaT>3.000000, increasing alphaT to 5.875463e-01.
	Linear fluid (dielectric constant: 78.4, screening length: 8.12261 Bohr) occupying 0.374671 of unit cell:	Completed after 17 iterations at t[s]:   4668.50
	Linear fluid (dielectric constant: 78.4, screening length: 8.12261 Bohr) occupying 0.374676 of unit cell:	Completed after 14 iterations at t[s]:   4691.45
	FillingsUpdate:  mu: -0.097800000  nElectrons: 361.246030  magneticMoment: [ Abs: 0.00000  Tot: -0.00000 ]
	SubspaceRotationAdjust: set factor to 0.0267
	SubspaceRotationAdjust: resetting CG because factor has changed by 0.119832
	Linear fluid (dielectric constant: 78.4, screening length: 8.12261 Bohr) occupying 0.374676 of unit cell:	Completed after 0 iterations at t[s]:   4736.52
ElecMinimize: 	State modified externally: resetting search direction.
ElecMinimize: Iter:   4  G: -2769.366437281114486  |grad|_K:  1.405e-06  alpha:  6.525e-01
	Linear fluid (dielectric constant: 78.4, screening length: 8.12261 Bohr) occupying 0.375268 of unit cell:	Completed after 21 iterations at t[s]:   4800.59
	Linear fluid (dielectric constant: 78.4, screening length: 8.12261 Bohr) occupying 0.374972 of unit cell:	Completed after 17 iterations at t[s]:   4823.81
	FillingsUpdate:  mu: -0.097800000  nElectrons: 361.255493  magneticMoment: [ Abs: 0.00000  Tot: -0.00000 ]
	SubspaceRotationAdjust: set factor to 0.0323
ElecMinimize: Iter:   5  G: -2769.366731210277067  |grad|_K:  6.371e-07  alpha:  3.383e-01  linmin: -2.948e-04  t[s]:   4858.08
	Linear fluid (dielectric constant: 78.4, screening length: 8.12261 Bohr) occupying 0.374946 of unit cell:	Completed after 11 iterations at t[s]:   4887.12
	Linear fluid (dielectric constant: 78.4, screening length: 8.12261 Bohr) occupying 0.374924 of unit cell:	Completed after 11 iterations at t[s]:   4909.72
	FillingsUpdate:  mu: -0.097800000  nElectrons: 361.258294  magneticMoment: [ Abs: 0.00000  Tot: -0.00000 ]
	SubspaceRotationAdjust: set factor to 0.0409
ElecMinimize: Iter:   6  G: -2769.366844641054740  |grad|_K:  8.256e-07  alpha:  6.360e-01  linmin:  7.682e-06  t[s]:   4943.94
	Linear fluid (dielectric constant: 78.4, screening length: 8.12261 Bohr) occupying 0.374667 of unit cell:	Completed after 17 iterations at t[s]:   4973.77
	Linear fluid (dielectric constant: 78.4, screening length: 8.12261 Bohr) occupying 0.374615 of unit cell:	Completed after 13 iterations at t[s]:   4996.66
	FillingsUpdate:  mu: -0.097800000  nElectrons: 361.263820  magneticMoment: [ Abs: 0.00000  Tot: -0.00000 ]
	SubspaceRotationAdjust: set factor to 0.0472
ElecMinimize: Iter:   7  G: -2769.367073857608375  |grad|_K:  1.013e-06  alpha:  7.662e-01  linmin: -1.243e-05  t[s]:   5031.00
	Linear fluid (dielectric constant: 78.4, screening length: 8.12261 Bohr) occupying 0.374640 of unit cell:	Completed after 18 iterations at t[s]:   5060.81
	Linear fluid (dielectric constant: 78.4, screening length: 8.12261 Bohr) occupying 0.374640 of unit cell:	Completed after 2 iterations at t[s]:   5082.71
	FillingsUpdate:  mu: -0.097800000  nElectrons: 361.289218  magneticMoment: [ Abs: 0.00000  Tot: -0.00000 ]
	SubspaceRotationAdjust: set factor to 0.0532
ElecMinimize: Iter:   8  G: -2769.367417833655963  |grad|_K:  1.125e-06  alpha:  7.640e-01  linmin:  1.320e-04  t[s]:   5117.07
	Linear fluid (dielectric constant: 78.4, screening length: 8.12261 Bohr) occupying 0.375058 of unit cell:	Completed after 18 iterations at t[s]:   5146.83
	Linear fluid (dielectric constant: 78.4, screening length: 8.12261 Bohr) occupying 0.375191 of unit cell:	Completed after 14 iterations at t[s]:   5169.83
	FillingsUpdate:  mu: -0.097800000  nElectrons: 361.339678  magneticMoment: [ Abs: 0.00000  Tot: -0.00000 ]
	SubspaceRotationAdjust: set factor to 0.0572
ElecMinimize: Iter:   9  G: -2769.367905438781690  |grad|_K:  1.497e-06  alpha:  8.797e-01  linmin: -1.991e-04  t[s]:   5204.13
	Linear fluid (dielectric constant: 78.4, screening length: 8.12261 Bohr) occupying 0.380015 of unit cell:	Completed after 19 iterations at t[s]:   5233.95
	Linear fluid (dielectric constant: 78.4, screening length: 8.12261 Bohr) occupying 0.377705 of unit cell:	Completed after 17 iterations at t[s]:   5257.18
	FillingsUpdate:  mu: -0.097800000  nElectrons: 361.421758  magneticMoment: [ Abs: 0.00000  Tot: -0.00000 ]
	SubspaceRotationAdjust: set factor to 0.0573
ElecMinimize: Iter:  10  G: -2769.368416861362675  |grad|_K:  1.352e-06  alpha:  5.070e-01  linmin:  1.917e-04  t[s]:   5291.63
	Linear fluid (dielectric constant: 78.4, screening length: 8.12261 Bohr) occupying 0.379330 of unit cell:	Completed after 12 iterations at t[s]:   5320.92
	Linear fluid (dielectric constant: 78.4, screening length: 8.12261 Bohr) occupying 0.379109 of unit cell:	Completed after 15 iterations at t[s]:   5343.98
	FillingsUpdate:  mu: -0.097800000  nElectrons: 361.468250  magneticMoment: [ Abs: 0.00000  Tot: -0.00000 ]
	SubspaceRotationAdjust: set factor to 0.0554
ElecMinimize: Iter:  11  G: -2769.368760686443238  |grad|_K:  1.061e-06  alpha:  4.339e-01  linmin:  1.261e-04  t[s]:   5378.00
	Linear fluid (dielectric constant: 78.4, screening length: 8.12261 Bohr) occupying 0.380422 of unit cell:	Completed after 16 iterations at t[s]:   5407.52
	Linear fluid (dielectric constant: 78.4, screening length: 8.12261 Bohr) occupying 0.380567 of unit cell:	Completed after 12 iterations at t[s]:   5430.26
	FillingsUpdate:  mu: -0.097800000  nElectrons: 361.505809  magneticMoment: [ Abs: 0.00000  Tot: -0.00000 ]
	SubspaceRotationAdjust: set factor to 0.0557
ElecMinimize: Iter:  12  G: -2769.368998666566767  |grad|_K:  8.897e-07  alpha:  4.840e-01  linmin: -3.240e-04  t[s]:   5464.53
	Linear fluid (dielectric constant: 78.4, screening length: 8.12261 Bohr) occupying 0.380827 of unit cell:	Completed after 15 iterations at t[s]:   5494.01
	Linear fluid (dielectric constant: 78.4, screening length: 8.12261 Bohr) occupying 0.380811 of unit cell:	Completed after 7 iterations at t[s]:   5516.20
	FillingsUpdate:  mu: -0.097800000  nElectrons: 361.519644  magneticMoment: [ Abs: 0.00000  Tot: -0.00000 ]
	SubspaceRotationAdjust: set factor to 0.0621
ElecMinimize: Iter:  13  G: -2769.369158878580492  |grad|_K:  6.997e-07  alpha:  4.523e-01  linmin:  8.817e-05  t[s]:   5550.38
	Linear fluid (dielectric constant: 78.4, screening length: 8.12261 Bohr) occupying 0.380919 of unit cell:	Completed after 12 iterations at t[s]:   5579.55
	Linear fluid (dielectric constant: 78.4, screening length: 8.12261 Bohr) occupying 0.380911 of unit cell:	Completed after 2 iterations at t[s]:   5601.46
	FillingsUpdate:  mu: -0.097800000  nElectrons: 361.526902  magneticMoment: [ Abs: 0.00000  Tot: -0.00000 ]
	SubspaceRotationAdjust: set factor to 0.0773
ElecMinimize: Iter:  14  G: -2769.369248238851469  |grad|_K:  5.435e-07  alpha:  4.173e-01  linmin:  2.786e-05  t[s]:   5635.79
	Linear fluid (dielectric constant: 78.4, screening length: 8.12261 Bohr) occupying 0.381012 of unit cell:	Completed after 15 iterations at t[s]:   5665.32
	Linear fluid (dielectric constant: 78.4, screening length: 8.12261 Bohr) occupying 0.381035 of unit cell:	Completed after 12 iterations at t[s]:   5688.04
	FillingsUpdate:  mu: -0.097800000  nElectrons: 361.533141  magneticMoment: [ Abs: 0.00000  Tot: -0.00000 ]
	SubspaceRotationAdjust: set factor to 0.0928
ElecMinimize: Iter:  15  G: -2769.369314785186816  |grad|_K:  4.992e-07  alpha:  5.137e-01  linmin:  4.855e-06  t[s]:   5723.08
	Linear fluid (dielectric constant: 78.4, screening length: 8.12261 Bohr) occupying 0.380490 of unit cell:	Completed after 15 iterations at t[s]:   5752.68
	Linear fluid (dielectric constant: 78.4, screening length: 8.12261 Bohr) occupying 0.380550 of unit cell:	Completed after 12 iterations at t[s]:   5775.36
	FillingsUpdate:  mu: -0.097800000  nElectrons: 361.530134  magneticMoment: [ Abs: 0.00000  Tot: -0.00000 ]
	SubspaceRotationAdjust: set factor to 0.0834
ElecMinimize: Iter:  16  G: -2769.369364774707719  |grad|_K:  5.515e-07  alpha:  4.571e-01  linmin: -4.623e-06  t[s]:   5809.59
	Linear fluid (dielectric constant: 78.4, screening length: 8.12261 Bohr) occupying 0.380743 of unit cell:	Completed after 15 iterations at t[s]:   5839.05
	Linear fluid (dielectric constant: 78.4, screening length: 8.12261 Bohr) occupying 0.380682 of unit cell:	Completed after 14 iterations at t[s]:   5861.99
	FillingsUpdate:  mu: -0.097800000  nElectrons: 361.535317  magneticMoment: [ Abs: 0.00000  Tot: -0.00000 ]
	SubspaceRotationAdjust: set factor to 0.0762
ElecMinimize: Iter:  17  G: -2769.369406737089776  |grad|_K:  4.557e-07  alpha:  3.138e-01  linmin:  2.120e-06  t[s]:   5896.29
	Linear fluid (dielectric constant: 78.4, screening length: 8.12261 Bohr) occupying 0.380292 of unit cell:	Completed after 15 iterations at t[s]:   5925.75
	Linear fluid (dielectric constant: 78.4, screening length: 8.12261 Bohr) occupying 0.380112 of unit cell:	Completed after 14 iterations at t[s]:   5948.65
	FillingsUpdate:  mu: -0.097800000  nElectrons: 361.531107  magneticMoment: [ Abs: 0.00000  Tot: +0.00000 ]
	SubspaceRotationAdjust: set factor to 0.0803
ElecMinimize: Iter:  18  G: -2769.369448462665332  |grad|_K:  3.989e-07  alpha:  4.579e-01  linmin: -5.768e-07  t[s]:   5982.87
	Linear fluid (dielectric constant: 78.4, screening length: 8.12261 Bohr) occupying 0.379728 of unit cell:	Completed after 9 iterations at t[s]:   6011.93
	Linear fluid (dielectric constant: 78.4, screening length: 8.12261 Bohr) occupying 0.379737 of unit cell:	Completed after 2 iterations at t[s]:   6033.73
	FillingsUpdate:  mu: -0.097800000  nElectrons: 361.528873  magneticMoment: [ Abs: 0.00000  Tot: +0.00000 ]
	SubspaceRotationAdjust: set factor to 0.0891
ElecMinimize: Iter:  19  G: -2769.369479711133408  |grad|_K:  3.347e-07  alpha:  4.473e-01  linmin:  6.884e-07  t[s]:   6067.83
	Linear fluid (dielectric constant: 78.4, screening length: 8.12261 Bohr) occupying 0.379397 of unit cell:	Completed after 8 iterations at t[s]:   6096.76
	Linear fluid (dielectric constant: 78.4, screening length: 8.12261 Bohr) occupying 0.379381 of unit cell:	Completed after 3 iterations at t[s]:   6118.71
	FillingsUpdate:  mu: -0.097800000  nElectrons: 361.526214  magneticMoment: [ Abs: 0.00000  Tot: +0.00000 ]
	SubspaceRotationAdjust: set factor to 0.0979
ElecMinimize: Iter:  20  G: -2769.369502765779544  |grad|_K:  2.657e-07  alpha:  4.689e-01  linmin:  2.240e-06  t[s]:   6153.01
	Linear fluid (dielectric constant: 78.4, screening length: 8.12261 Bohr) occupying 0.378934 of unit cell:	Completed after 14 iterations at t[s]:   6182.33
	Linear fluid (dielectric constant: 78.4, screening length: 8.12261 Bohr) occupying 0.379002 of unit cell:	Completed after 12 iterations at t[s]:   6205.16
	FillingsUpdate:  mu: -0.097800000  nElectrons: 361.522142  magneticMoment: [ Abs: 0.00000  Tot: +0.00000 ]
	SubspaceRotationAdjust: set factor to 0.0974
ElecMinimize: Iter:  21  G: -2769.369515059413970  |grad|_K:  2.486e-07  alpha:  3.968e-01  linmin: -2.423e-06  t[s]:   6239.38
	Linear fluid (dielectric constant: 78.4, screening length: 8.12261 Bohr) occupying 0.379042 of unit cell:	Completed after 13 iterations at t[s]:   6268.61
	Linear fluid (dielectric constant: 78.4, screening length: 8.12261 Bohr) occupying 0.379029 of unit cell:	Completed after 11 iterations at t[s]:   6291.19
	FillingsUpdate:  mu: -0.097800000  nElectrons: 361.523088  magneticMoment: [ Abs: 0.00000  Tot: +0.00000 ]
	SubspaceRotationAdjust: set factor to 0.081
ElecMinimize: Iter:  22  G: -2769.369522283959668  |grad|_K:  2.090e-07  alpha:  2.661e-01  linmin:  2.538e-06  t[s]:   6326.10
	Linear fluid (dielectric constant: 78.4, screening length: 8.12261 Bohr) occupying 0.378848 of unit cell:	Completed after 14 iterations at t[s]:   6355.46
	Linear fluid (dielectric constant: 78.4, screening length: 8.12261 Bohr) occupying 0.378777 of unit cell:	Completed after 12 iterations at t[s]:   6378.16
	FillingsUpdate:  mu: -0.097800000  nElectrons: 361.520013  magneticMoment: [ Abs: 0.00000  Tot: +0.00000 ]
	SubspaceRotationAdjust: set factor to 0.0927
ElecMinimize: Iter:  23  G: -2769.369529372879697  |grad|_K:  1.656e-07  alpha:  3.699e-01  linmin:  6.412e-07  t[s]:   6412.30
	Linear fluid (dielectric constant: 78.4, screening length: 8.12261 Bohr) occupying 0.378676 of unit cell:	Completed after 7 iterations at t[s]:   6441.07
	Linear fluid (dielectric constant: 78.4, screening length: 8.12261 Bohr) occupying 0.378646 of unit cell:	Completed after 6 iterations at t[s]:   6463.30
	FillingsUpdate:  mu: -0.097800000  nElectrons: 361.518279  magneticMoment: [ Abs: 0.00000  Tot: +0.00000 ]
	SubspaceRotationAdjust: set factor to 0.116
ElecMinimize: Iter:  24  G: -2769.369535165034449  |grad|_K:  1.443e-07  alpha:  4.811e-01  linmin: -1.345e-06  t[s]:   6497.25
	Linear fluid (dielectric constant: 78.4, screening length: 8.12261 Bohr) occupying 0.378553 of unit cell:	Completed after 12 iterations at t[s]:   6526.50
	Linear fluid (dielectric constant: 78.4, screening length: 8.12261 Bohr) occupying 0.378544 of unit cell:	Completed after 2 iterations at t[s]:   6548.33
	FillingsUpdate:  mu: -0.097800000  nElectrons: 361.516630  magneticMoment: [ Abs: 0.00000  Tot: +0.00000 ]
	SubspaceRotationAdjust: set factor to 0.14
ElecMinimize: Iter:  25  G: -2769.369539964591695  |grad|_K:  1.460e-07  alpha:  5.249e-01  linmin: -9.339e-06  t[s]:   6582.54
	Linear fluid (dielectric constant: 78.4, screening length: 8.12261 Bohr) occupying 0.378275 of unit cell:	Completed after 14 iterations at t[s]:   6611.97
	Linear fluid (dielectric constant: 78.4, screening length: 8.12261 Bohr) occupying 0.378347 of unit cell:	Completed after 12 iterations at t[s]:   6634.82
	FillingsUpdate:  mu: -0.097800000  nElectrons: 361.513434  magneticMoment: [ Abs: 0.00000  Tot: +0.00000 ]
	SubspaceRotationAdjust: set factor to 0.119
ElecMinimize: Iter:  26  G: -2769.369543583703944  |grad|_K:  1.771e-07  alpha:  3.853e-01  linmin:  1.314e-05  t[s]:   6669.31
	Linear fluid (dielectric constant: 78.4, screening length: 8.12261 Bohr) occupying 0.378444 of unit cell:	Completed after 14 iterations at t[s]:   6698.92
	Linear fluid (dielectric constant: 78.4, screening length: 8.12261 Bohr) occupying 0.378396 of unit cell:	Completed after 13 iterations at t[s]:   6721.71
	FillingsUpdate:  mu: -0.097800000  nElectrons: 361.513604  magneticMoment: [ Abs: 0.00000  Tot: +0.00000 ]
	SubspaceRotationAdjust: set factor to 0.0917
ElecMinimize: Iter:  27  G: -2769.369546252504279  |grad|_K:  1.402e-07  alpha:  1.938e-01  linmin: -8.902e-07  t[s]:   6756.00
	Linear fluid (dielectric constant: 78.4, screening length: 8.12261 Bohr) occupying 0.378342 of unit cell:	Completed after 12 iterations at t[s]:   6785.10
	Linear fluid (dielectric constant: 78.4, screening length: 8.12261 Bohr) occupying 0.378286 of unit cell:	Completed after 11 iterations at t[s]:   6807.72
	FillingsUpdate:  mu: -0.097800000  nElectrons: 361.511204  magneticMoment: [ Abs: 0.00000  Tot: +0.00000 ]
	SubspaceRotationAdjust: set factor to 0.105
ElecMinimize: Iter:  28  G: -2769.369549681793160  |grad|_K:  1.093e-07  alpha:  3.976e-01  linmin:  7.558e-06  t[s]:   6842.11
	Linear fluid (dielectric constant: 78.4, screening length: 8.12261 Bohr) occupying 0.378229 of unit cell:	Completed after 12 iterations at t[s]:   6871.25
	Linear fluid (dielectric constant: 78.4, screening length: 8.12261 Bohr) occupying 0.378219 of unit cell:	Completed after 3 iterations at t[s]:   6893.23
	FillingsUpdate:  mu: -0.097800000  nElectrons: 361.509431  magneticMoment: [ Abs: 0.00000  Tot: +0.00000 ]
	SubspaceRotationAdjust: set factor to 0.114
ElecMinimize: Iter:  29  G: -2769.369552156374084  |grad|_K:  9.970e-08  alpha:  4.727e-01  linmin: -2.203e-05  t[s]:   6928.05
	Linear fluid (dielectric constant: 78.4, screening length: 8.12261 Bohr) occupying 0.378285 of unit cell:	Completed after 13 iterations at t[s]:   6957.22
	Linear fluid (dielectric constant: 78.4, screening length: 8.12261 Bohr) occupying 0.378266 of unit cell:	Completed after 11 iterations at t[s]:   6979.85
	FillingsUpdate:  mu: -0.097800000  nElectrons: 361.509463  magneticMoment: [ Abs: 0.00000  Tot: +0.00000 ]
	SubspaceRotationAdjust: set factor to 0.102
ElecMinimize: Iter:  30  G: -2769.369553636955516  |grad|_K:  9.940e-08  alpha:  3.361e-01  linmin:  4.694e-05  t[s]:   7014.12
	Linear fluid (dielectric constant: 78.4, screening length: 8.12261 Bohr) occupying 0.378167 of unit cell:	Completed after 12 iterations at t[s]:   7043.46
	Linear fluid (dielectric constant: 78.4, screening length: 8.12261 Bohr) occupying 0.378194 of unit cell:	Completed after 10 iterations at t[s]:   7066.01
	FillingsUpdate:  mu: -0.097800000  nElectrons: 361.507934  magneticMoment: [ Abs: 0.00000  Tot: +0.00000 ]
	SubspaceRotationAdjust: set factor to 0.0862
ElecMinimize: Iter:  31  G: -2769.369554693443661  |grad|_K:  7.675e-08  alpha:  2.448e-01  linmin:  2.071e-05  t[s]:   7100.23
	Linear fluid (dielectric constant: 78.4, screening length: 8.12261 Bohr) occupying 0.378203 of unit cell:	Completed after 10 iterations at t[s]:   7129.25
	Linear fluid (dielectric constant: 78.4, screening length: 8.12261 Bohr) occupying 0.378208 of unit cell:	Completed after 7 iterations at t[s]:   7151.56
	FillingsUpdate:  mu: -0.097800000  nElectrons: 361.507507  magneticMoment: [ Abs: 0.00000  Tot: +0.00000 ]
	SubspaceRotationAdjust: set factor to 0.103
ElecMinimize: Iter:  32  G: -2769.369555717113599  |grad|_K:  6.176e-08  alpha:  3.971e-01  linmin:  2.507e-05  t[s]:   7185.77
	Linear fluid (dielectric constant: 78.4, screening length: 8.12261 Bohr) occupying 0.378196 of unit cell:	Completed after 3 iterations at t[s]:   7214.29
	Linear fluid (dielectric constant: 78.4, screening length: 8.12261 Bohr) occupying 0.378193 of unit cell:	Completed after 2 iterations at t[s]:   7236.43
	FillingsUpdate:  mu: -0.097800000  nElectrons: 361.506718  magneticMoment: [ Abs: 0.00000  Tot: +0.00000 ]
	SubspaceRotationAdjust: set factor to 0.13
ElecMinimize: Iter:  33  G: -2769.369556524418840  |grad|_K:  5.546e-08  alpha:  4.832e-01  linmin:  1.590e-05  t[s]:   7270.62
	Linear fluid (dielectric constant: 78.4, screening length: 8.12261 Bohr) occupying 0.378132 of unit cell:	Completed after 11 iterations at t[s]:   7299.66
	Linear fluid (dielectric constant: 78.4, screening length: 8.12261 Bohr) occupying 0.378136 of unit cell:	Completed after 0 iterations at t[s]:   7321.23
	FillingsUpdate:  mu: -0.097800000  nElectrons: 361.505401  magneticMoment: [ Abs: 0.00000  Tot: +0.00000 ]
	SubspaceRotationAdjust: set factor to 0.106
ElecMinimize: Iter:  34  G: -2769.369557134894876  |grad|_K:  6.715e-08  alpha:  4.521e-01  linmin:  2.451e-04  t[s]:   7355.59
	Linear fluid (dielectric constant: 78.4, screening length: 8.12261 Bohr) occupying 0.378194 of unit cell:	Completed after 13 iterations at t[s]:   7384.76
	Linear fluid (dielectric constant: 78.4, screening length: 8.12261 Bohr) occupying 0.378158 of unit cell:	Completed after 13 iterations at t[s]:   7407.59
	FillingsUpdate:  mu: -0.097800000  nElectrons: 361.505379  magneticMoment: [ Abs: 0.00000  Tot: +0.00000 ]
	SubspaceRotationAdjust: set factor to 0.0857
ElecMinimize: Iter:  35  G: -2769.369557463779529  |grad|_K:  5.469e-08  alpha:  1.767e-01  linmin:  6.970e-05  t[s]:   7441.93
	Linear fluid (dielectric constant: 78.4, screening length: 8.12261 Bohr) occupying 0.378138 of unit cell:	Completed after 7 iterations at t[s]:   7470.64
	Linear fluid (dielectric constant: 78.4, screening length: 8.12261 Bohr) occupying 0.378111 of unit cell:	Completed after 9 iterations at t[s]:   7493.25
	FillingsUpdate:  mu: -0.097800000  nElectrons: 361.504173  magneticMoment: [ Abs: 0.00000  Tot: +0.00000 ]
	SubspaceRotationAdjust: set factor to 0.114
ElecMinimize: Iter:  36  G: -2769.369557983453433  |grad|_K:  4.666e-08  alpha:  4.014e-01  linmin:  6.324e-05  t[s]:   7528.15
	Linear fluid (dielectric constant: 78.4, screening length: 8.12261 Bohr) occupying 0.378046 of unit cell:	Completed after 12 iterations at t[s]:   7557.37
	Linear fluid (dielectric constant: 78.4, screening length: 8.12261 Bohr) occupying 0.378054 of unit cell:	Completed after 2 iterations at t[s]:   7579.21
	FillingsUpdate:  mu: -0.097800000  nElectrons: 361.503007  magneticMoment: [ Abs: 0.00000  Tot: +0.00000 ]
	SubspaceRotationAdjust: set factor to 0.109
ElecMinimize: Iter:  37  G: -2769.369558318219333  |grad|_K:  5.254e-08  alpha:  3.526e-01  linmin:  1.296e-04  t[s]:   7613.50
	Linear fluid (dielectric constant: 78.4, screening length: 8.12261 Bohr) occupying 0.378067 of unit cell:	Completed after 11 iterations at t[s]:   7642.69
	Linear fluid (dielectric constant: 78.4, screening length: 8.12261 Bohr) occupying 0.378062 of unit cell:	Completed after 11 iterations at t[s]:   7665.28
	FillingsUpdate:  mu: -0.097800000  nElectrons: 361.502837  magneticMoment: [ Abs: 0.00000  Tot: +0.00000 ]
	SubspaceRotationAdjust: set factor to 0.088
ElecMinimize: Iter:  38  G: -2769.369558542773575  |grad|_K:  4.136e-08  alpha:  1.947e-01  linmin: -1.287e-05  t[s]:   7699.39
	Linear fluid (dielectric constant: 78.4, screening length: 8.12261 Bohr) occupying 0.378045 of unit cell:	Completed after 2 iterations at t[s]:   7727.75
	Linear fluid (dielectric constant: 78.4, screening length: 8.12261 Bohr) occupying 0.378027 of unit cell:	Completed after 8 iterations at t[s]:   7750.07
	FillingsUpdate:  mu: -0.097800000  nElectrons: 361.502011  magneticMoment: [ Abs: 0.00000  Tot: -0.00000 ]
	SubspaceRotationAdjust: set factor to 0.114
ElecMinimize: Iter:  39  G: -2769.369558833287101  |grad|_K:  3.365e-08  alpha:  3.929e-01  linmin:  9.206e-05  t[s]:   7784.28
	Linear fluid (dielectric constant: 78.4, screening length: 8.12261 Bohr) occupying 0.377982 of unit cell:	Completed after 11 iterations at t[s]:   7813.31
	Linear fluid (dielectric constant: 78.4, screening length: 8.12261 Bohr) occupying 0.377989 of unit cell:	Completed after 2 iterations at t[s]:   7835.50
	FillingsUpdate:  mu: -0.097800000  nElectrons: 361.501282  magneticMoment: [ Abs: 0.00000  Tot: -0.00000 ]
	SubspaceRotationAdjust: set factor to 0.0915
ElecMinimize: Iter:  40  G: -2769.369558997163949  |grad|_K:  3.865e-08  alpha:  3.350e-01  linmin:  1.234e-04  t[s]:   7869.77
	Linear fluid (dielectric constant: 78.4, screening length: 8.12261 Bohr) occupying 0.378007 of unit cell:	Completed after 10 iterations at t[s]:   7898.81
	Linear fluid (dielectric constant: 78.4, screening length: 8.12261 Bohr) occupying 0.377999 of unit cell:	Completed after 10 iterations at t[s]:   7921.41
	FillingsUpdate:  mu: -0.097800000  nElectrons: 361.501274  magneticMoment: [ Abs: 0.00000  Tot: -0.00000 ]
	SubspaceRotationAdjust: set factor to 0.0842
ElecMinimize: Iter:  41  G: -2769.369559112977186  |grad|_K:  2.591e-08  alpha:  1.867e-01  linmin:  1.211e-06  t[s]:   7955.65
	Linear fluid (dielectric constant: 78.4, screening length: 8.12261 Bohr) occupying 0.377997 of unit cell:	Completed after 2 iterations at t[s]:   7983.89
	Linear fluid (dielectric constant: 78.4, screening length: 8.12261 Bohr) occupying 0.377994 of unit cell:	Completed after 2 iterations at t[s]:   8005.74
	FillingsUpdate:  mu: -0.097800000  nElectrons: 361.501049  magneticMoment: [ Abs: 0.00000  Tot: -0.00000 ]
	SubspaceRotationAdjust: set factor to 0.115
ElecMinimize: Iter:  42  G: -2769.369559241177285  |grad|_K:  2.322e-08  alpha:  4.289e-01  linmin: -9.964e-05  t[s]:   8040.29
	Linear fluid (dielectric constant: 78.4, screening length: 8.12261 Bohr) occupying 0.377970 of unit cell:	Completed after 9 iterations at t[s]:   8069.30
	Linear fluid (dielectric constant: 78.4, screening length: 8.12261 Bohr) occupying 0.377974 of unit cell:	Completed after 3 iterations at t[s]:   8091.17
	FillingsUpdate:  mu: -0.097800000  nElectrons: 361.500687  magneticMoment: [ Abs: 0.00000  Tot: -0.00000 ]
	SubspaceRotationAdjust: set factor to 0.095
ElecMinimize: Iter:  43  G: -2769.369559324319198  |grad|_K:  2.688e-08  alpha:  3.417e-01  linmin:  1.877e-04  t[s]:   8125.96
	Linear fluid (dielectric constant: 78.4, screening length: 8.12261 Bohr) occupying 0.377998 of unit cell:	Completed after 10 iterations at t[s]:   8155.00
	Linear fluid (dielectric constant: 78.4, screening length: 8.12261 Bohr) occupying 0.377989 of unit cell:	Completed after 6 iterations at t[s]:   8177.19
	FillingsUpdate:  mu: -0.097800000  nElectrons: 361.500812  magneticMoment: [ Abs: 0.00000  Tot: -0.00000 ]
	SubspaceRotationAdjust: set factor to 0.0863
ElecMinimize: Iter:  44  G: -2769.369559388565904  |grad|_K:  1.990e-08  alpha:  2.162e-01  linmin:  2.652e-05  t[s]:   8211.57
ElecMinimize: Converged (|Delta G|<1.000000e-07 for 2 iters).
Setting wave functions to eigenvectors of Hamiltonian
Converging empty states (this may take a while): |deigs|: 1.666e-04
Single-point solvation energy estimate, DeltaG = -0.010539550413341

Computing DFT-D3 correction:
# coordination-number Ag 5.361 6.893 8.404 5.361 9.196 9.205 9.210 9.212 9.212 9.212 9.212 9.212 9.212 9.212 9.210 9.205 9.196 8.404 6.893
# diagonal-C6 Ag 268.61 268.61 268.61 268.61 268.61 268.61 268.61 268.61 268.61 268.61 268.61 268.61 268.61 268.61 268.61 268.61 268.61 268.61 268.61
EvdW_6 =   -0.130477
EvdW_8 =   -0.172538

# Ionic positions in cartesian coordinates:
ion Ag  -0.000002000000000   7.461215000000000  65.948428000000007 1
ion Ag   2.710224000000000   3.108840000000000  64.189788999999990 1
ion Ag   2.710222000000000  10.570055000000000  62.431216999999997 1
ion Ag   2.710224000000000  11.813589000000000  34.293193000000002 1
ion Ag  -0.000000000000000   6.217681000000001  60.672577999999994 1
ion Ag   2.710221000000000   1.865307000000000  58.913938999999992 1
ion Ag   2.710224000000000   9.326521000000001  57.155299999999990 1
ion Ag  -0.000002000000000   4.974147000000000  55.396660999999995 1
ion Ag   2.710224000000000   0.621773000000000  53.638089000000001 1
ion Ag   2.710221000000000   8.082987000000001  51.879449999999999 1
ion Ag   0.000003000000000   3.730601000000001  50.120810999999996 1
ion Ag   0.000000999999999  11.191816000000001  48.362171999999994 1
ion Ag   2.710227000000000   6.839442000000001  46.603532999999992 1
ion Ag   0.000000000000000   2.487068000000000  44.844960000000000 1
ion Ag   0.000004000000000   9.948282000000003  43.086320999999991 1
ion Ag   2.710223999999999   5.595908000000001  41.327681999999996 1
ion Ag   0.000003000000000   1.243534000000000  39.569042999999994 1
ion Ag   0.000001000000000   8.704748000000000  37.810403999999998 1
ion Ag   2.710227000000000   4.352374000000000  36.051831999999997 1

# Forces in Cartesian coordinates:
force Ag   0.000004767639655   0.000296434696042  -0.001925344552351 1
force Ag  -0.000036331038142  -0.003085608712760   0.004242818606323 1
force Ag   0.000070041408554   0.002868828700339   0.005170062972065 1
force Ag   0.000013456802787  -0.000333240125474   0.001958719395025 1
force Ag   0.000010153082726   0.000409474746932  -0.002686250671546 1
force Ag  -0.000013310919025  -0.000217853399016  -0.000835063390374 1
force Ag   0.000009758517153  -0.000454295082281  -0.000581058744440 1
force Ag  -0.000076053988005  -0.000034897761015  -0.000186803714909 1
force Ag   0.000092208108204  -0.000056234873706  -0.000193327062559 1
force Ag   0.000027521083309  -0.000096861119700   0.000050353371110 1
force Ag   0.000037110706631  -0.000009214759536  -0.000008614314288 1
force Ag  -0.000081543827886   0.000081176426273  -0.000070049059535 1
force Ag  -0.000056030803342   0.000048303852274   0.000175350830879 1
force Ag   0.000070407298275   0.000051690816335   0.000171475908030 1
force Ag  -0.000033349294536   0.000462104936610   0.000581737951495 1
force Ag   0.000068182887597   0.000259381659296   0.000846486939887 1
force Ag  -0.000074204328090  -0.000412307858596   0.002697915402826 1
force Ag  -0.000018942428990  -0.002858037277811  -0.005160131782748 1
force Ag  -0.000018691238664   0.003046216439035  -0.004225383541904 1

# Energy components:
   A_diel =       -0.1754950141242896
   Eewald =    15833.0875170978324604
       EH =    18403.4434602734581858
     Eloc =   -37481.4824507896992145
      Enl =       74.8853684252747911
     EvdW =       -0.3030152530563577
      Exc =     -275.4986498562532233
 Exc_core =        3.9552384612395004
       KE =      637.4060383753170527
  MuShift =       -0.0419187182330149
-------------------------------------
     Etot =    -2804.7239069982420006
       TS =        0.0004318320456853
-------------------------------------
        F =    -2804.7243388302877065
      muN =      -35.3547794417218526
-------------------------------------
        G =    -2769.3695593885659036


Dumping 'jdft.fillings' ... done
Dumping 'jdft.wfns' ... done
Dumping 'jdft.fluidState' ... done
Dumping 'jdft.ionpos' ... done
Dumping 'jdft.lattice' ... done
Dumping 'jdft.eigenvals' ... done
Dumping 'jdft.eigStats' ... 
	eMin: -3.483677 at state 55 ( [ +0.000000 +0.000000 +0.000000 ] spin -1 )
	HOMO: -0.098389 at state 22 ( [ +0.363636 +0.400000 +0.000000 ] spin 1 )
	mu  : -0.097800
	LUMO: -0.097436 at state 23 ( [ +0.363636 -0.400000 +0.000000 ] spin 1 )
	eMax: +0.247243 at state 106 ( [ -0.090909 +0.200000 +0.000000 ] spin -1 )
	HOMO-LUMO gap: +0.000953
	Optical gap  : +0.004131 at state 14 ( [ +0.181818 -0.200000 +0.000000 ] spin 1 )
Dumping 'jdft.Ecomponents' ... done
IonicMinimize: Iter:   0  G: -2769.369559388565904  |grad|_K:  1.621e-03  t[s]:   8442.96

#--- Lowdin population analysis ---
# oxidation-state Ag -0.063 -0.069 -0.074 -0.063 -0.013 -0.001 +0.004 +0.004 +0.001 +0.001 +0.004 +0.001 +0.001 +0.005 +0.004 -0.001 -0.013 -0.074 -0.069
# magnetic-moments Ag -0.000 -0.000 -0.000 +0.000 -0.000 +0.000 -0.000 +0.000 +0.000 -0.000 -0.000 -0.000 -0.000 -0.000 +0.000 +0.000 -0.000 -0.000 -0.000


Computing DFT-D3 correction:
# coordination-number Ag 5.363 6.887 8.401 5.363 9.186 9.200 9.209 9.214 9.213 9.213 9.213 9.213 9.213 9.214 9.209 9.200 9.187 8.401 6.887
# diagonal-C6 Ag 268.61 268.61 268.61 268.61 268.61 268.61 268.61 268.61 268.61 268.61 268.61 268.61 268.61 268.61 268.61 268.61 268.61 268.61 268.61
EvdW_6 =   -0.130472
EvdW_8 =   -0.172525
Shifting auxilliary hamiltonian by -0.000037 to set nElectrons=361.500812

-------- Electronic minimization -----------
	Linear fluid (dielectric constant: 78.4, screening length: 8.12261 Bohr) occupying 0.377940 of unit cell:	Completed after 16 iterations at t[s]:   8475.67
	FillingsUpdate:  mu: -0.097800000  nElectrons: 361.500812  magneticMoment: [ Abs: 0.00000  Tot: +0.00000 ]
ElecMinimize: Iter:   0  G: -2769.369659683163718  |grad|_K:  3.131e-07  alpha:  1.000e+00
	Linear fluid (dielectric constant: 78.4, screening length: 8.12261 Bohr) occupying 0.379583 of unit cell:	Completed after 18 iterations at t[s]:   8544.12
	Linear fluid (dielectric constant: 78.4, screening length: 8.12261 Bohr) occupying 0.378158 of unit cell:	Completed after 16 iterations at t[s]:   8567.31
	FillingsUpdate:  mu: -0.097800000  nElectrons: 361.503842  magneticMoment: [ Abs: 0.00000  Tot: +0.00000 ]
	SubspaceRotationAdjust: set factor to 0.0703
ElecMinimize: Iter:   1  G: -2769.369665653718130  |grad|_K:  1.300e-07  alpha:  1.362e-01  linmin: -1.746e-03  t[s]:   8601.68
	Linear fluid (dielectric constant: 78.4, screening length: 8.12261 Bohr) occupying 0.378159 of unit cell:	Completed after 2 iterations at t[s]:   8630.02
ElecMinimize: 	Predicted alpha/alphaT>3.000000, increasing alphaT to 4.086376e-01.
	Linear fluid (dielectric constant: 78.4, screening length: 8.12261 Bohr) occupying 0.378159 of unit cell:	Completed after 9 iterations at t[s]:   8652.60
	Linear fluid (dielectric constant: 78.4, screening length: 8.12261 Bohr) occupying 0.378160 of unit cell:	Completed after 10 iterations at t[s]:   8675.26
	FillingsUpdate:  mu: -0.097800000  nElectrons: 361.503770  magneticMoment: [ Abs: 0.00000  Tot: -0.00000 ]
	SubspaceRotationAdjust: set factor to 0.102
ElecMinimize: Iter:   2  G: -2769.369671440424554  |grad|_K:  1.366e-07  alpha:  7.662e-01  linmin: -5.259e-05  t[s]:   8709.50
	Linear fluid (dielectric constant: 78.4, screening length: 8.12261 Bohr) occupying 0.378110 of unit cell:	Completed after 12 iterations at t[s]:   8739.05
	Linear fluid (dielectric constant: 78.4, screening length: 8.12261 Bohr) occupying 0.378100 of unit cell:	Completed after 9 iterations at t[s]:   8761.50
	FillingsUpdate:  mu: -0.097800000  nElectrons: 361.502800  magneticMoment: [ Abs: 0.00000  Tot: -0.00000 ]
	SubspaceRotationAdjust: set factor to 0.109
ElecMinimize: Iter:   3  G: -2769.369678876299986  |grad|_K:  2.059e-07  alpha:  9.069e-01  linmin: -1.047e-06  t[s]:   8795.74
	Linear fluid (dielectric constant: 78.4, screening length: 8.12261 Bohr) occupying 0.378535 of unit cell:	Completed after 15 iterations at t[s]:   8825.20
	Linear fluid (dielectric constant: 78.4, screening length: 8.12261 Bohr) occupying 0.378277 of unit cell:	Completed after 14 iterations at t[s]:   8848.08
	FillingsUpdate:  mu: -0.097800000  nElectrons: 361.505130  magneticMoment: [ Abs: 0.00000  Tot: -0.00000 ]
	SubspaceRotationAdjust: set factor to 0.0903
ElecMinimize: Iter:   4  G: -2769.369685768524960  |grad|_K:  2.379e-07  alpha:  3.697e-01  linmin: -1.288e-05  t[s]:   8882.36
	Linear fluid (dielectric constant: 78.4, screening length: 8.12261 Bohr) occupying 0.378081 of unit cell:	Completed after 14 iterations at t[s]:   8911.68
	Linear fluid (dielectric constant: 78.4, screening length: 8.12261 Bohr) occupying 0.378125 of unit cell:	Completed after 13 iterations at t[s]:   8934.53
	FillingsUpdate:  mu: -0.097800000  nElectrons: 361.502910  magneticMoment: [ Abs: 0.00000  Tot: -0.00000 ]
	SubspaceRotationAdjust: set factor to 0.0695
ElecMinimize: Iter:   5  G: -2769.369692902537281  |grad|_K:  1.912e-07  alpha:  2.870e-01  linmin: -2.322e-06  t[s]:   8968.97
	Linear fluid (dielectric constant: 78.4, screening length: 8.12261 Bohr) occupying 0.378147 of unit cell:	Completed after 11 iterations at t[s]:   8997.96
	Linear fluid (dielectric constant: 78.4, screening length: 8.12261 Bohr) occupying 0.378157 of unit cell:	Completed after 7 iterations at t[s]:   9021.15
	FillingsUpdate:  mu: -0.097800000  nElectrons: 361.503300  magneticMoment: [ Abs: 0.00000  Tot: -0.00000 ]
	SubspaceRotationAdjust: set factor to 0.0756
ElecMinimize: Iter:   6  G: -2769.369699662367111  |grad|_K:  1.296e-07  alpha:  4.209e-01  linmin: -8.056e-06  t[s]:   9055.49
	Linear fluid (dielectric constant: 78.4, screening length: 8.12261 Bohr) occupying 0.378201 of unit cell:	Completed after 13 iterations at t[s]:   9084.72
	Linear fluid (dielectric constant: 78.4, screening length: 8.12261 Bohr) occupying 0.378202 of unit cell:	Completed after 0 iterations at t[s]:   9106.35
	FillingsUpdate:  mu: -0.097800000  nElectrons: 361.503937  magneticMoment: [ Abs: 0.00000  Tot: -0.00000 ]
	SubspaceRotationAdjust: set factor to 0.0723
ElecMinimize: Iter:   7  G: -2769.369702844869153  |grad|_K:  9.863e-08  alpha:  4.315e-01  linmin: -1.098e-04  t[s]:   9140.65
	Linear fluid (dielectric constant: 78.4, screening length: 8.12261 Bohr) occupying 0.378101 of unit cell:	Completed after 13 iterations at t[s]:   9169.97
	Linear fluid (dielectric constant: 78.4, screening length: 8.12261 Bohr) occupying 0.378133 of unit cell:	Completed after 11 iterations at t[s]:   9192.61
	FillingsUpdate:  mu: -0.097800000  nElectrons: 361.502993  magneticMoment: [ Abs: 0.00000  Tot: -0.00000 ]
	SubspaceRotationAdjust: set factor to 0.0502
ElecMinimize: Iter:   8  G: -2769.369704120818824  |grad|_K:  6.881e-08  alpha:  2.960e-01  linmin:  8.280e-05  t[s]:   9227.00
	Linear fluid (dielectric constant: 78.4, screening length: 8.12261 Bohr) occupying 0.378160 of unit cell:	Completed after 12 iterations at t[s]:   9256.39
	Linear fluid (dielectric constant: 78.4, screening length: 8.12261 Bohr) occupying 0.378161 of unit cell:	Completed after 0 iterations at t[s]:   9278.01
	FillingsUpdate:  mu: -0.097800000  nElectrons: 361.503409  magneticMoment: [ Abs: 0.00000  Tot: -0.00000 ]
	SubspaceRotationAdjust: set factor to 0.0448
ElecMinimize: Iter:   9  G: -2769.369704772616842  |grad|_K:  4.260e-08  alpha:  3.143e-01  linmin: -6.010e-04  t[s]:   9312.18
	Linear fluid (dielectric constant: 78.4, screening length: 8.12261 Bohr) occupying 0.378164 of unit cell:	Completed after 6 iterations at t[s]:   9340.87
	Linear fluid (dielectric constant: 78.4, screening length: 8.12261 Bohr) occupying 0.378164 of unit cell:	Completed after 2 iterations at t[s]:   9362.75
	FillingsUpdate:  mu: -0.097800000  nElectrons: 361.503462  magneticMoment: [ Abs: 0.00000  Tot: -0.00000 ]
	SubspaceRotationAdjust: set factor to 0.0503
ElecMinimize: Iter:  10  G: -2769.369705068981148  |grad|_K:  2.759e-08  alpha:  3.654e-01  linmin: -2.308e-04  t[s]:   9397.02
	Linear fluid (dielectric constant: 78.4, screening length: 8.12261 Bohr) occupying 0.378144 of unit cell:	Completed after 9 iterations at t[s]:   9425.89
	Linear fluid (dielectric constant: 78.4, screening length: 8.12261 Bohr) occupying 0.378145 of unit cell:	Completed after 0 iterations at t[s]:   9447.43
	FillingsUpdate:  mu: -0.097800000  nElectrons: 361.503202  magneticMoment: [ Abs: 0.00000  Tot: -0.00000 ]
	SubspaceRotationAdjust: set factor to 0.04
ElecMinimize: Iter:  11  G: -2769.369705188670196  |grad|_K:  1.841e-08  alpha:  3.567e-01  linmin:  1.750e-03  t[s]:   9481.80
	Linear fluid (dielectric constant: 78.4, screening length: 8.12261 Bohr) occupying 0.378148 of unit cell:	Completed after 6 iterations at t[s]:   9510.42
	Linear fluid (dielectric constant: 78.4, screening length: 8.12261 Bohr) occupying 0.378148 of unit cell:	Completed after 0 iterations at t[s]:   9532.14
	FillingsUpdate:  mu: -0.097800000  nElectrons: 361.503263  magneticMoment: [ Abs: 0.00000  Tot: -0.00000 ]
	SubspaceRotationAdjust: set factor to 0.0466
ElecMinimize: Iter:  12  G: -2769.369705240375424  |grad|_K:  1.176e-08  alpha:  3.563e-01  linmin: -1.184e-03  t[s]:   9566.70
	Linear fluid (dielectric constant: 78.4, screening length: 8.12261 Bohr) occupying 0.378151 of unit cell:	Completed after 7 iterations at t[s]:   9595.49
	Linear fluid (dielectric constant: 78.4, screening length: 8.12261 Bohr) occupying 0.378151 of unit cell:	Completed after 0 iterations at t[s]:   9617.05
	FillingsUpdate:  mu: -0.097800000  nElectrons: 361.503307  magneticMoment: [ Abs: 0.00000  Tot: -0.00000 ]
	SubspaceRotationAdjust: set factor to 0.0489
ElecMinimize: Iter:  13  G: -2769.369705260696719  |grad|_K:  9.070e-09  alpha:  3.322e-01  linmin: -8.560e-04  t[s]:   9651.49
ElecMinimize: Converged (|Delta G|<1.000000e-07 for 2 iters).
Setting wave functions to eigenvectors of Hamiltonian
Converging empty states (this may take a while): |deigs|: 1.250e-08

Computing DFT-D3 correction:
# coordination-number Ag 5.363 6.887 8.401 5.363 9.186 9.200 9.209 9.214 9.213 9.213 9.213 9.213 9.213 9.214 9.209 9.200 9.187 8.401 6.887
# diagonal-C6 Ag 268.61 268.61 268.61 268.61 268.61 268.61 268.61 268.61 268.61 268.61 268.61 268.61 268.61 268.61 268.61 268.61 268.61 268.61 268.61
EvdW_6 =   -0.130472
EvdW_8 =   -0.172525
IonicMinimize: 	Wolfe criterion not satisfied: alpha: 1  (E-E0)/|gdotd0|: -0.973614  gdotd/gdotd0: 0.943552 (taking cubic step)

Computing DFT-D3 correction:
# coordination-number Ag 5.368 6.876 8.396 5.369 9.167 9.191 9.207 9.220 9.214 9.214 9.214 9.214 9.214 9.220 9.207 9.191 9.167 8.396 6.876
# diagonal-C6 Ag 268.61 268.61 268.61 268.61 268.61 268.61 268.61 268.61 268.61 268.61 268.61 268.61 268.61 268.61 268.61 268.61 268.61 268.61 268.61
EvdW_6 =   -0.130461
EvdW_8 =   -0.172502
Shifting auxilliary hamiltonian by -0.000049 to set nElectrons=361.503307

-------- Electronic minimization -----------
	Linear fluid (dielectric constant: 78.4, screening length: 8.12261 Bohr) occupying 0.378088 of unit cell:	Completed after 16 iterations at t[s]:   9770.20
	FillingsUpdate:  mu: -0.097800000  nElectrons: 361.503307  magneticMoment: [ Abs: 0.00000  Tot: -0.00000 ]
ElecMinimize: Iter:   0  G: -2769.369804749610012  |grad|_K:  2.766e-07  alpha:  1.000e+00
	Linear fluid (dielectric constant: 78.4, screening length: 8.12261 Bohr) occupying 0.378646 of unit cell:	Completed after 15 iterations at t[s]:   9837.86
	Linear fluid (dielectric constant: 78.4, screening length: 8.12261 Bohr) occupying 0.378318 of unit cell:	Completed after 14 iterations at t[s]:   9860.72
	FillingsUpdate:  mu: -0.097800000  nElectrons: 361.506472  magneticMoment: [ Abs: 0.00000  Tot: -0.00000 ]
	SubspaceRotationAdjust: set factor to 0.0387
ElecMinimize: Iter:   1  G: -2769.369818633866089  |grad|_K:  2.260e-07  alpha:  4.132e-01  linmin: -9.806e-05  t[s]:   9895.22
	Linear fluid (dielectric constant: 78.4, screening length: 8.12261 Bohr) occupying 0.378242 of unit cell:	Completed after 13 iterations at t[s]:   9924.55
	Linear fluid (dielectric constant: 78.4, screening length: 8.12261 Bohr) occupying 0.378212 of unit cell:	Completed after 12 iterations at t[s]:   9947.65
	FillingsUpdate:  mu: -0.097800000  nElectrons: 361.504944  magneticMoment: [ Abs: 0.00000  Tot: -0.00000 ]
	SubspaceRotationAdjust: set factor to 0.0441
ElecMinimize: Iter:   2  G: -2769.369831572720159  |grad|_K:  2.248e-07  alpha:  5.767e-01  linmin: -2.124e-06  t[s]:   9981.86
	Linear fluid (dielectric constant: 78.4, screening length: 8.12261 Bohr) occupying 0.378267 of unit cell:	Completed after 12 iterations at t[s]:  10011.06
	Linear fluid (dielectric constant: 78.4, screening length: 8.12261 Bohr) occupying 0.378315 of unit cell:	Completed after 13 iterations at t[s]:  10033.91
	FillingsUpdate:  mu: -0.097800000  nElectrons: 361.506217  magneticMoment: [ Abs: 0.00000  Tot: -0.00000 ]
	SubspaceRotationAdjust: set factor to 0.0497
ElecMinimize: Iter:   3  G: -2769.369855428137726  |grad|_K:  2.997e-07  alpha:  1.075e+00  linmin: -2.244e-06  t[s]:  10068.06
[...]
	Linear fluid (dielectric constant: 78.4, screening length: 8.12261 Bohr) occupying 0.376959 of unit cell:	Completed after 15 iterations at t[s]:  50720.54
	Linear fluid (dielectric constant: 78.4, screening length: 8.12261 Bohr) occupying 0.376967 of unit cell:	Completed after 6 iterations at t[s]:  50742.78
	FillingsUpdate:  mu: -0.097800000  nElectrons: 361.521839  magneticMoment: [ Abs: 0.00000  Tot: +0.00000 ]
	SubspaceRotationAdjust: set factor to 0.0464
ElecMinimize: Iter:   8  G: -2769.371714930092821  |grad|_K:  1.053e-07  alpha:  3.360e-01  linmin:  4.050e-05  t[s]:  50776.93
	Linear fluid (dielectric constant: 78.4, screening length: 8.12261 Bohr) occupying 0.376967 of unit cell:	Completed after 11 iterations at t[s]:  50806.16
	Linear fluid (dielectric constant: 78.4, screening length: 8.12261 Bohr) occupying 0.376967 of unit cell:	Completed after 4 iterations at t[s]:  50828.43
	FillingsUpdate:  mu: -0.097800000  nElectrons: 361.521876  magneticMoment: [ Abs: 0.00000  Tot: -0.00000 ]
	SubspaceRotationAdjust: set factor to 0.0547
ElecMinimize: Iter:   9  G: -2769.371716940468104  |grad|_K:  6.715e-08  alpha:  4.137e-01  linmin: -4.141e-05  t[s]:  50862.70
	Linear fluid (dielectric constant: 78.4, screening length: 8.12261 Bohr) occupying 0.376963 of unit cell:	Completed after 10 iterations at t[s]:  50891.86
	Linear fluid (dielectric constant: 78.4, screening length: 8.12261 Bohr) occupying 0.376962 of unit cell:	Completed after 0 iterations at t[s]:  50913.56
	FillingsUpdate:  mu: -0.097800000  nElectrons: 361.521846  magneticMoment: [ Abs: 0.00000  Tot: -0.00000 ]
	SubspaceRotationAdjust: set factor to 0.0584
ElecMinimize: Iter:  10  G: -2769.371717804721811  |grad|_K:  5.034e-08  alpha:  4.357e-01  linmin: -3.407e-04  t[s]:  50947.89
	Linear fluid (dielectric constant: 78.4, screening length: 8.12261 Bohr) occupying 0.376913 of unit cell:	Completed after 13 iterations at t[s]:  50977.39
	Linear fluid (dielectric constant: 78.4, screening length: 8.12261 Bohr) occupying 0.376920 of unit cell:	Completed after 5 iterations at t[s]:  50999.62
	FillingsUpdate:  mu: -0.097800000  nElectrons: 361.521161  magneticMoment: [ Abs: 0.00000  Tot: -0.00000 ]
	SubspaceRotationAdjust: set factor to 0.0536
ElecMinimize: Iter:  11  G: -2769.371718234113814  |grad|_K:  3.784e-08  alpha:  3.807e-01  linmin:  5.664e-04  t[s]:  51033.87
	Linear fluid (dielectric constant: 78.4, screening length: 8.12261 Bohr) occupying 0.376915 of unit cell:	Completed after 11 iterations at t[s]:  51062.90
	Linear fluid (dielectric constant: 78.4, screening length: 8.12261 Bohr) occupying 0.376915 of unit cell:	Completed after 0 iterations at t[s]:  51084.63
	FillingsUpdate:  mu: -0.097800000  nElectrons: 361.521127  magneticMoment: [ Abs: 0.00000  Tot: -0.00000 ]
	SubspaceRotationAdjust: set factor to 0.0553
ElecMinimize: Iter:  12  G: -2769.371718484747362  |grad|_K:  2.704e-08  alpha:  4.039e-01  linmin: -7.248e-04  t[s]:  51118.87
	Linear fluid (dielectric constant: 78.4, screening length: 8.12261 Bohr) occupying 0.376896 of unit cell:	Completed after 2 iterations at t[s]:  51147.15
	Linear fluid (dielectric constant: 78.4, screening length: 8.12261 Bohr) occupying 0.376893 of unit cell:	Completed after 3 iterations at t[s]:  51168.99
	FillingsUpdate:  mu: -0.097800000  nElectrons: 361.520781  magneticMoment: [ Abs: 0.00000  Tot: -0.00000 ]
	SubspaceRotationAdjust: set factor to 0.0679
ElecMinimize: Iter:  13  G: -2769.371718634716672  |grad|_K:  2.242e-08  alpha:  4.620e-01  linmin:  2.570e-04  t[s]:  51203.27
	Linear fluid (dielectric constant: 78.4, screening length: 8.12261 Bohr) occupying 0.376861 of unit cell:	Completed after 11 iterations at t[s]:  51232.54
	Linear fluid (dielectric constant: 78.4, screening length: 8.12261 Bohr) occupying 0.376870 of unit cell:	Completed after 6 iterations at t[s]:  51254.71
	FillingsUpdate:  mu: -0.097800000  nElectrons: 361.520393  magneticMoment: [ Abs: 0.00000  Tot: -0.00000 ]
	SubspaceRotationAdjust: set factor to 0.0625
ElecMinimize: Iter:  14  G: -2769.371718706314823  |grad|_K:  1.909e-08  alpha:  3.355e-01  linmin: -6.554e-05  t[s]:  51289.04
	Linear fluid (dielectric constant: 78.4, screening length: 8.12261 Bohr) occupying 0.376867 of unit cell:	Completed after 10 iterations at t[s]:  51317.98
	Linear fluid (dielectric constant: 78.4, screening length: 8.12261 Bohr) occupying 0.376868 of unit cell:	Completed after 0 iterations at t[s]:  51339.54
	FillingsUpdate:  mu: -0.097800000  nElectrons: 361.520369  magneticMoment: [ Abs: 0.00000  Tot: -0.00000 ]
	SubspaceRotationAdjust: set factor to 0.0497
ElecMinimize: Iter:  15  G: -2769.371718752260222  |grad|_K:  1.508e-08  alpha:  2.836e-01  linmin:  2.086e-03  t[s]:  51373.66
ElecMinimize: Converged (|Delta G|<1.000000e-07 for 2 iters).
Setting wave functions to eigenvectors of Hamiltonian
Converging empty states (this may take a while): |deigs|: 1.677e-08

Computing DFT-D3 correction:
# coordination-number Ag 5.524 6.671 8.313 5.486 8.861 8.984 9.032 9.074 9.070 9.082 9.083 9.082 9.071 9.076 9.030 8.987 8.858 8.309 6.663
# diagonal-C6 Ag 268.61 268.61 268.61 268.61 268.61 268.61 268.61 268.61 268.61 268.61 268.61 268.61 268.61 268.61 268.61 268.61 268.61 268.61 268.61
EvdW_6 =   -0.129176
EvdW_8 =   -0.170742
IonicMinimize: 	Wolfe criterion not satisfied: alpha: 3  (E-E0)/|gdotd0|: 0.361408  gdotd/gdotd0: -1.25234 (taking cubic step)

Computing DFT-D3 correction:
# coordination-number Ag 5.518 6.670 8.313 5.486 8.864 8.992 9.040 9.083 9.077 9.083 9.087 9.082 9.075 9.081 9.035 8.992 8.864 8.313 6.666
# diagonal-C6 Ag 268.61 268.61 268.61 268.61 268.61 268.61 268.61 268.61 268.61 268.61 268.61 268.61 268.61 268.61 268.61 268.61 268.61 268.61 268.61
EvdW_6 =   -0.129212
EvdW_8 =   -0.170790
Shifting auxilliary hamiltonian by -0.000066 to set nElectrons=361.520369

-------- Electronic minimization -----------
	Linear fluid (dielectric constant: 78.4, screening length: 8.12261 Bohr) occupying 0.376936 of unit cell:	Completed after 16 iterations at t[s]:  51492.62
	FillingsUpdate:  mu: -0.097800000  nElectrons: 361.520369  magneticMoment: [ Abs: 0.00000  Tot: -0.00000 ]
ElecMinimize: Iter:   0  G: -2769.371702138305864  |grad|_K:  1.453e-07  alpha:  1.000e+00
	Linear fluid (dielectric constant: 78.4, screening length: 8.12261 Bohr) occupying 0.377160 of unit cell:	Completed after 19 iterations at t[s]:  51560.81
	Linear fluid (dielectric constant: 78.4, screening length: 8.12261 Bohr) occupying 0.377005 of unit cell:	Completed after 18 iterations at t[s]:  51584.12
	FillingsUpdate:  mu: -0.097800000  nElectrons: 361.521564  magneticMoment: [ Abs: 0.00000  Tot: -0.00000 ]
	SubspaceRotationAdjust: set factor to 0.0432
ElecMinimize: Iter:   1  G: -2769.371705003733950  |grad|_K:  9.126e-08  alpha:  3.084e-01  linmin: -1.022e-04  t[s]:  51618.30
	Linear fluid (dielectric constant: 78.4, screening length: 8.12261 Bohr) occupying 0.376967 of unit cell:	Completed after 13 iterations at t[s]:  51647.69
	Linear fluid (dielectric constant: 78.4, screening length: 8.12261 Bohr) occupying 0.376953 of unit cell:	Completed after 11 iterations at t[s]:  51670.57
	FillingsUpdate:  mu: -0.097800000  nElectrons: 361.520671  magneticMoment: [ Abs: 0.00000  Tot: -0.00000 ]
	SubspaceRotationAdjust: set factor to 0.046
ElecMinimize: Iter:   2  G: -2769.371706565054865  |grad|_K:  6.368e-08  alpha:  4.262e-01  linmin: -2.747e-04  t[s]:  51704.83
	Linear fluid (dielectric constant: 78.4, screening length: 8.12261 Bohr) occupying 0.376952 of unit cell:	Completed after 6 iterations at t[s]:  51733.50
	Linear fluid (dielectric constant: 78.4, screening length: 8.12261 Bohr) occupying 0.376952 of unit cell:	Completed after 12 iterations at t[s]:  51756.19
	FillingsUpdate:  mu: -0.097800000  nElectrons: 361.520656  magneticMoment: [ Abs: 0.00000  Tot: -0.00000 ]
	SubspaceRotationAdjust: set factor to 0.0538
ElecMinimize: Iter:   3  G: -2769.371708660480181  |grad|_K:  8.798e-08  alpha:  1.174e+00  linmin: -1.792e-05  t[s]:  51790.52
	Linear fluid (dielectric constant: 78.4, screening length: 8.12261 Bohr) occupying 0.376907 of unit cell:	Completed after 8 iterations at t[s]:  51819.31
	Linear fluid (dielectric constant: 78.4, screening length: 8.12261 Bohr) occupying 0.376918 of unit cell:	Completed after 2 iterations at t[s]:  51841.09
	FillingsUpdate:  mu: -0.097800000  nElectrons: 361.520080  magneticMoment: [ Abs: 0.00000  Tot: -0.00000 ]
	SubspaceRotationAdjust: set factor to 0.0586
ElecMinimize: Iter:   4  G: -2769.371711631868038  |grad|_K:  1.190e-07  alpha:  8.737e-01  linmin:  1.225e-05  t[s]:  51875.29
	Linear fluid (dielectric constant: 78.4, screening length: 8.12261 Bohr) occupying 0.376802 of unit cell:	Completed after 14 iterations at t[s]:  51904.64
	Linear fluid (dielectric constant: 78.4, screening length: 8.12261 Bohr) occupying 0.376844 of unit cell:	Completed after 12 iterations at t[s]:  51928.54
	FillingsUpdate:  mu: -0.097800000  nElectrons: 361.518790  magneticMoment: [ Abs: 0.00000  Tot: -0.00000 ]
	SubspaceRotationAdjust: set factor to 0.0597
ElecMinimize: Iter:   5  G: -2769.371715101750397  |grad|_K:  1.149e-07  alpha:  5.593e-01  linmin: -3.682e-06  t[s]:  51962.82
	Linear fluid (dielectric constant: 78.4, screening length: 8.12261 Bohr) occupying 0.376863 of unit cell:	Completed after 14 iterations at t[s]:  51992.12
	Linear fluid (dielectric constant: 78.4, screening length: 8.12261 Bohr) occupying 0.376865 of unit cell:	Completed after 2 iterations at t[s]:  52014.07
	FillingsUpdate:  mu: -0.097800000  nElectrons: 361.519115  magneticMoment: [ Abs: 0.00000  Tot: -0.00000 ]
	SubspaceRotationAdjust: set factor to 0.0562
ElecMinimize: Iter:   6  G: -2769.371718567062999  |grad|_K:  9.895e-08  alpha:  5.973e-01  linmin: -4.137e-05  t[s]:  52048.55
	Linear fluid (dielectric constant: 78.4, screening length: 8.12261 Bohr) occupying 0.376811 of unit cell:	Completed after 13 iterations at t[s]:  52077.79
	Linear fluid (dielectric constant: 78.4, screening length: 8.12261 Bohr) occupying 0.376826 of unit cell:	Completed after 11 iterations at t[s]:  52100.46
	FillingsUpdate:  mu: -0.097800000  nElectrons: 361.518387  magneticMoment: [ Abs: 0.00000  Tot: -0.00000 ]
	SubspaceRotationAdjust: set factor to 0.0485
ElecMinimize: Iter:   7  G: -2769.371720442425158  |grad|_K:  7.658e-08  alpha:  4.336e-01  linmin:  5.689e-05  t[s]:  52134.74
	Linear fluid (dielectric constant: 78.4, screening length: 8.12261 Bohr) occupying 0.376870 of unit cell:	Completed after 12 iterations at t[s]:  52163.87
	Linear fluid (dielectric constant: 78.4, screening length: 8.12261 Bohr) occupying 0.376867 of unit cell:	Completed after 2 iterations at t[s]:  52185.86
	FillingsUpdate:  mu: -0.097800000  nElectrons: 361.519043  magneticMoment: [ Abs: 0.00000  Tot: -0.00000 ]
	SubspaceRotationAdjust: set factor to 0.043
ElecMinimize: Iter:   8  G: -2769.371721479281405  |grad|_K:  5.197e-08  alpha:  4.042e-01  linmin:  1.717e-04  t[s]:  52220.16
	Linear fluid (dielectric constant: 78.4, screening length: 8.12261 Bohr) occupying 0.376871 of unit cell:	Completed after 7 iterations at t[s]:  52249.11
	Linear fluid (dielectric constant: 78.4, screening length: 8.12261 Bohr) occupying 0.376871 of unit cell:	Completed after 0 iterations at t[s]:  52271.04
	FillingsUpdate:  mu: -0.097800000  nElectrons: 361.519066  magneticMoment: [ Abs: 0.00000  Tot: -0.00000 ]
	SubspaceRotationAdjust: set factor to 0.0468
ElecMinimize: Iter:   9  G: -2769.371721950078154  |grad|_K:  3.392e-08  alpha:  4.004e-01  linmin: -1.217e-04  t[s]:  52305.31
	Linear fluid (dielectric constant: 78.4, screening length: 8.12261 Bohr) occupying 0.376879 of unit cell:	Completed after 2 iterations at t[s]:  52333.53
	Linear fluid (dielectric constant: 78.4, screening length: 8.12261 Bohr) occupying 0.376880 of unit cell:	Completed after 0 iterations at t[s]:  52355.37
	FillingsUpdate:  mu: -0.097800000  nElectrons: 361.519166  magneticMoment: [ Abs: 0.00000  Tot: -0.00000 ]
	SubspaceRotationAdjust: set factor to 0.0536
ElecMinimize: Iter:  10  G: -2769.371722172222690  |grad|_K:  2.308e-08  alpha:  4.375e-01  linmin: -4.155e-04  t[s]:  52389.72
	Linear fluid (dielectric constant: 78.4, screening length: 8.12261 Bohr) occupying 0.376890 of unit cell:	Completed after 2 iterations at t[s]:  52418.09
	Linear fluid (dielectric constant: 78.4, screening length: 8.12261 Bohr) occupying 0.376891 of unit cell:	Completed after 0 iterations at t[s]:  52439.71
	FillingsUpdate:  mu: -0.097800000  nElectrons: 361.519332  magneticMoment: [ Abs: 0.00000  Tot: -0.00000 ]
	SubspaceRotationAdjust: set factor to 0.0653
ElecMinimize: Iter:  11  G: -2769.371722288694855  |grad|_K:  1.728e-08  alpha:  4.910e-01  linmin: -1.844e-04  t[s]:  52473.85
	Linear fluid (dielectric constant: 78.4, screening length: 8.12261 Bohr) occupying 0.376903 of unit cell:	Completed after 7 iterations at t[s]:  52502.56
	Linear fluid (dielectric constant: 78.4, screening length: 8.12261 Bohr) occupying 0.376903 of unit cell:	Completed after 0 iterations at t[s]:  52524.18
	FillingsUpdate:  mu: -0.097800000  nElectrons: 361.519524  magneticMoment: [ Abs: 0.00000  Tot: -0.00000 ]
	SubspaceRotationAdjust: set factor to 0.0757
ElecMinimize: Iter:  12  G: -2769.371722352164397  |grad|_K:  1.482e-08  alpha:  4.811e-01  linmin: -1.198e-03  t[s]:  52559.34
	Linear fluid (dielectric constant: 78.4, screening length: 8.12261 Bohr) occupying 0.376904 of unit cell:	Completed after 6 iterations at t[s]:  52587.96
	Linear fluid (dielectric constant: 78.4, screening length: 8.12261 Bohr) occupying 0.376904 of unit cell:	Completed after 2 iterations at t[s]:  52609.73
	FillingsUpdate:  mu: -0.097800000  nElectrons: 361.519530  magneticMoment: [ Abs: 0.00000  Tot: +0.00000 ]
	SubspaceRotationAdjust: set factor to 0.0692
ElecMinimize: Iter:  13  G: -2769.371722389453225  |grad|_K:  1.249e-08  alpha:  3.769e-01  linmin:  5.320e-04  t[s]:  52643.99
ElecMinimize: Converged (|Delta G|<1.000000e-07 for 2 iters).
Setting wave functions to eigenvectors of Hamiltonian
Converging empty states (this may take a while): |deigs|: 1.188e-08

Computing DFT-D3 correction:
# coordination-number Ag 5.518 6.670 8.313 5.486 8.864 8.992 9.040 9.083 9.077 9.083 9.087 9.082 9.075 9.081 9.035 8.992 8.864 8.313 6.666
# diagonal-C6 Ag 268.61 268.61 268.61 268.61 268.61 268.61 268.61 268.61 268.61 268.61 268.61 268.61 268.61 268.61 268.61 268.61 268.61 268.61 268.61
EvdW_6 =   -0.129212
EvdW_8 =   -0.170790

# Ionic positions in cartesian coordinates:
ion Ag   0.004757926864702   7.464265048667693  65.961934060103715 1
ion Ag   2.713768082749746   3.061675017444273  64.479015601267065 1
ion Ag   2.716340853757457  10.656414648707123  62.626146158019203 1
ion Ag   2.707688309006175  11.795101639625420  34.261613136248521 1
ion Ag   0.003643780153195   6.221972683124881  60.732231290737737 1
ion Ag   2.712988395962485   1.865620827263262  59.013468886017570 1
ion Ag   2.713062318981612   9.332339311960123  57.231603680490174 1
ion Ag   0.000327052009687   4.969243588173540  55.438592836590054 1
ion Ag   2.715976435756366   0.616958764919218  53.673311212180536 1
ion Ag   2.712608184894631   8.081927236003022  51.899310091963578 1
ion Ag   0.001177469654048   3.730055677177201  50.120642294242124 1
ion Ag  -0.003976672754158  11.193897752162142  48.346098269734540 1
ion Ag   2.706036323040672   6.846130022222889  46.573525661659943 1
ion Ag  -0.000635884094741   2.493287300833953  44.800118912581532 1
ion Ag  -0.004350469442008   9.949130035970770  43.013211071127245 1
ion Ag   2.708289587104753   5.599244122156454  41.235728122076281 1
ion Ag  -0.006580400285018   1.243147885870901  39.496523338296946 1
ion Ag  -0.003948179446852   8.619772076194090  37.624934536721675 1
ion Ag   2.705072886087247   4.395704361523050  35.767392839941536 1

# Forces in Cartesian coordinates:
force Ag   0.000009929383067  -0.000040073059265   0.000351871476876 1
force Ag   0.000012558831459  -0.000040475158693   0.000144964030600 1
force Ag   0.000008451722989   0.000037134169528   0.000077743621196 1
force Ag  -0.000009856949667  -0.000042432227306   0.000151140058130 1
force Ag   0.000012699726108   0.000066951820811   0.000031936613236 1
force Ag   0.000010263269994   0.000062069645738   0.000008839012927 1
force Ag   0.000012941632053   0.000052085182343  -0.000013445751289 1
force Ag   0.000009600434917  -0.000012106442940   0.000031823615762 1
force Ag   0.000007314807932   0.000070115704034  -0.000001491333192 1
force Ag   0.000004769361072  -0.000034687049666  -0.000037470418768 1
force Ag   0.000003211908791   0.000019075572744  -0.000069267921595 1
force Ag   0.000002383463325   0.000079860731941  -0.000090841848385 1
force Ag  -0.000000360450122  -0.000031432694959  -0.000100426718719 1
force Ag  -0.000001862075487   0.000040970522258  -0.000029544284156 1
force Ag  -0.000003440487975  -0.000052143023026  -0.000080634629824 1
force Ag  -0.000004075931188  -0.000000667243006  -0.000086963081041 1
force Ag  -0.000006691826326  -0.000120825273197  -0.000189589612005 1
force Ag  -0.000006494612819   0.000048133393194  -0.000140192120256 1
force Ag  -0.000009325896166  -0.000060683319565   0.000094831426498 1

# Energy components:
   A_diel =       -0.1910949884340712
   Eewald =    15464.5487224023509043
       EH =    18034.3625758124799177
     Eloc =   -36743.8086027462559287
      Enl =       74.9016227767895373
     EvdW =       -0.3000021489242197
      Exc =     -275.4595384221478298
 Exc_core =        3.9552375571222154
       KE =      637.3066782860116746
  MuShift =       -0.0434853826957341
-------------------------------------
     Etot =    -2804.7278868537041490
       TS =        0.0004455284512317
-------------------------------------
        F =    -2804.7283323821552585
      muN =      -35.3566099927020403
-------------------------------------
        G =    -2769.3717223894532253


Dumping 'jdft.fillings' ... done
Dumping 'jdft.wfns' ... done
Dumping 'jdft.fluidState' ... done
Dumping 'jdft.ionpos' ... done
Dumping 'jdft.lattice' ... done
Dumping 'jdft.eigenvals' ... done
Dumping 'jdft.eigStats' ... 
	eMin: -3.482187 at state 0 ( [ +0.000000 +0.000000 +0.000000 ] spin 1 )
	HOMO: -0.099426 at state 83 ( [ +0.454545 -0.400000 +0.000000 ] spin -1 )
	mu  : -0.097800
	LUMO: -0.097393 at state 5 ( [ +0.090909 +0.000000 +0.000000 ] spin 1 )
	eMax: +0.245217 at state 106 ( [ -0.090909 +0.200000 +0.000000 ] spin -1 )
	HOMO-LUMO gap: +0.002033
	Optical gap  : +0.004679 at state 1 ( [ +0.000000 +0.200000 +0.000000 ] spin 1 )
Dumping 'jdft.Ecomponents' ... done
IonicMinimize: Iter:  13  G: -2769.371722389453225  |grad|_K:  7.694e-05  alpha:  1.705e+00  linmin: -2.848e-01  t[s]:  52731.02
IonicMinimize: Converged (|grad|_K<1.000000e-04).

#--- Lowdin population analysis ---
# oxidation-state Ag -0.110 -0.101 -0.083 -0.026 -0.005 -0.000 +0.003 +0.003 +0.001 +0.002 +0.004 +0.002 +0.001 +0.003 +0.003 +0.000 -0.006 -0.078 -0.045
# magnetic-moments Ag +0.000 -0.000 -0.000 -0.000 +0.000 -0.000 +0.000 +0.000 +0.000 +0.000 +0.000 -0.000 -0.000 +0.000 -0.000 +0.000 +0.000 +0.000 +0.000


Dumping 'jdft.n_up' ... done
Dumping 'jdft.n_dn' ... done
Dumping 'jdft.tau_up' ... done
Dumping 'jdft.tau_dn' ... done
Dumping 'jdft.eigenvals' ... done
Dumping 'jdft.eigStats' ... 
	eMin: -3.482187 at state 0 ( [ +0.000000 +0.000000 +0.000000 ] spin 1 )
	HOMO: -0.099426 at state 83 ( [ +0.454545 -0.400000 +0.000000 ] spin -1 )
	mu  : -0.097800
	LUMO: -0.097393 at state 5 ( [ +0.090909 +0.000000 +0.000000 ] spin 1 )
	eMax: +0.245217 at state 106 ( [ -0.090909 +0.200000 +0.000000 ] spin -1 )
	HOMO-LUMO gap: +0.002033
	Optical gap  : +0.004679 at state 1 ( [ +0.000000 +0.200000 +0.000000 ] spin 1 )
Dumping 'jdft.kPts' ... done
Dumping 'jdft.dosUp' ... done.
Dumping 'jdft.dosDn' ... done.
End date and time: Tue Dec  7 07:56:24 2021  (Duration: 0-14:39:45.24)
Done!
