
*************** JDFTx 1.6.0  ***************

Start date and time: Thu Dec  9 05:46:30 2021
Executable /projects/musgravc/apps/jdftx-1.6.1/build/jdftx with command-line: -i in
Running on hosts (process indices):  shas0222.rc.int.colorado.edu (0-23)
Divided in process groups (process indices):  0 (0)  1 (1)  2 (2)  3 (3)  4 (4)  5 (5)  6 (6)  7 (7)  8 (8)  9 (9)  10 (10)  11 (11)  12 (12)  13 (13)  14 (14)  15 (15)  16 (16)  17 (17)  18 (18)  19 (19)  20 (20)  21 (21)  22 (22)  23 (23)
Resource initialization completed at t[s]:      0.01
Run totals: 24 processes, 24 threads, 0 GPUs


Input parsed successfully to the following command list (including defaults):

basis kpoint-dependent
converge-empty-states yes
coords-type Cartesian
core-overlap-check none
coulomb-interaction Periodic
davidson-band-ratio 1.1
density-of-states Etol 1.000000e-06 Esigma 1.000000e-03 \
		Complete \
	Total \
	OrthoOrbital Pt 1   s \
	OrthoOrbital Pt 1   p \
	OrthoOrbital Pt 1   px \
	OrthoOrbital Pt 1   py \
	OrthoOrbital Pt 1   pz \
	OrthoOrbital Pt 1   d \
	OrthoOrbital Pt 1   dxy \
	OrthoOrbital Pt 1   dyz \
	OrthoOrbital Pt 1   dz2 \
	OrthoOrbital Pt 1   dxz \
	OrthoOrbital Pt 1   dx2-y2 \
	OrthoOrbital Pt 2   s \
	OrthoOrbital Pt 2   p \
	OrthoOrbital Pt 2   px \
	OrthoOrbital Pt 2   py \
	OrthoOrbital Pt 2   pz \
	OrthoOrbital Pt 2   d \
	OrthoOrbital Pt 2   dxy \
	OrthoOrbital Pt 2   dyz \
	OrthoOrbital Pt 2   dz2 \
	OrthoOrbital Pt 2   dxz \
	OrthoOrbital Pt 2   dx2-y2 \
	OrthoOrbital Pt 3   s \
	OrthoOrbital Pt 3   p \
	OrthoOrbital Pt 3   px \
	OrthoOrbital Pt 3   py \
	OrthoOrbital Pt 3   pz \
	OrthoOrbital Pt 3   d \
	OrthoOrbital Pt 3   dxy \
	OrthoOrbital Pt 3   dyz \
	OrthoOrbital Pt 3   dz2 \
	OrthoOrbital Pt 3   dxz \
	OrthoOrbital Pt 3   dx2-y2 \
	OrthoOrbital Pt 4   s \
	OrthoOrbital Pt 4   p \
	OrthoOrbital Pt 4   px \
	OrthoOrbital Pt 4   py \
	OrthoOrbital Pt 4   pz \
	OrthoOrbital Pt 4   d \
	OrthoOrbital Pt 4   dxy \
	OrthoOrbital Pt 4   dyz \
	OrthoOrbital Pt 4   dz2 \
	OrthoOrbital Pt 4   dxz \
	OrthoOrbital Pt 4   dx2-y2 \
	OrthoOrbital Pt 5   s \
	OrthoOrbital Pt 5   p \
	OrthoOrbital Pt 5   px \
	OrthoOrbital Pt 5   py \
	OrthoOrbital Pt 5   pz \
	OrthoOrbital Pt 5   d \
	OrthoOrbital Pt 5   dxy \
	OrthoOrbital Pt 5   dyz \
	OrthoOrbital Pt 5   dz2 \
	OrthoOrbital Pt 5   dxz \
	OrthoOrbital Pt 5   dx2-y2 \
	OrthoOrbital Pt 6   s \
	OrthoOrbital Pt 6   p \
	OrthoOrbital Pt 6   px \
	OrthoOrbital Pt 6   py \
	OrthoOrbital Pt 6   pz \
	OrthoOrbital Pt 6   d \
	OrthoOrbital Pt 6   dxy \
	OrthoOrbital Pt 6   dyz \
	OrthoOrbital Pt 6   dz2 \
	OrthoOrbital Pt 6   dxz \
	OrthoOrbital Pt 6   dx2-y2 \
	OrthoOrbital Pt 7   s \
	OrthoOrbital Pt 7   p \
	OrthoOrbital Pt 7   px \
	OrthoOrbital Pt 7   py \
	OrthoOrbital Pt 7   pz \
	OrthoOrbital Pt 7   d \
	OrthoOrbital Pt 7   dxy \
	OrthoOrbital Pt 7   dyz \
	OrthoOrbital Pt 7   dz2 \
	OrthoOrbital Pt 7   dxz \
	OrthoOrbital Pt 7   dx2-y2 \
	OrthoOrbital Pt 8   s \
	OrthoOrbital Pt 8   p \
	OrthoOrbital Pt 8   px \
	OrthoOrbital Pt 8   py \
	OrthoOrbital Pt 8   pz \
	OrthoOrbital Pt 8   d \
	OrthoOrbital Pt 8   dxy \
	OrthoOrbital Pt 8   dyz \
	OrthoOrbital Pt 8   dz2 \
	OrthoOrbital Pt 8   dxz \
	OrthoOrbital Pt 8   dx2-y2 \
	OrthoOrbital Pt 9   s \
	OrthoOrbital Pt 9   p \
	OrthoOrbital Pt 9   px \
	OrthoOrbital Pt 9   py \
	OrthoOrbital Pt 9   pz \
	OrthoOrbital Pt 9   d \
	OrthoOrbital Pt 9   dxy \
	OrthoOrbital Pt 9   dyz \
	OrthoOrbital Pt 9   dz2 \
	OrthoOrbital Pt 9   dxz \
	OrthoOrbital Pt 9   dx2-y2 \
	OrthoOrbital Pt 10   s \
	OrthoOrbital Pt 10   p \
	OrthoOrbital Pt 10   px \
	OrthoOrbital Pt 10   py \
	OrthoOrbital Pt 10   pz \
	OrthoOrbital Pt 10   d \
	OrthoOrbital Pt 10   dxy \
	OrthoOrbital Pt 10   dyz \
	OrthoOrbital Pt 10   dz2 \
	OrthoOrbital Pt 10   dxz \
	OrthoOrbital Pt 10   dx2-y2 \
	OrthoOrbital Pt 11   s \
	OrthoOrbital Pt 11   p \
	OrthoOrbital Pt 11   px \
	OrthoOrbital Pt 11   py \
	OrthoOrbital Pt 11   pz \
	OrthoOrbital Pt 11   d \
	OrthoOrbital Pt 11   dxy \
	OrthoOrbital Pt 11   dyz \
	OrthoOrbital Pt 11   dz2 \
	OrthoOrbital Pt 11   dxz \
	OrthoOrbital Pt 11   dx2-y2 \
	OrthoOrbital Pt 12   s \
	OrthoOrbital Pt 12   p \
	OrthoOrbital Pt 12   px \
	OrthoOrbital Pt 12   py \
	OrthoOrbital Pt 12   pz \
	OrthoOrbital Pt 12   d \
	OrthoOrbital Pt 12   dxy \
	OrthoOrbital Pt 12   dyz \
	OrthoOrbital Pt 12   dz2 \
	OrthoOrbital Pt 12   dxz \
	OrthoOrbital Pt 12   dx2-y2 \
	OrthoOrbital Pt 13   s \
	OrthoOrbital Pt 13   p \
	OrthoOrbital Pt 13   px \
	OrthoOrbital Pt 13   py \
	OrthoOrbital Pt 13   pz \
	OrthoOrbital Pt 13   d \
	OrthoOrbital Pt 13   dxy \
	OrthoOrbital Pt 13   dyz \
	OrthoOrbital Pt 13   dz2 \
	OrthoOrbital Pt 13   dxz \
	OrthoOrbital Pt 13   dx2-y2 \
	OrthoOrbital Pt 14   s \
	OrthoOrbital Pt 14   p \
	OrthoOrbital Pt 14   px \
	OrthoOrbital Pt 14   py \
	OrthoOrbital Pt 14   pz \
	OrthoOrbital Pt 14   d \
	OrthoOrbital Pt 14   dxy \
	OrthoOrbital Pt 14   dyz \
	OrthoOrbital Pt 14   dz2 \
	OrthoOrbital Pt 14   dxz \
	OrthoOrbital Pt 14   dx2-y2 \
	OrthoOrbital Pt 15   s \
	OrthoOrbital Pt 15   p \
	OrthoOrbital Pt 15   px \
	OrthoOrbital Pt 15   py \
	OrthoOrbital Pt 15   pz \
	OrthoOrbital Pt 15   d \
	OrthoOrbital Pt 15   dxy \
	OrthoOrbital Pt 15   dyz \
	OrthoOrbital Pt 15   dz2 \
	OrthoOrbital Pt 15   dxz \
	OrthoOrbital Pt 15   dx2-y2 \
	OrthoOrbital Pt 16   s \
	OrthoOrbital Pt 16   p \
	OrthoOrbital Pt 16   px \
	OrthoOrbital Pt 16   py \
	OrthoOrbital Pt 16   pz \
	OrthoOrbital Pt 16   d \
	OrthoOrbital Pt 16   dxy \
	OrthoOrbital Pt 16   dyz \
	OrthoOrbital Pt 16   dz2 \
	OrthoOrbital Pt 16   dxz \
	OrthoOrbital Pt 16   dx2-y2 \
	OrthoOrbital Pt 17   s \
	OrthoOrbital Pt 17   p \
	OrthoOrbital Pt 17   px \
	OrthoOrbital Pt 17   py \
	OrthoOrbital Pt 17   pz \
	OrthoOrbital Pt 17   d \
	OrthoOrbital Pt 17   dxy \
	OrthoOrbital Pt 17   dyz \
	OrthoOrbital Pt 17   dz2 \
	OrthoOrbital Pt 17   dxz \
	OrthoOrbital Pt 17   dx2-y2 \
	OrthoOrbital Pt 18   s \
	OrthoOrbital Pt 18   p \
	OrthoOrbital Pt 18   px \
	OrthoOrbital Pt 18   py \
	OrthoOrbital Pt 18   pz \
	OrthoOrbital Pt 18   d \
	OrthoOrbital Pt 18   dxy \
	OrthoOrbital Pt 18   dyz \
	OrthoOrbital Pt 18   dz2 \
	OrthoOrbital Pt 18   dxz \
	OrthoOrbital Pt 18   dx2-y2 \
	OrthoOrbital Pt 19   s \
	OrthoOrbital Pt 19   p \
	OrthoOrbital Pt 19   px \
	OrthoOrbital Pt 19   py \
	OrthoOrbital Pt 19   pz \
	OrthoOrbital Pt 19   d \
	OrthoOrbital Pt 19   dxy \
	OrthoOrbital Pt 19   dyz \
	OrthoOrbital Pt 19   dz2 \
	OrthoOrbital Pt 19   dxz \
	OrthoOrbital Pt 19   dx2-y2 \
	OrthoOrbital Pt 20   s \
	OrthoOrbital Pt 20   p \
	OrthoOrbital Pt 20   px \
	OrthoOrbital Pt 20   py \
	OrthoOrbital Pt 20   pz \
	OrthoOrbital Pt 20   d \
	OrthoOrbital Pt 20   dxy \
	OrthoOrbital Pt 20   dyz \
	OrthoOrbital Pt 20   dz2 \
	OrthoOrbital Pt 20   dxz \
	OrthoOrbital Pt 20   dx2-y2 \
	OrthoOrbital Pt 21   s \
	OrthoOrbital Pt 21   p \
	OrthoOrbital Pt 21   px \
	OrthoOrbital Pt 21   py \
	OrthoOrbital Pt 21   pz \
	OrthoOrbital Pt 21   d \
	OrthoOrbital Pt 21   dxy \
	OrthoOrbital Pt 21   dyz \
	OrthoOrbital Pt 21   dz2 \
	OrthoOrbital Pt 21   dxz \
	OrthoOrbital Pt 21   dx2-y2 \
	OrthoOrbital Pt 22   s \
	OrthoOrbital Pt 22   p \
	OrthoOrbital Pt 22   px \
	OrthoOrbital Pt 22   py \
	OrthoOrbital Pt 22   pz \
	OrthoOrbital Pt 22   d \
	OrthoOrbital Pt 22   dxy \
	OrthoOrbital Pt 22   dyz \
	OrthoOrbital Pt 22   dz2 \
	OrthoOrbital Pt 22   dxz \
	OrthoOrbital Pt 22   dx2-y2 \
	OrthoOrbital Pt 23   s \
	OrthoOrbital Pt 23   p \
	OrthoOrbital Pt 23   px \
	OrthoOrbital Pt 23   py \
	OrthoOrbital Pt 23   pz \
	OrthoOrbital Pt 23   d \
	OrthoOrbital Pt 23   dxy \
	OrthoOrbital Pt 23   dyz \
	OrthoOrbital Pt 23   dz2 \
	OrthoOrbital Pt 23   dxz \
	OrthoOrbital Pt 23   dx2-y2 \
	OrthoOrbital Pt 24   s \
	OrthoOrbital Pt 24   p \
	OrthoOrbital Pt 24   px \
	OrthoOrbital Pt 24   py \
	OrthoOrbital Pt 24   pz \
	OrthoOrbital Pt 24   d \
	OrthoOrbital Pt 24   dxy \
	OrthoOrbital Pt 24   dyz \
	OrthoOrbital Pt 24   dz2 \
	OrthoOrbital Pt 24   dxz \
	OrthoOrbital Pt 24   dx2-y2 \
	OrthoOrbital Pt 25   s \
	OrthoOrbital Pt 25   p \
	OrthoOrbital Pt 25   px \
	OrthoOrbital Pt 25   py \
	OrthoOrbital Pt 25   pz \
	OrthoOrbital Pt 25   d \
	OrthoOrbital Pt 25   dxy \
	OrthoOrbital Pt 25   dyz \
	OrthoOrbital Pt 25   dz2 \
	OrthoOrbital Pt 25   dxz \
	OrthoOrbital Pt 25   dx2-y2 \
	OrthoOrbital Pt 26   s \
	OrthoOrbital Pt 26   p \
	OrthoOrbital Pt 26   px \
	OrthoOrbital Pt 26   py \
	OrthoOrbital Pt 26   pz \
	OrthoOrbital Pt 26   d \
	OrthoOrbital Pt 26   dxy \
	OrthoOrbital Pt 26   dyz \
	OrthoOrbital Pt 26   dz2 \
	OrthoOrbital Pt 26   dxz \
	OrthoOrbital Pt 26   dx2-y2
dump End ElecDensity KEdensity BandEigs EigStats RhoAtom DOS Kpoints
dump Ionic State IonicPositions Lattice EigStats Ecomponents
dump 
dump 
dump 
dump 
dump 
dump 
dump 
dump 
dump-name jdft.$VAR
elec-cutoff 20
elec-eigen-algo Davidson
elec-ex-corr gga-PBE
elec-initial-magnetization 0.000000 no
elec-n-bands 250
elec-smearing Fermi 0.001
electronic-minimize  \
	dirUpdateScheme      FletcherReeves \
	linminMethod         DirUpdateRecommended \
	nIterations          100 \
	history              15 \
	knormThreshold       0 \
	energyDiffThreshold  1e-07 \
	nEnergyDiff          2 \
	alphaTstart          1 \
	alphaTmin            1e-10 \
	updateTestStepSize   yes \
	alphaTreduceFactor   0.1 \
	alphaTincreaseFactor 3 \
	nAlphaAdjustMax      3 \
	wolfeEnergy          0.0001 \
	wolfeGradient        0.9 \
	fdTest               no
exchange-regularization WignerSeitzTruncated
fluid LinearPCM 298.000000 1.013250
fluid-anion F- 0.5 MeanFieldLJ \
	epsBulk 1 \
	pMol 0 \
	epsInf 1 \
	Pvap 0 \
	sigmaBulk 0 \
	Rvdw 2.24877 \
	Res 0 \
	tauNuc 343133
fluid-cation Na+ 0.5 MeanFieldLJ \
	epsBulk 1 \
	pMol 0 \
	epsInf 1 \
	Pvap 0 \
	sigmaBulk 0 \
	Rvdw 2.19208 \
	Res 0 \
	tauNuc 343133
fluid-ex-corr lda-TF lda-PZ
fluid-gummel-loop 10 1.000000e-05
fluid-minimize  \
	dirUpdateScheme      PolakRibiere \
	linminMethod         DirUpdateRecommended \
	nIterations          400 \
	history              15 \
	knormThreshold       1e-11 \
	energyDiffThreshold  0 \
	nEnergyDiff          2 \
	alphaTstart          1 \
	alphaTmin            1e-10 \
	updateTestStepSize   yes \
	alphaTreduceFactor   0.1 \
	alphaTincreaseFactor 3 \
	nAlphaAdjustMax      6 \
	wolfeEnergy          0.0001 \
	wolfeGradient        0.9 \
	fdTest               no
fluid-solvent H2O 55.338 ScalarEOS \
	epsBulk 78.4 \
	pMol 0.92466 \
	epsInf 1.77 \
	Pvap 1.06736e-10 \
	sigmaBulk 4.62e-05 \
	Rvdw 2.61727 \
	Res 1.42 \
	tauNuc 343133 \
	poleEl 15 7 1
forces-output-coords Positions
initial-state jdft.$VAR
ion Pt   0.001957389460199  10.235152871911879  24.358849180268233 1
ion Pt   0.001763462315660   4.096269076402971  19.966313176010690 1
ion Pt   3.703706579110473   7.302262376685069  22.276113702778758 1
ion Pt   3.697923110641216   1.002211294260805  17.927844957796072 1
ion Pt  -0.001655571089760   8.211972158034907  13.877258058553698 1
ion Pt   0.002233339460320   2.051699773070772   9.732240536146831 1
ion Pt   3.696548020126807  11.267059878857458  15.904046935621412 1
ion Pt   3.700774046064976   5.131337967700235  11.791984145881262 1
ion Pt  -0.000037265512169  12.355357263607923   7.633280222023103 1
ion Pt  -0.000843321074312   6.110918367495640   3.490474354072775 1
ion Pt   0.003143733399179  -0.020139394960577  25.885994177230625 1
ion Pt   3.699416850342954   9.242140383933361   5.728649274202340 1
ion Pt   3.696147392808486   3.050458514047929   1.682567235035061 1
ion Pt   3.699723098703986  12.305662626582496  20.949530414754399 1
ion Pt   3.697324866771651   6.156700708434215  16.945502621857472 1
ion Pt  -0.000030445790800   9.192040434802726  19.044795735320143 1
ion Pt  -0.001248039800062   3.076955742751752  14.885241969868170 1
ion Pt   3.702675511362443  10.280139584239739  10.773296032982733 1
ion Pt   3.697701592922923   4.111947838815179   6.711765207725870 1
ion Pt   0.001644218132340  13.335334624437797  12.799907140915655 1
ion Pt   0.001631591708747   7.205875682670045   8.749937922922280 1
ion Pt  -0.004182539917575   0.906578093195602   4.402307637367633 1
ion Pt   3.696548617210683   8.229171303413175   0.793088217520267 1
ion Pt   3.700443837459821   2.098234719708115  23.187957944262141 1
ion Pt  -0.001769823042256  11.313032914738571   2.319626678379560 1
ion Pt   0.003407748224063   5.158924195162162  24.995901520502763 1
ion-species /projects/musgravc/apps/jdftx-1.6.0/build/pseudopotentials/GBRV_v1.5/$ID_pbe_v1.uspp
ion-species /projects/musgravc/apps/jdftx-1.6.0/build/pseudopotentials/GBRV_v1.5/$ID_pbe_v1.2.uspp
ion-species /projects/musgravc/apps/jdftx-1.6.0/build/pseudopotentials/GBRV_v1.5/$ID_pbe_v1.4.uspp
ion-species /projects/musgravc/apps/jdftx-1.6.0/build/pseudopotentials/GBRV_v1.5/$ID_pbe_v1.5.uspp
ion-width Ecut
ionic-minimize  \
	dirUpdateScheme      L-BFGS \
	linminMethod         DirUpdateRecommended \
	nIterations          100 \
	history              15 \
	knormThreshold       0.0001 \
	energyDiffThreshold  1e-06 \
	nEnergyDiff          2 \
	alphaTstart          1 \
	alphaTmin            1e-10 \
	updateTestStepSize   yes \
	alphaTreduceFactor   0.1 \
	alphaTincreaseFactor 3 \
	nAlphaAdjustMax      3 \
	wolfeEnergy          0.0001 \
	wolfeGradient        0.9 \
	fdTest               no
kpoint   0.000000000000   0.000000000000   0.000000000000  1.00000000000000
kpoint-folding 9 4 1 
latt-move-scale 0 0 0
latt-scale 1 1 1 
lattice  \
	   7.399158000000000   -3.699579000000000    0.000000000000000  \
	   0.000000000000000   13.339022999999999    0.000000000000000  \
	   0.000000000000000    0.000000000000000   80.034133999999995 
lattice-minimize  \
	dirUpdateScheme      L-BFGS \
	linminMethod         DirUpdateRecommended \
	nIterations          0 \
	history              15 \
	knormThreshold       0 \
	energyDiffThreshold  1e-06 \
	nEnergyDiff          2 \
	alphaTstart          1 \
	alphaTmin            1e-10 \
	updateTestStepSize   yes \
	alphaTreduceFactor   0.1 \
	alphaTincreaseFactor 3 \
	nAlphaAdjustMax      3 \
	wolfeEnergy          0.0001 \
	wolfeGradient        0.9 \
	fdTest               no
lcao-params 30 1e-06 0.001
pcm-variant CANDLE
spintype z-spin
subspace-rotation-factor 1 yes
symmetries none
symmetry-threshold 0.0001
target-mu -0.1713 no

van-der-waals D3


Applied RMS atom displacement 0 bohrs to make symmetries exact.

---------- Initializing the Grid ----------
R = 
[      7.39916     -3.69958            0  ]
[            0       13.339            0  ]
[            0            0      80.0341  ]
unit cell volume = 7899.17
G =
[   0.849176   0.235519         -0  ]
[          0   0.471038          0  ]
[          0         -0  0.0785063  ]
Minimum fftbox size, Smin = [  32  56  324  ]
Chosen fftbox size, S = [  32  56  324  ]

---------- Exchange Correlation functional ----------
Initalized PBE GGA exchange.
Initalized PBE GGA correlation.

---------- Setting up pseudopotentials ----------
Width of ionic core gaussian charges (only for fluid interactions / plotting) set to 0.397384

Reading pseudopotential file '/projects/musgravc/apps/jdftx-1.6.0/build/pseudopotentials/GBRV_v1.5/pt_pbe_v1.4.uspp':
  Title: Pt.  Created by USPP 7.3.6 on 31-3-15
  Reference state energy: -105.002503.  16 valence electrons in orbitals:
    |510>  occupation: 6  eigenvalue: -2.158104
    |520>  occupation: 9.5  eigenvalue: -0.335376
    |600>  occupation: 0  eigenvalue: -0.319640
    |610>  occupation: 0  eigenvalue: -0.122947
  lMax: 2  lLocal: 3  QijEcut: 5.5
  6 projectors sampled on a log grid with 745 points:
    l: 0  eig: -0.319640  rCut: 2.45
    l: 0  eig: 1.500000  rCut: 2.45
    l: 1  eig: -2.158104  rCut: 1.6
    l: 1  eig: -0.122947  rCut: 1.6
    l: 2  eig: -0.500000  rCut: 1.6
    l: 2  eig: -0.335375  rCut: 1.6
  Partial core density with radius 1.1
  Transforming core density to a uniform radial grid of dG=0.02 with 1264 points.
  Transforming local potential to a uniform radial grid of dG=0.02 with 1264 points.
  Transforming nonlocal projectors to a uniform radial grid of dG=0.02 with 432 points.
  Transforming density augmentations to a uniform radial grid of dG=0.02 with 1264 points.
  Transforming atomic orbitals to a uniform radial grid of dG=0.02 with 432 points.
  Core radius for overlap checks: 2.45 bohrs.

Initialized 1 species with 26 total atoms.

Folded 1 k-points by 9x4x1 to 36 k-points.

---------- Setting up k-points, bands, fillings ----------
No reducable k-points. 
Computing the number of bands and number of electrons
Reading initial fillings from file jdft.fillings.
nElectrons: 416.258876   nBands: 250   nStates: 72

----- Setting up reduced wavefunction bases (one per k-point) -----
average nbasis = 33742.806 , ideal nbasis = 33745.865

----- Initializing Supercell corresponding to k-point mesh -----
Lattice vector linear combinations in supercell:
[   9   0   0  ]
[   0   4   0  ]
[   0   0   1  ]
Supercell lattice vectors:
[  66.5924  -14.7983  0  ]
[  0  53.3561  0  ]
[  0  0  80.0341  ]

Initializing DFT-D3 calculator:
	Parameters set for gga-PBE functional
	s6:  1.000  s_r6:  1.217
	s8:  0.722  s_r8:  1.000
	Per-atom parameters loaded for:
	Pt:  sqrtQ[a0]:  5.888  Rcov[a0]:  2.116  CN: [ 0.00 1.92 6.67 ]

Initializing DFT-D2 calculator for fluid / solvation:
	Pt:  C6:  815.23 Eh-a0^6  R0: 3.326 a0 (WARNING: beyond Grimme's data set)

---------- Setting up ewald sum ----------
Optimum gaussian width for ewald sums = 4.616098 bohr.
Real space sum over 935 unit cells with max indices [  8  5  2  ]
Reciprocal space sum over 6669 terms with max indices [  4  6  28  ]

Computing DFT-D3 correction:
# coordination-number Pt 7.007 9.388 8.581 9.503 9.537 9.448 9.566 9.550 9.391 8.610 5.276 9.390 5.971 9.389 9.446 9.389 9.549 9.568 9.389 9.537 9.504 8.582 5.277 8.609 7.008 5.971
# diagonal-C6 Pt 336.87 336.87 336.87 336.87 336.87 336.87 336.87 336.87 336.87 336.87 336.87 336.87 336.87 336.87 336.87 336.87 336.87 336.87 336.87 336.87 336.87 336.87 336.87 336.87 336.87 336.87
EvdW_6 =   -0.233112
EvdW_8 =   -0.375998

---------- Allocating electronic variables ----------
Initializing wave functions:  reading from 'jdft.wfns'
----- createFluidSolver() ----- (Fluid-side solver setup)
   Initializing fluid molecule 'H2O'
     Initializing site 'O'
       Electron density: proportional to exp(-r/0.36935)*erfc((r-0.51523)/0.36823) with norm 6.826
       Charge density: gaussian nuclear width 0.478731 with net site charge 0.826
       Polarizability: cuspless exponential with width 0.32 and norm 3.73
       Hard sphere radius: 2.57003 bohrs
       Positions in reference frame:
         [ +0.000000 +0.000000 +0.000000 ]
     Initializing site 'H'
       Electron density: proportional to exp(-r/0.34641)*erfc((r-0)/0.390882) with norm 0.587
       Charge density: gaussian nuclear width 0.377945 with net site charge -0.413
       Polarizability: cuspless exponential with width 0.39 and norm 3.3
       Positions in reference frame:
         [ +0.000000 -1.441945 +1.122523 ]
         [ +0.000000 +1.441945 +1.122523 ]
     Net charge: 0   dipole magnitude: 0.927204
     Initializing spherical shell mfKernel with radius 2.61727 Bohr
     deltaS corrections:
       site 'O': -7.54299
       site 'H': -6.83917
   Initializing fluid molecule 'Na+'
     Initializing site 'Na'
       Electron density: proportional to exp(-r/0.19682)*erfc((r-0.71491)/0.41314) with norm 8.1383
       Charge density: gaussian nuclear width 0.365347 with net site charge -1
       Hard sphere radius: 1.86327 bohrs
       Positions in reference frame:
         [ +0.000000 +0.000000 +0.000000 ]
     Net charge: -1   dipole magnitude: 0
     Initializing gaussian mfKernel with width: 1.55004 Bohr
     deltaS corrections:
       site 'Na': -22.3555
   Initializing fluid molecule 'F-'
     Initializing site 'F'
       Electron density: proportional to exp(-r/0.38886)*erfc((r-0)/0.438782) with norm 8
       Charge density: gaussian nuclear width 0.374796 with net site charge 1
       Hard sphere radius: 2.39995 bohrs
       Positions in reference frame:
         [ +0.000000 +0.000000 +0.000000 ]
     Net charge: 1   dipole magnitude: 0
     Initializing gaussian mfKernel with width: 1.59012 Bohr
     deltaS corrections:
       site 'F': -9.04335

Correction to mu due to finite nuclear width = -0.052253
   Cavity determined by nc: 0.00142 and sigma: 0.707107
   Nonlocal vdW cavity from gaussian model electron density with norm = 8 and sigma = 0.993594 bohr
   Charge asymmetry in cavity with sensitivity pCavity = 36.5 e-bohr/Eh
   Electrostatic cavity expanded by eta = 1.46 bohrs
   Weighted density cavitation model constrained by Nbulk: 0.0049383 bohr^-3, Pvap: 3.14029 kPa, Rvdw: 2.61727 bohr and sigmaBulk: 4.62e-05 Eh/bohr^2 at T: 298 K.
   Weighted density dispersion model using vdW pair potentials with single solvent site with sqrtC6eff: 0.77 SI.
Reading fluid state from 'jdft.fluidState'


---- Citations for features of the code used in this run ----

   Software package:
      R. Sundararaman, K. Letchworth-Weaver, K.A. Schwarz, D. Gunceler, Y. Ozhabes and T.A. Arias, 'JDFTx: software for joint density-functional theory', SoftwareX 6, 278 (2017)

   gga-PBE exchange-correlation functional:
      J.P. Perdew, K. Burke and M. Ernzerhof, Phys. Rev. Lett. 77, 3865 (1996)

   Pseudopotentials:
      KF Garrity, JW Bennett, KM Rabe and D Vanderbilt, Comput. Mater. Sci. 81, 446 (2014)

   DFT-D3 dispersion correction:
      S. Grimme, J. Antony, S. Ehrlich and H. Krieg, J. Chem. Phys. 132, 154104 (2010)

   DFT-D2 dispersion correction:
      S. Grimme, J. Comput. Chem. 27, 1787 (2006)

   Charge-asymmetric nonlocally-determined local-electric (CANDLE) solvation model:
      R. Sundararaman and W.A. Goddard III, J. Chem. Phys. 142, 064107 (2015)

   Total energy minimization with Auxiliary Hamiltonian:
      C. Freysoldt, S. Boeck, and J. Neugebauer, Phys. Rev. B 79, 241103(R) (2009)

   Grand-canonical (fixed-potential) DFT:
      R. Sundararaman, W. A. Goddard III and T. A. Arias, J. Chem. Phys. 146, 114104 (2017)

   Linear-tetrahedron sampling for density of states:
      G. Lehmann and M. Taut, Phys. status solidi (b) 54, 469 (1972)

This list may not be complete. Please suggest additional citations or
report any other bugs at https://github.com/shankar1729/jdftx/issues

Initialization completed successfully at t[s]:     24.48


Computing DFT-D3 correction:
# coordination-number Pt 7.007 9.388 8.581 9.503 9.537 9.448 9.566 9.550 9.391 8.610 5.276 9.390 5.971 9.389 9.446 9.389 9.549 9.568 9.389 9.537 9.504 8.582 5.277 8.609 7.008 5.971
# diagonal-C6 Pt 336.87 336.87 336.87 336.87 336.87 336.87 336.87 336.87 336.87 336.87 336.87 336.87 336.87 336.87 336.87 336.87 336.87 336.87 336.87 336.87 336.87 336.87 336.87 336.87 336.87 336.87
EvdW_6 =   -0.233112
EvdW_8 =   -0.375998
Shifting auxilliary hamiltonian by 0.000033 to set nElectrons=416.258876

-------- Electronic minimization -----------
	Linear fluid (dielectric constant: 78.4, screening length: 8.12261 Bohr) occupying 0.559950 of unit cell:	Completed after 13 iterations at t[s]:     40.76
	FillingsUpdate:  mu: -0.171300000  nElectrons: 416.258876  magneticMoment: [ Abs: 0.00000  Tot: -0.00000 ]
ElecMinimize: Iter:   0  G: -2241.962205906740110  |grad|_K:  2.166e-06  alpha:  1.000e+00
	Linear fluid (dielectric constant: 78.4, screening length: 8.12261 Bohr) occupying 0.556711 of unit cell:	Completed after 26 iterations at t[s]:    141.29
	Linear fluid (dielectric constant: 78.4, screening length: 8.12261 Bohr) occupying 0.559827 of unit cell:	Completed after 26 iterations at t[s]:    175.13
	FillingsUpdate:  mu: -0.171300000  nElectrons: 416.254738  magneticMoment: [ Abs: 0.00000  Tot: -0.00000 ]
	SubspaceRotationAdjust: set factor to 0.525
ElecMinimize: Iter:   1  G: -2241.962212254966289  |grad|_K:  8.771e-07  alpha:  1.846e-03  linmin: -3.535e-02  t[s]:    223.00
	Linear fluid (dielectric constant: 78.4, screening length: 8.12261 Bohr) occupying 0.559810 of unit cell:	Completed after 10 iterations at t[s]:    264.89
ElecMinimize: 	Predicted alpha/alphaT>3.000000, increasing alphaT to 5.536660e-03.
	Linear fluid (dielectric constant: 78.4, screening length: 8.12261 Bohr) occupying 0.559777 of unit cell:	Completed after 10 iterations at t[s]:    296.54
	Linear fluid (dielectric constant: 78.4, screening length: 8.12261 Bohr) occupying 0.559757 of unit cell:	Completed after 9 iterations at t[s]:    328.00
	FillingsUpdate:  mu: -0.171300000  nElectrons: 416.252368  magneticMoment: [ Abs: 0.00000  Tot: -0.00000 ]
	SubspaceRotationAdjust: set factor to 0.267
ElecMinimize: Iter:   2  G: -2241.962216625134715  |grad|_K:  1.171e-06  alpha:  7.770e-03  linmin: -3.087e-05  t[s]:    375.30
	Linear fluid (dielectric constant: 78.4, screening length: 8.12261 Bohr) occupying 0.559860 of unit cell:	Completed after 12 iterations at t[s]:    417.80
	Linear fluid (dielectric constant: 78.4, screening length: 8.12261 Bohr) occupying 0.559860 of unit cell:	Completed after 0 iterations at t[s]:    447.81
	FillingsUpdate:  mu: -0.171300000  nElectrons: 416.255867  magneticMoment: [ Abs: 0.00000  Tot: -0.00000 ]
	SubspaceRotationAdjust: set factor to 0.137
ElecMinimize: Iter:   3  G: -2241.962223096767957  |grad|_K:  6.728e-07  alpha:  7.739e-03  linmin:  1.072e-04  t[s]:    494.87
	Linear fluid (dielectric constant: 78.4, screening length: 8.12261 Bohr) occupying 0.559970 of unit cell:	Completed after 12 iterations at t[s]:    537.36
	Linear fluid (dielectric constant: 78.4, screening length: 8.12261 Bohr) occupying 0.559955 of unit cell:	Completed after 6 iterations at t[s]:    568.44
	FillingsUpdate:  mu: -0.171300000  nElectrons: 416.259080  magneticMoment: [ Abs: 0.00000  Tot: -0.00000 ]
	SubspaceRotationAdjust: set factor to 0.0764
	SubspaceRotationAdjust: resetting CG because factor has changed by 0.0764119
	Linear fluid (dielectric constant: 78.4, screening length: 8.12261 Bohr) occupying 0.559955 of unit cell:	Completed after 0 iterations at t[s]:    628.84
ElecMinimize: 	State modified externally: resetting search direction.
ElecMinimize: Iter:   4  G: -2241.962224944424179  |grad|_K:  2.336e-07  alpha:  6.727e-03
	Linear fluid (dielectric constant: 78.4, screening length: 8.12261 Bohr) occupying 0.559952 of unit cell:	Completed after 2 iterations at t[s]:    717.14
ElecMinimize: 	Predicted alpha/alphaT>3.000000, increasing alphaT to 2.018229e-02.
	Linear fluid (dielectric constant: 78.4, screening length: 8.12261 Bohr) occupying 0.559946 of unit cell:	Completed after 7 iterations at t[s]:    748.28
ElecMinimize: 	Predicted alpha/alphaT>3.000000, increasing alphaT to 6.054686e-02.
	Linear fluid (dielectric constant: 78.4, screening length: 8.12261 Bohr) occupying 0.559928 of unit cell:	Completed after 9 iterations at t[s]:    779.67
	Linear fluid (dielectric constant: 78.4, screening length: 8.12261 Bohr) occupying 0.559913 of unit cell:	Completed after 9 iterations at t[s]:    811.44
	FillingsUpdate:  mu: -0.171300000  nElectrons: 416.257671  magneticMoment: [ Abs: 0.00000  Tot: -0.00000 ]
	SubspaceRotationAdjust: set factor to 0.047
ElecMinimize: Iter:   5  G: -2241.962228040153150  |grad|_K:  1.157e-07  alpha:  9.296e-02  linmin: -5.840e-04  t[s]:    858.58
	Linear fluid (dielectric constant: 78.4, screening length: 8.12261 Bohr) occupying 0.559986 of unit cell:	Completed after 11 iterations at t[s]:    901.11
	Linear fluid (dielectric constant: 78.4, screening length: 8.12261 Bohr) occupying 0.559944 of unit cell:	Completed after 10 iterations at t[s]:    932.60
	FillingsUpdate:  mu: -0.171300000  nElectrons: 416.258696  magneticMoment: [ Abs: 0.00000  Tot: -0.00000 ]
	SubspaceRotationAdjust: set factor to 0.0314
ElecMinimize: Iter:   6  G: -2241.962228372446134  |grad|_K:  6.413e-08  alpha:  3.923e-02  linmin:  6.776e-05  t[s]:    980.04
	Linear fluid (dielectric constant: 78.4, screening length: 8.12261 Bohr) occupying 0.559943 of unit cell:	Completed after 2 iterations at t[s]:   1021.28
ElecMinimize: 	Predicted alpha/alphaT>3.000000, increasing alphaT to 1.176796e-01.
	Linear fluid (dielectric constant: 78.4, screening length: 8.12261 Bohr) occupying 0.559940 of unit cell:	Completed after 2 iterations at t[s]:   1051.80
	Linear fluid (dielectric constant: 78.4, screening length: 8.12261 Bohr) occupying 0.559935 of unit cell:	Completed after 3 iterations at t[s]:   1082.48
	FillingsUpdate:  mu: -0.171300000  nElectrons: 416.258386  magneticMoment: [ Abs: 0.00000  Tot: -0.00000 ]
	SubspaceRotationAdjust: set factor to 0.0265
ElecMinimize: Iter:   7  G: -2241.962229062864026  |grad|_K:  4.232e-08  alpha:  2.847e-01  linmin:  5.116e-03  t[s]:   1129.63
	Linear fluid (dielectric constant: 78.4, screening length: 8.12261 Bohr) occupying 0.559880 of unit cell:	Completed after 10 iterations at t[s]:   1171.89
	Linear fluid (dielectric constant: 78.4, screening length: 8.12261 Bohr) occupying 0.559920 of unit cell:	Completed after 11 iterations at t[s]:   1203.88
	FillingsUpdate:  mu: -0.171300000  nElectrons: 416.257870  magneticMoment: [ Abs: 0.00000  Tot: -0.00000 ]
	SubspaceRotationAdjust: set factor to 0.018
ElecMinimize: Iter:   8  G: -2241.962229132382618  |grad|_K:  3.014e-08  alpha:  7.858e-02  linmin:  3.532e-03  t[s]:   1252.03
	Linear fluid (dielectric constant: 78.4, screening length: 8.12261 Bohr) occupying 0.559920 of unit cell:	Completed after 2 iterations at t[s]:   1293.24
ElecMinimize: 	Predicted alpha/alphaT>3.000000, increasing alphaT to 2.357358e-01.
	Linear fluid (dielectric constant: 78.4, screening length: 8.12261 Bohr) occupying 0.559921 of unit cell:	Completed after 2 iterations at t[s]:   1323.69
	Linear fluid (dielectric constant: 78.4, screening length: 8.12261 Bohr) occupying 0.559921 of unit cell:	Completed after 0 iterations at t[s]:   1353.71
	FillingsUpdate:  mu: -0.171300000  nElectrons: 416.257917  magneticMoment: [ Abs: 0.00000  Tot: -0.00000 ]
	SubspaceRotationAdjust: set factor to 0.0145
ElecMinimize: Iter:   9  G: -2241.962229278964060  |grad|_K:  2.201e-08  alpha:  2.709e-01  linmin: -6.313e-03  t[s]:   1400.91
	Linear fluid (dielectric constant: 78.4, screening length: 8.12261 Bohr) occupying 0.559945 of unit cell:	Completed after 9 iterations at t[s]:   1443.02
	Linear fluid (dielectric constant: 78.4, screening length: 8.12261 Bohr) occupying 0.559934 of unit cell:	Completed after 5 iterations at t[s]:   1474.09
	FillingsUpdate:  mu: -0.171300000  nElectrons: 416.258330  magneticMoment: [ Abs: 0.00000  Tot: -0.00000 ]
	SubspaceRotationAdjust: set factor to 0.0101
	SubspaceRotationAdjust: resetting CG because factor has changed by 0.131994
	Linear fluid (dielectric constant: 78.4, screening length: 8.12261 Bohr) occupying 0.559934 of unit cell:	Completed after 0 iterations at t[s]:   1534.60
ElecMinimize: 	State modified externally: resetting search direction.
ElecMinimize: Iter:  10  G: -2241.962229326424676  |grad|_K:  1.484e-08  alpha:  1.417e-01
	Linear fluid (dielectric constant: 78.4, screening length: 8.12261 Bohr) occupying 0.559931 of unit cell:	Completed after 2 iterations at t[s]:   1622.54
	Linear fluid (dielectric constant: 78.4, screening length: 8.12261 Bohr) occupying 0.559928 of unit cell:	Completed after 4 iterations at t[s]:   1653.42
	FillingsUpdate:  mu: -0.171300000  nElectrons: 416.258140  magneticMoment: [ Abs: 0.00000  Tot: -0.00000 ]
	SubspaceRotationAdjust: set factor to 0.0121
ElecMinimize: Iter:  11  G: -2241.962229358411150  |grad|_K:  7.935e-09  alpha:  2.675e-01  linmin:  1.684e-02  t[s]:   1700.54
ElecMinimize: Converged (|Delta G|<1.000000e-07 for 2 iters).
Setting wave functions to eigenvectors of Hamiltonian
Converging empty states (this may take a while): |deigs|: 3.164e-09

Computing DFT-D3 correction:
# coordination-number Pt 7.007 9.388 8.581 9.503 9.537 9.448 9.566 9.550 9.391 8.610 5.276 9.390 5.971 9.389 9.446 9.389 9.549 9.568 9.389 9.537 9.504 8.582 5.277 8.609 7.008 5.971
# diagonal-C6 Pt 336.87 336.87 336.87 336.87 336.87 336.87 336.87 336.87 336.87 336.87 336.87 336.87 336.87 336.87 336.87 336.87 336.87 336.87 336.87 336.87 336.87 336.87 336.87 336.87 336.87 336.87
EvdW_6 =   -0.233112
EvdW_8 =   -0.375998

# Ionic positions in cartesian coordinates:
ion Pt   0.001957389460199  10.235152871911879  24.358849180268233 1
ion Pt   0.001763462315660   4.096269076402971  19.966313176010690 1
ion Pt   3.703706579110473   7.302262376685069  22.276113702778758 1
ion Pt   3.697923110641216   1.002211294260805  17.927844957796072 1
ion Pt  -0.001655571089760   8.211972158034907  13.877258058553698 1
ion Pt   0.002233339460320   2.051699773070772   9.732240536146831 1
ion Pt   3.696548020126807  11.267059878857458  15.904046935621412 1
ion Pt   3.700774046064976   5.131337967700235  11.791984145881262 1
ion Pt  -0.000037265512169  12.355357263607923   7.633280222023103 1
ion Pt  -0.000843321074312   6.110918367495640   3.490474354072775 1
ion Pt   0.003143733399179  -0.020139394960577  25.885994177230625 1
ion Pt   3.699416850342954   9.242140383933361   5.728649274202340 1
ion Pt   3.696147392808486   3.050458514047929   1.682567235035061 1
ion Pt   3.699723098703986  12.305662626582496  20.949530414754399 1
ion Pt   3.697324866771651   6.156700708434215  16.945502621857472 1
ion Pt  -0.000030445790800   9.192040434802726  19.044795735320143 1
ion Pt  -0.001248039800062   3.076955742751752  14.885241969868170 1
ion Pt   3.702675511362443  10.280139584239739  10.773296032982733 1
ion Pt   3.697701592922923   4.111947838815179   6.711765207725870 1
ion Pt   0.001644218132340  13.335334624437797  12.799907140915655 1
ion Pt   0.001631591708747   7.205875682670045   8.749937922922280 1
ion Pt  -0.004182539917575   0.906578093195602   4.402307637367633 1
ion Pt   3.696548617210683   8.229171303413175   0.793088217520267 1
ion Pt   3.700443837459821   2.098234719708115  23.187957944262141 1
ion Pt  -0.001769823042256  11.313032914738571   2.319626678379560 1
ion Pt   0.003407748224063   5.158924195162162  24.995901520502763 1

# Forces in Cartesian coordinates:
force Pt   0.000053522507464   0.000103159278519   0.000009970694303 1
force Pt   0.000005238579567   0.000279419439313  -0.000292276225899 1
force Pt  -0.000001139996739   0.000207945406561  -0.000127160820177 1
force Pt   0.000004858479289   0.000121088305422  -0.000413388438817 1
force Pt   0.000005954216730   0.000007755598548   0.000159953522244 1
force Pt   0.000001913929164   0.000066992074418  -0.000304240315085 1
force Pt   0.000002247848549   0.000054994929429  -0.000027193248848 1
force Pt  -0.000011110927085   0.000080217827927   0.000087134260894 1
force Pt  -0.000031896889170   0.000066780516397  -0.000402117959433 1
force Pt  -0.000014681596500   0.000037922322083   0.000375692559557 1
force Pt   0.000017424828604   0.000411533124265   0.000181056174441 1
force Pt  -0.000027308753192   0.000254273294918  -0.000191721184492 1
force Pt  -0.000018081384332  -0.000052973943998  -0.000413587596472 1
force Pt   0.000026602462650  -0.000245305549453   0.000193717162805 1
force Pt  -0.000002773393486  -0.000062036080625   0.000301091347247 1
force Pt   0.000034255451544  -0.000053248295772   0.000369809711920 1
force Pt   0.000010114037358  -0.000067365655894  -0.000005896557242 1
force Pt  -0.000003225789927  -0.000062136445631   0.000073723691526 1
force Pt  -0.000007366475559  -0.000275240017606   0.000254224252479 1
force Pt  -0.000007720069172  -0.000008400532944  -0.000070056357194 1
force Pt  -0.000004352185640  -0.000116610580575   0.000395593936457 1
force Pt   0.000007543323636  -0.000167276377428   0.000100337899641 1
force Pt  -0.000019016220784  -0.000389470872590  -0.000258613717816 1
force Pt   0.000015483745909  -0.000044180049371  -0.000379513138831 1
force Pt  -0.000055626968878  -0.000082063288567  -0.000008772985118 1
force Pt   0.000015418747856   0.000043066057829   0.000400796127711 1

# Energy components:
   A_diel =       -0.0844714652224322
   Eewald =    30659.7632537631398009
       EH =    32773.9516846033729962
     Eloc =   -66148.1380462045781314
      Enl =      -27.4087120198868632
     EvdW =       -0.6091100076757248
      Exc =     -739.7800119784286608
 Exc_core =      426.1759302342899218
       KE =      742.8802851944478789
  MuShift =       -0.0134886145166859
-------------------------------------
     Etot =    -2313.2626864950584604
       TS =        0.0045623149317276
-------------------------------------
        F =    -2313.2672488099901784
      muN =      -71.3050194515788576
-------------------------------------
        G =    -2241.9622293584111503


Dumping 'jdft.fillings' ... done
Dumping 'jdft.wfns' ... done
Dumping 'jdft.fluidState' ... done
Dumping 'jdft.ionpos' ... done
Dumping 'jdft.lattice' ... done
Dumping 'jdft.eigenvals' ... done
Dumping 'jdft.eigStats' ... 
	eMin: -2.120878 at state 54 ( [ +0.444444 +0.500000 +0.000000 ] spin -1 )
	HOMO: -0.171543 at state 18 ( [ +0.444444 +0.500000 +0.000000 ] spin 1 )
	mu  : -0.171300
	LUMO: -0.171237 at state 56 ( [ -0.444444 +0.000000 +0.000000 ] spin -1 )
	eMax: +0.111114 at state 0 ( [ +0.000000 +0.000000 +0.000000 ] spin 1 )
	HOMO-LUMO gap: +0.000307
	Optical gap  : +0.000587 at state 52 ( [ +0.444444 +0.000000 +0.000000 ] spin -1 )
Dumping 'jdft.Ecomponents' ... done
IonicMinimize: Iter:   0  G: -2241.962229358411150  |grad|_K:  1.822e-04  t[s]:   1824.17

#--- Lowdin population analysis ---
# oxidation-state Pt -0.039 +0.007 -0.036 +0.009 +0.006 +0.007 +0.009 +0.011 +0.009 -0.062 +0.042 -0.006 +0.043 -0.005 +0.007 +0.010 +0.011 +0.008 +0.006 +0.006 +0.008 -0.036 +0.042 -0.061 -0.039 +0.043
# magnetic-moments Pt -0.000 -0.000 -0.000 -0.000 -0.000 -0.000 -0.000 -0.000 -0.000 -0.000 -0.000 -0.000 -0.000 -0.000 -0.000 -0.000 -0.000 -0.000 -0.000 -0.000 -0.000 -0.000 -0.000 -0.000 -0.000 -0.000


Computing DFT-D3 correction:
# coordination-number Pt 7.008 9.388 8.582 9.503 9.537 9.448 9.566 9.550 9.391 8.610 5.276 9.390 5.971 9.389 9.447 9.390 9.549 9.567 9.389 9.537 9.504 8.583 5.277 8.608 7.008 5.970
# diagonal-C6 Pt 336.87 336.87 336.87 336.87 336.87 336.87 336.87 336.87 336.87 336.87 336.87 336.87 336.87 336.87 336.87 336.87 336.87 336.87 336.87 336.87 336.87 336.87 336.87 336.87 336.87 336.87
EvdW_6 =   -0.233111
EvdW_8 =   -0.375996
Shifting auxilliary hamiltonian by 0.000034 to set nElectrons=416.258140

-------- Electronic minimization -----------
	Linear fluid (dielectric constant: 78.4, screening length: 8.12261 Bohr) occupying 0.559930 of unit cell:	Completed after 12 iterations at t[s]:   1873.98
	FillingsUpdate:  mu: -0.171300000  nElectrons: 416.258140  magneticMoment: [ Abs: 0.00000  Tot: -0.00000 ]
ElecMinimize: Iter:   0  G: -2241.962222040458983  |grad|_K:  1.965e-07  alpha:  1.000e+00
	Linear fluid (dielectric constant: 78.4, screening length: 8.12261 Bohr) occupying 0.559555 of unit cell:	Completed after 17 iterations at t[s]:   1970.87
	Linear fluid (dielectric constant: 78.4, screening length: 8.12261 Bohr) occupying 0.559851 of unit cell:	Completed after 17 iterations at t[s]:   2003.22
	FillingsUpdate:  mu: -0.171300000  nElectrons: 416.255509  magneticMoment: [ Abs: 0.00000  Tot: -0.00000 ]
	SubspaceRotationAdjust: set factor to 0.00887
ElecMinimize: Iter:   1  G: -2241.962226934858336  |grad|_K:  1.076e-07  alpha:  2.050e-01  linmin: -2.101e-03  t[s]:   2050.85
	Linear fluid (dielectric constant: 78.4, screening length: 8.12261 Bohr) occupying 0.559888 of unit cell:	Completed after 10 iterations at t[s]:   2092.89
	Linear fluid (dielectric constant: 78.4, screening length: 8.12261 Bohr) occupying 0.559898 of unit cell:	Completed after 7 iterations at t[s]:   2123.85
	FillingsUpdate:  mu: -0.171300000  nElectrons: 416.257102  magneticMoment: [ Abs: 0.00000  Tot: -0.00000 ]
	SubspaceRotationAdjust: set factor to 0.00876
ElecMinimize: Iter:   2  G: -2241.962228802639402  |grad|_K:  4.825e-08  alpha:  2.615e-01  linmin: -8.589e-03  t[s]:   2171.64
	Linear fluid (dielectric constant: 78.4, screening length: 8.12261 Bohr) occupying 0.559904 of unit cell:	Completed after 2 iterations at t[s]:   2212.59
	Linear fluid (dielectric constant: 78.4, screening length: 8.12261 Bohr) occupying 0.559909 of unit cell:	Completed after 2 iterations at t[s]:   2242.79
	FillingsUpdate:  mu: -0.171300000  nElectrons: 416.257423  magneticMoment: [ Abs: 0.00000  Tot: -0.00000 ]
	SubspaceRotationAdjust: set factor to 0.0116
ElecMinimize: Iter:   3  G: -2241.962229471737828  |grad|_K:  2.966e-08  alpha:  4.595e-01  linmin: -4.811e-03  t[s]:   2290.07
	Linear fluid (dielectric constant: 78.4, screening length: 8.12261 Bohr) occupying 0.559906 of unit cell:	Completed after 2 iterations at t[s]:   2330.98
	Linear fluid (dielectric constant: 78.4, screening length: 8.12261 Bohr) occupying 0.559906 of unit cell:	Completed after 3 iterations at t[s]:   2361.34
	FillingsUpdate:  mu: -0.171300000  nElectrons: 416.257286  magneticMoment: [ Abs: 0.00000  Tot: -0.00000 ]
	SubspaceRotationAdjust: set factor to 0.013
ElecMinimize: Iter:   4  G: -2241.962229768381803  |grad|_K:  2.827e-08  alpha:  5.575e-01  linmin:  3.887e-03  t[s]:   2408.81
	Linear fluid (dielectric constant: 78.4, screening length: 8.12261 Bohr) occupying 0.559928 of unit cell:	Completed after 8 iterations at t[s]:   2451.14
	Linear fluid (dielectric constant: 78.4, screening length: 8.12261 Bohr) occupying 0.559929 of unit cell:	Completed after 0 iterations at t[s]:   2481.05
	FillingsUpdate:  mu: -0.171300000  nElectrons: 416.258042  magneticMoment: [ Abs: 0.00000  Tot: -0.00000 ]
	SubspaceRotationAdjust: set factor to 0.0126
ElecMinimize: Iter:   5  G: -2241.962230036931032  |grad|_K:  3.107e-08  alpha:  5.654e-01  linmin:  1.107e-03  t[s]:   2528.40
	Linear fluid (dielectric constant: 78.4, screening length: 8.12261 Bohr) occupying 0.559921 of unit cell:	Completed after 7 iterations at t[s]:   2569.89
	Linear fluid (dielectric constant: 78.4, screening length: 8.12261 Bohr) occupying 0.559923 of unit cell:	Completed after 3 iterations at t[s]:   2600.41
	FillingsUpdate:  mu: -0.171300000  nElectrons: 416.257840  magneticMoment: [ Abs: 0.00000  Tot: -0.00000 ]
	SubspaceRotationAdjust: set factor to 0.0108
ElecMinimize: Iter:   6  G: -2241.962230276667469  |grad|_K:  2.911e-08  alpha:  4.203e-01  linmin:  6.908e-04  t[s]:   2647.70
	Linear fluid (dielectric constant: 78.4, screening length: 8.12261 Bohr) occupying 0.559942 of unit cell:	Completed after 6 iterations at t[s]:   2689.16
	Linear fluid (dielectric constant: 78.4, screening length: 8.12261 Bohr) occupying 0.559947 of unit cell:	Completed after 2 iterations at t[s]:   2719.48
	FillingsUpdate:  mu: -0.171300000  nElectrons: 416.258685  magneticMoment: [ Abs: 0.00000  Tot: -0.00000 ]
	SubspaceRotationAdjust: set factor to 0.0101
ElecMinimize: Iter:   7  G: -2241.962230555371207  |grad|_K:  2.559e-08  alpha:  5.439e-01  linmin: -2.884e-03  t[s]:   2767.57
	Linear fluid (dielectric constant: 78.4, screening length: 8.12261 Bohr) occupying 0.559948 of unit cell:	Completed after 2 iterations at t[s]:   2808.39
	Linear fluid (dielectric constant: 78.4, screening length: 8.12261 Bohr) occupying 0.559949 of unit cell:	Completed after 2 iterations at t[s]:   2838.82
	FillingsUpdate:  mu: -0.171300000  nElectrons: 416.258816  magneticMoment: [ Abs: 0.00000  Tot: -0.00000 ]
	SubspaceRotationAdjust: set factor to 0.0106
ElecMinimize: Iter:   8  G: -2241.962230836742947  |grad|_K:  2.475e-08  alpha:  6.827e-01  linmin: -1.914e-04  t[s]:   2886.20
	Linear fluid (dielectric constant: 78.4, screening length: 8.12261 Bohr) occupying 0.559953 of unit cell:	Completed after 2 iterations at t[s]:   2927.19
	Linear fluid (dielectric constant: 78.4, screening length: 8.12261 Bohr) occupying 0.559953 of unit cell:	Completed after 0 iterations at t[s]:   2957.19
	FillingsUpdate:  mu: -0.171300000  nElectrons: 416.259056  magneticMoment: [ Abs: 0.00000  Tot: -0.00000 ]
	SubspaceRotationAdjust: set factor to 0.0122
ElecMinimize: Iter:   9  G: -2241.962231065921969  |grad|_K:  2.235e-08  alpha:  6.121e-01  linmin:  3.947e-05  t[s]:   3004.93
	Linear fluid (dielectric constant: 78.4, screening length: 8.12261 Bohr) occupying 0.559965 of unit cell:	Completed after 6 iterations at t[s]:   3047.20
	Linear fluid (dielectric constant: 78.4, screening length: 8.12261 Bohr) occupying 0.559963 of unit cell:	Completed after 0 iterations at t[s]:   3077.05
	FillingsUpdate:  mu: -0.171300000  nElectrons: 416.259457  magneticMoment: [ Abs: 0.00000  Tot: -0.00000 ]
	SubspaceRotationAdjust: set factor to 0.0116
ElecMinimize: Iter:  10  G: -2241.962231223901654  |grad|_K:  2.444e-08  alpha:  5.119e-01  linmin:  2.922e-03  t[s]:   3124.76
	Linear fluid (dielectric constant: 78.4, screening length: 8.12261 Bohr) occupying 0.559942 of unit cell:	Completed after 9 iterations at t[s]:   3166.68
	Linear fluid (dielectric constant: 78.4, screening length: 8.12261 Bohr) occupying 0.559953 of unit cell:	Completed after 6 iterations at t[s]:   3197.69
	FillingsUpdate:  mu: -0.171300000  nElectrons: 416.259169  magneticMoment: [ Abs: 0.00000  Tot: -0.00000 ]
	SubspaceRotationAdjust: set factor to 0.00874
ElecMinimize: Iter:  11  G: -2241.962231305435580  |grad|_K:  2.052e-08  alpha:  2.542e-01  linmin:  1.635e-03  t[s]:   3245.26
	Linear fluid (dielectric constant: 78.4, screening length: 8.12261 Bohr) occupying 0.559956 of unit cell:	Completed after 2 iterations at t[s]:   3286.20
	Linear fluid (dielectric constant: 78.4, screening length: 8.12261 Bohr) occupying 0.559958 of unit cell:	Completed after 4 iterations at t[s]:   3317.02
	FillingsUpdate:  mu: -0.171300000  nElectrons: 416.259396  magneticMoment: [ Abs: 0.00000  Tot: -0.00000 ]
	SubspaceRotationAdjust: set factor to 0.0101
ElecMinimize: Iter:  12  G: -2241.962231415815040  |grad|_K:  1.480e-08  alpha:  4.542e-01  linmin: -5.600e-04  t[s]:   3364.82
	Linear fluid (dielectric constant: 78.4, screening length: 8.12261 Bohr) occupying 0.559959 of unit cell:	Completed after 2 iterations at t[s]:   3405.78
	Linear fluid (dielectric constant: 78.4, screening length: 8.12261 Bohr) occupying 0.559960 of unit cell:	Completed after 0 iterations at t[s]:   3435.69
	FillingsUpdate:  mu: -0.171300000  nElectrons: 416.259470  magneticMoment: [ Abs: 0.00000  Tot: -0.00000 ]
	SubspaceRotationAdjust: set factor to 0.0115
ElecMinimize: Iter:  13  G: -2241.962231500469443  |grad|_K:  1.276e-08  alpha:  6.145e-01  linmin: -3.309e-03  t[s]:   3483.08
	Linear fluid (dielectric constant: 78.4, screening length: 8.12261 Bohr) occupying 0.559954 of unit cell:	Completed after 2 iterations at t[s]:   3523.94
	Linear fluid (dielectric constant: 78.4, screening length: 8.12261 Bohr) occupying 0.559954 of unit cell:	Completed after 0 iterations at t[s]:   3553.90
	FillingsUpdate:  mu: -0.171300000  nElectrons: 416.259277  magneticMoment: [ Abs: 0.00000  Tot: -0.00000 ]
	SubspaceRotationAdjust: set factor to 0.0137
ElecMinimize: Iter:  14  G: -2241.962231570912536  |grad|_K:  1.218e-08  alpha:  6.742e-01  linmin: -2.120e-03  t[s]:   3601.20
ElecMinimize: Converged (|Delta G|<1.000000e-07 for 2 iters).
Setting wave functions to eigenvectors of Hamiltonian
Converging empty states (this may take a while): |deigs|: 1.707e-09

Computing DFT-D3 correction:
# coordination-number Pt 7.008 9.388 8.582 9.503 9.537 9.448 9.566 9.550 9.391 8.610 5.276 9.390 5.971 9.389 9.447 9.390 9.549 9.567 9.389 9.537 9.504 8.583 5.277 8.608 7.008 5.970
# diagonal-C6 Pt 336.87 336.87 336.87 336.87 336.87 336.87 336.87 336.87 336.87 336.87 336.87 336.87 336.87 336.87 336.87 336.87 336.87 336.87 336.87 336.87 336.87 336.87 336.87 336.87 336.87 336.87
EvdW_6 =   -0.233111
EvdW_8 =   -0.375996

# Ionic positions in cartesian coordinates:
ion Pt   0.002011055140438  10.235251845017892  24.358858821624239 1
ion Pt   0.001768844068001   4.096544309669777  19.966020570446492 1
ion Pt   3.703705582286508   7.302466135919123  22.275986212620282 1
ion Pt   3.697928112293280   1.002328196393720  17.927431240018954 1
ion Pt  -0.001649473700256   8.211975727460949  13.877417682737644 1
ion Pt   0.002235396562258   2.051762578972683   9.731935966493445 1
ion Pt   3.696550411148130  11.267110687614380  15.904019413034264 1
ion Pt   3.700763078310666   5.131413999355655  11.792070950803856 1
ion Pt  -0.000069019228564  12.355419857951812   7.632877774725371 1
ion Pt  -0.000857859498037   6.110952103645216   3.490849717294032 1
ion Pt   0.003161301400558  -0.019732048008818  25.886174904066767 1
ion Pt   3.699389684762536   9.242390471055771   5.728457223679547 1
ion Pt   3.696129454596929   3.050401353931423   1.682153318100289 1
ion Pt   3.699749844339411  12.305413134860537  20.949723802578905 1
ion Pt   3.697322236550940   6.156634486181083  16.945803383866419 1
ion Pt   0.000003952833520   9.191983000334446  19.045165215693764 1
ion Pt  -0.001237782589929   3.076884190923351  14.885235743972627 1
ion Pt   3.702672428745291  10.280073261621602  10.773369427335961 1
ion Pt   3.697694369620139   4.111668412625066   6.712019102640048 1
ion Pt   0.001636641235943  13.335322037732348  12.799836755220163 1
ion Pt   0.001627382695881   7.205754885916963   8.750333187520438 1
ion Pt  -0.004174853421164   0.906406630645668   4.402407645928974 1
ion Pt   3.696529744162674   8.228777646368080   0.792829274464151 1
ion Pt   3.700459464378505   2.098186353486237  23.187578101785011 1
ion Pt  -0.001825306838358  11.312946665277497   2.319617576056142 1
ion Pt   0.003423310144694   5.158963075047484  24.996301987292171 1

# Forces in Cartesian coordinates:
force Pt   0.000050228818395   0.000098969658353  -0.000185929161159 1
force Pt   0.000006017393749   0.000259663499115  -0.000230823032750 1
force Pt  -0.000000260516048   0.000139577179704  -0.000233574070161 1
force Pt   0.000005617529296   0.000116320502819  -0.000322803815210 1
force Pt   0.000005594584799   0.000015884773839   0.000191716597005 1
force Pt   0.000001058317224   0.000062135805174  -0.000367707371878 1
force Pt   0.000001113109143   0.000043698816663   0.000046881303029 1
force Pt  -0.000009618646474   0.000065946801191   0.000049627136746 1
force Pt  -0.000030359338003   0.000062256911322  -0.000390188635411 1
force Pt  -0.000014202124747   0.000034929092857   0.000555254814479 1
force Pt   0.000019889675572   0.000461876596130  -0.000084389473498 1
force Pt  -0.000028601854877   0.000200503488228  -0.000136660569961 1
force Pt  -0.000012777626132  -0.000018597695432  -0.000145250352580 1
force Pt   0.000027686319577  -0.000195470168239   0.000149154428241 1
force Pt  -0.000001598250505  -0.000056641787206   0.000369535895994 1
force Pt   0.000032081616196  -0.000052420424615   0.000371101524958 1
force Pt   0.000008276527879  -0.000050999793534   0.000028887642576 1
force Pt  -0.000001919254640  -0.000056348385547  -0.000002489227821 1
force Pt  -0.000007587786927  -0.000248749875597   0.000207655830826 1
force Pt  -0.000007902106323  -0.000017071540563  -0.000103753150621 1
force Pt  -0.000004984321533  -0.000113579395781   0.000310482703376 1
force Pt   0.000005643534272  -0.000096734243366   0.000217747208388 1
force Pt  -0.000021680717294  -0.000436875725934  -0.000013100148451 1
force Pt   0.000015131663793  -0.000032688648143  -0.000552255162118 1
force Pt  -0.000052057771212  -0.000083715528269   0.000179466982921 1
force Pt   0.000011055785570   0.000003902230091   0.000115030507435 1

# Energy components:
   A_diel =       -0.0848481897797511
   Eewald =    30659.6088411879682099
       EH =    32773.8853597326742602
     Eloc =   -66147.9174242065637372
      Enl =      -27.4088882633312991
     EvdW =       -0.6091070644641317
      Exc =     -739.7803570962730646
 Exc_core =      426.1759302680321184
       KE =      742.8811580190684936
  MuShift =       -0.0135480249698706
-------------------------------------
     Etot =    -2313.2628836376443360
       TS =        0.0045621489318365
-------------------------------------
        F =    -2313.2674457865759905
      muN =      -71.3052142156633977
-------------------------------------
        G =    -2241.9622315709125360


Dumping 'jdft.fillings' ... done
Dumping 'jdft.wfns' ... done
Dumping 'jdft.fluidState' ... done
Dumping 'jdft.ionpos' ... done
Dumping 'jdft.lattice' ... done
Dumping 'jdft.eigenvals' ... done
Dumping 'jdft.eigStats' ... 
	eMin: -2.120820 at state 54 ( [ +0.444444 +0.500000 +0.000000 ] spin -1 )
	HOMO: -0.171487 at state 22 ( [ -0.444444 +0.500000 +0.000000 ] spin 1 )
	mu  : -0.171300
	LUMO: -0.171166 at state 52 ( [ +0.444444 +0.000000 +0.000000 ] spin -1 )
	eMax: +0.111158 at state 0 ( [ +0.000000 +0.000000 +0.000000 ] spin 1 )
	HOMO-LUMO gap: +0.000321
	Optical gap  : +0.000578 at state 52 ( [ +0.444444 +0.000000 +0.000000 ] spin -1 )
Dumping 'jdft.Ecomponents' ... done
IonicMinimize: Iter:   1  G: -2241.962231570912536  |grad|_K:  1.790e-04  alpha:  1.000e+00  linmin: -8.976e-01  t[s]:   3724.41

#--- Lowdin population analysis ---
# oxidation-state Pt -0.037 +0.006 -0.035 +0.009 +0.005 +0.006 +0.007 +0.011 +0.007 -0.062 +0.041 -0.003 +0.044 -0.004 +0.006 +0.008 +0.011 +0.007 +0.006 +0.004 +0.009 -0.034 +0.042 -0.063 -0.036 +0.043
# magnetic-moments Pt -0.000 -0.000 -0.000 -0.000 -0.000 -0.000 -0.000 -0.000 -0.000 -0.000 -0.000 -0.000 -0.000 -0.000 -0.000 -0.000 -0.000 -0.000 -0.000 -0.000 -0.000 -0.000 -0.000 -0.000 -0.000 -0.000


Computing DFT-D3 correction:
# coordination-number Pt 7.014 9.389 8.592 9.502 9.534 9.453 9.562 9.551 9.397 8.606 5.275 9.390 5.961 9.390 9.454 9.398 9.552 9.561 9.391 9.533 9.502 8.594 5.273 8.605 7.015 5.960
# diagonal-C6 Pt 336.87 336.87 336.87 336.87 336.87 336.87 336.87 336.87 336.87 336.87 336.87 336.87 336.87 336.87 336.87 336.87 336.87 336.87 336.87 336.87 336.87 336.87 336.87 336.87 336.87 336.87
EvdW_6 =   -0.233113
EvdW_8 =   -0.375988
Shifting auxilliary hamiltonian by -0.000031 to set nElectrons=416.259277

-------- Electronic minimization -----------
	Linear fluid (dielectric constant: 78.4, screening length: 8.12261 Bohr) occupying 0.559861 of unit cell:	Completed after 15 iterations at t[s]:   3773.44
	FillingsUpdate:  mu: -0.171300000  nElectrons: 416.259277  magneticMoment: [ Abs: 0.00000  Tot: -0.00000 ]
ElecMinimize: Iter:   0  G: -2241.962061884520153  |grad|_K:  6.735e-07  alpha:  1.000e+00
	Linear fluid (dielectric constant: 78.4, screening length: 8.12261 Bohr) occupying 0.558328 of unit cell:	Completed after 20 iterations at t[s]:   3870.94
	Linear fluid (dielectric constant: 78.4, screening length: 8.12261 Bohr) occupying 0.559583 of unit cell:	Completed after 20 iterations at t[s]:   3903.63
	FillingsUpdate:  mu: -0.171300000  nElectrons: 416.249878  magneticMoment: [ Abs: 0.00000  Tot: -0.00000 ]
	SubspaceRotationAdjust: set factor to 0.00853
ElecMinimize: Iter:   1  G: -2241.962107161574750  |grad|_K:  3.443e-07  alpha:  1.619e-01  linmin: -2.934e-03  t[s]:   3951.91
	Linear fluid (dielectric constant: 78.4, screening length: 8.12261 Bohr) occupying 0.559660 of unit cell:	Completed after 12 iterations at t[s]:   3994.75
	Linear fluid (dielectric constant: 78.4, screening length: 8.12261 Bohr) occupying 0.559733 of unit cell:	Completed after 11 iterations at t[s]:   4026.23
	FillingsUpdate:  mu: -0.171300000  nElectrons: 416.255010  magneticMoment: [ Abs: 0.00000  Tot: -0.00000 ]
	SubspaceRotationAdjust: set factor to 0.00928
ElecMinimize: Iter:   2  G: -2241.962129908714360  |grad|_K:  1.504e-07  alpha:  3.116e-01  linmin: -1.739e-03  t[s]:   4073.60
	Linear fluid (dielectric constant: 78.4, screening length: 8.12261 Bohr) occupying 0.559757 of unit cell:	Completed after 7 iterations at t[s]:   4115.34
	Linear fluid (dielectric constant: 78.4, screening length: 8.12261 Bohr) occupying 0.559774 of unit cell:	Completed after 2 iterations at t[s]:   4145.66
	FillingsUpdate:  mu: -0.171300000  nElectrons: 416.256291  magneticMoment: [ Abs: 0.00000  Tot: -0.00000 ]
	SubspaceRotationAdjust: set factor to 0.0113
ElecMinimize: Iter:   3  G: -2241.962137311071729  |grad|_K:  1.074e-07  alpha:  5.340e-01  linmin: -9.204e-04  t[s]:   4192.81
	Linear fluid (dielectric constant: 78.4, screening length: 8.12261 Bohr) occupying 0.559779 of unit cell:	Completed after 6 iterations at t[s]:   4234.67
	Linear fluid (dielectric constant: 78.4, screening length: 8.12261 Bohr) occupying 0.559780 of unit cell:	Completed after 2 iterations at t[s]:   4266.16
	FillingsUpdate:  mu: -0.171300000  nElectrons: 416.256435  magneticMoment: [ Abs: 0.00000  Tot: -0.00000 ]
	SubspaceRotationAdjust: set factor to 0.013
ElecMinimize: Iter:   4  G: -2241.962141724533012  |grad|_K:  9.992e-08  alpha:  6.260e-01  linmin:  2.474e-04  t[s]:   4313.27
	Linear fluid (dielectric constant: 78.4, screening length: 8.12261 Bohr) occupying 0.559862 of unit cell:	Completed after 12 iterations at t[s]:   4355.85
	Linear fluid (dielectric constant: 78.4, screening length: 8.12261 Bohr) occupying 0.559862 of unit cell:	Completed after 0 iterations at t[s]:   4385.66
	FillingsUpdate:  mu: -0.171300000  nElectrons: 416.259121  magneticMoment: [ Abs: 0.00000  Tot: -0.00000 ]
	SubspaceRotationAdjust: set factor to 0.0129
ElecMinimize: Iter:   5  G: -2241.962145514223266  |grad|_K:  1.116e-07  alpha:  6.236e-01  linmin:  1.395e-03  t[s]:   4432.88
	Linear fluid (dielectric constant: 78.4, screening length: 8.12261 Bohr) occupying 0.559799 of unit cell:	Completed after 11 iterations at t[s]:   4475.29
	Linear fluid (dielectric constant: 78.4, screening length: 8.12261 Bohr) occupying 0.559825 of unit cell:	Completed after 10 iterations at t[s]:   4506.67
	FillingsUpdate:  mu: -0.171300000  nElectrons: 416.257915  magneticMoment: [ Abs: 0.00000  Tot: -0.00000 ]
	SubspaceRotationAdjust: set factor to 0.0107
ElecMinimize: Iter:   6  G: -2241.962148235742461  |grad|_K:  1.141e-07  alpha:  3.656e-01  linmin:  8.164e-06  t[s]:   4554.79
	Linear fluid (dielectric constant: 78.4, screening length: 8.12261 Bohr) occupying 0.559886 of unit cell:	Completed after 10 iterations at t[s]:   4596.89
	Linear fluid (dielectric constant: 78.4, screening length: 8.12261 Bohr) occupying 0.559922 of unit cell:	Completed after 9 iterations at t[s]:   4628.24
	FillingsUpdate:  mu: -0.171300000  nElectrons: 416.261258  magneticMoment: [ Abs: 0.00000  Tot: -0.00000 ]
	SubspaceRotationAdjust: set factor to 0.0103
ElecMinimize: Iter:   7  G: -2241.962152825738940  |grad|_K:  1.060e-07  alpha:  5.783e-01  linmin:  7.919e-06  t[s]:   4675.50
	Linear fluid (dielectric constant: 78.4, screening length: 8.12261 Bohr) occupying 0.559935 of unit cell:	Completed after 10 iterations at t[s]:   4717.62
	Linear fluid (dielectric constant: 78.4, screening length: 8.12261 Bohr) occupying 0.559939 of unit cell:	Completed after 4 iterations at t[s]:   4748.37
	FillingsUpdate:  mu: -0.171300000  nElectrons: 416.262198  magneticMoment: [ Abs: 0.00000  Tot: -0.00000 ]
	SubspaceRotationAdjust: set factor to 0.0103
ElecMinimize: Iter:   8  G: -2241.962158292958065  |grad|_K:  1.193e-07  alpha:  7.957e-01  linmin: -2.555e-04  t[s]:   4795.35
	Linear fluid (dielectric constant: 78.4, screening length: 8.12261 Bohr) occupying 0.560070 of unit cell:	Completed after 12 iterations at t[s]:   4837.91
	Linear fluid (dielectric constant: 78.4, screening length: 8.12261 Bohr) occupying 0.560059 of unit cell:	Completed after 2 iterations at t[s]:   4868.78
	FillingsUpdate:  mu: -0.171300000  nElectrons: 416.266588  magneticMoment: [ Abs: 0.00000  Tot: -0.00000 ]
	SubspaceRotationAdjust: set factor to 0.00945
ElecMinimize: Iter:   9  G: -2241.962164696485161  |grad|_K:  1.494e-07  alpha:  7.301e-01  linmin:  5.920e-04  t[s]:   4915.96
	Linear fluid (dielectric constant: 78.4, screening length: 8.12261 Bohr) occupying 0.559992 of unit cell:	Completed after 12 iterations at t[s]:   4958.49
	Linear fluid (dielectric constant: 78.4, screening length: 8.12261 Bohr) occupying 0.560019 of unit cell:	Completed after 11 iterations at t[s]:   4990.18
	FillingsUpdate:  mu: -0.171300000  nElectrons: 416.265743  magneticMoment: [ Abs: 0.00000  Tot: -0.00000 ]
	SubspaceRotationAdjust: set factor to 0.00773
ElecMinimize: Iter:  10  G: -2241.962170411818533  |grad|_K:  1.413e-07  alpha:  4.360e-01  linmin: -7.905e-05  t[s]:   5037.41
	Linear fluid (dielectric constant: 78.4, screening length: 8.12261 Bohr) occupying 0.560079 of unit cell:	Completed after 11 iterations at t[s]:   5079.85
	Linear fluid (dielectric constant: 78.4, screening length: 8.12261 Bohr) occupying 0.560106 of unit cell:	Completed after 7 iterations at t[s]:   5110.94
	FillingsUpdate:  mu: -0.171300000  nElectrons: 416.268973  magneticMoment: [ Abs: 0.00000  Tot: -0.00000 ]
	SubspaceRotationAdjust: set factor to 0.00799
ElecMinimize: Iter:  11  G: -2241.962178033615146  |grad|_K:  1.332e-07  alpha:  6.239e-01  linmin: -5.858e-05  t[s]:   5159.18
	Linear fluid (dielectric constant: 78.4, screening length: 8.12261 Bohr) occupying 0.560127 of unit cell:	Completed after 5 iterations at t[s]:   5200.90
	Linear fluid (dielectric constant: 78.4, screening length: 8.12261 Bohr) occupying 0.560132 of unit cell:	Completed after 2 iterations at t[s]:   5231.19
	FillingsUpdate:  mu: -0.171300000  nElectrons: 416.270065  magneticMoment: [ Abs: 0.00000  Tot: -0.00000 ]
	SubspaceRotationAdjust: set factor to 0.00888
ElecMinimize: Iter:  12  G: -2241.962186356863640  |grad|_K:  1.324e-07  alpha:  7.670e-01  linmin: -1.182e-04  t[s]:   5278.39
	Linear fluid (dielectric constant: 78.4, screening length: 8.12261 Bohr) occupying 0.560129 of unit cell:	Completed after 5 iterations at t[s]:   5319.87
	Linear fluid (dielectric constant: 78.4, screening length: 8.12261 Bohr) occupying 0.560129 of unit cell:	Completed after 0 iterations at t[s]:   5349.66
	FillingsUpdate:  mu: -0.171300000  nElectrons: 416.270002  magneticMoment: [ Abs: 0.00000  Tot: -0.00000 ]
	SubspaceRotationAdjust: set factor to 0.01
ElecMinimize: Iter:  13  G: -2241.962194447802176  |grad|_K:  1.370e-07  alpha:  7.533e-01  linmin:  1.169e-06  t[s]:   5396.98
	Linear fluid (dielectric constant: 78.4, screening length: 8.12261 Bohr) occupying 0.560130 of unit cell:	Completed after 11 iterations at t[s]:   5439.20
	Linear fluid (dielectric constant: 78.4, screening length: 8.12261 Bohr) occupying 0.560130 of unit cell:	Completed after 0 iterations at t[s]:   5470.17
	FillingsUpdate:  mu: -0.171300000  nElectrons: 416.269927  magneticMoment: [ Abs: 0.00000  Tot: -0.00000 ]
	SubspaceRotationAdjust: set factor to 0.0107
ElecMinimize: Iter:  14  G: -2241.962203078483981  |grad|_K:  1.422e-07  alpha:  7.543e-01  linmin: -5.669e-06  t[s]:   5517.43
	Linear fluid (dielectric constant: 78.4, screening length: 8.12261 Bohr) occupying 0.559984 of unit cell:	Completed after 12 iterations at t[s]:   5559.75
	Linear fluid (dielectric constant: 78.4, screening length: 8.12261 Bohr) occupying 0.560013 of unit cell:	Completed after 9 iterations at t[s]:   5591.29
	FillingsUpdate:  mu: -0.171300000  nElectrons: 416.265924  magneticMoment: [ Abs: 0.00000  Tot: -0.00000 ]
	SubspaceRotationAdjust: set factor to 0.00983
ElecMinimize: Iter:  15  G: -2241.962210570819025  |grad|_K:  1.585e-07  alpha:  6.067e-01  linmin:  4.718e-05  t[s]:   5638.97
	Linear fluid (dielectric constant: 78.4, screening length: 8.12261 Bohr) occupying 0.560066 of unit cell:	Completed after 12 iterations at t[s]:   5681.46
	Linear fluid (dielectric constant: 78.4, screening length: 8.12261 Bohr) occupying 0.560047 of unit cell:	Completed after 10 iterations at t[s]:   5712.88
	FillingsUpdate:  mu: -0.171300000  nElectrons: 416.266781  magneticMoment: [ Abs: 0.00000  Tot: -0.00000 ]
	SubspaceRotationAdjust: set factor to 0.00764
ElecMinimize: Iter:  16  G: -2241.962216458806779  |grad|_K:  1.328e-07  alpha:  3.855e-01  linmin:  1.725e-05  t[s]:   5761.32
	Linear fluid (dielectric constant: 78.4, screening length: 8.12261 Bohr) occupying 0.559977 of unit cell:	Completed after 9 iterations at t[s]:   5803.35
	Linear fluid (dielectric constant: 78.4, screening length: 8.12261 Bohr) occupying 0.559948 of unit cell:	Completed after 7 iterations at t[s]:   5834.49
	FillingsUpdate:  mu: -0.171300000  nElectrons: 416.263243  magneticMoment: [ Abs: 0.00000  Tot: -0.00000 ]
	SubspaceRotationAdjust: set factor to 0.00749
ElecMinimize: Iter:  17  G: -2241.962222320271394  |grad|_K:  9.975e-08  alpha:  5.456e-01  linmin:  1.692e-05  t[s]:   5881.83
	Linear fluid (dielectric constant: 78.4, screening length: 8.12261 Bohr) occupying 0.559907 of unit cell:	Completed after 9 iterations at t[s]:   5924.03
	Linear fluid (dielectric constant: 78.4, screening length: 8.12261 Bohr) occupying 0.559903 of unit cell:	Completed after 0 iterations at t[s]:   5954.18
	FillingsUpdate:  mu: -0.171300000  nElectrons: 416.261485  magneticMoment: [ Abs: 0.00000  Tot: -0.00000 ]
	SubspaceRotationAdjust: set factor to 0.00785
ElecMinimize: Iter:  18  G: -2241.962225967841732  |grad|_K:  7.395e-08  alpha:  6.009e-01  linmin: -3.399e-04  t[s]:   6001.70
	Linear fluid (dielectric constant: 78.4, screening length: 8.12261 Bohr) occupying 0.559891 of unit cell:	Completed after 4 iterations at t[s]:   6043.97
	Linear fluid (dielectric constant: 78.4, screening length: 8.12261 Bohr) occupying 0.559892 of unit cell:	Completed after 0 iterations at t[s]:   6074.00
	FillingsUpdate:  mu: -0.171300000  nElectrons: 416.260885  magneticMoment: [ Abs: 0.00000  Tot: -0.00000 ]
	SubspaceRotationAdjust: set factor to 0.00796
ElecMinimize: Iter:  19  G: -2241.962227840122523  |grad|_K:  5.425e-08  alpha:  5.566e-01  linmin:  1.647e-05  t[s]:   6121.55
	Linear fluid (dielectric constant: 78.4, screening length: 8.12261 Bohr) occupying 0.559868 of unit cell:	Completed after 6 iterations at t[s]:   6163.06
	Linear fluid (dielectric constant: 78.4, screening length: 8.12261 Bohr) occupying 0.559870 of unit cell:	Completed after 3 iterations at t[s]:   6193.59
	FillingsUpdate:  mu: -0.171300000  nElectrons: 416.260020  magneticMoment: [ Abs: 0.00000  Tot: -0.00000 ]
	SubspaceRotationAdjust: set factor to 0.00781
ElecMinimize: Iter:  20  G: -2241.962228747616791  |grad|_K:  4.068e-08  alpha:  5.092e-01  linmin:  2.183e-04  t[s]:   6240.74
	Linear fluid (dielectric constant: 78.4, screening length: 8.12261 Bohr) occupying 0.559881 of unit cell:	Completed after 7 iterations at t[s]:   6282.32
	Linear fluid (dielectric constant: 78.4, screening length: 8.12261 Bohr) occupying 0.559881 of unit cell:	Completed after 0 iterations at t[s]:   6312.33
	FillingsUpdate:  mu: -0.171300000  nElectrons: 416.260265  magneticMoment: [ Abs: 0.00000  Tot: -0.00000 ]
	SubspaceRotationAdjust: set factor to 0.00729
ElecMinimize: Iter:  21  G: -2241.962229229491186  |grad|_K:  3.099e-08  alpha:  4.793e-01  linmin:  1.336e-03  t[s]:   6360.75
	Linear fluid (dielectric constant: 78.4, screening length: 8.12261 Bohr) occupying 0.559869 of unit cell:	Completed after 6 iterations at t[s]:   6402.29
	Linear fluid (dielectric constant: 78.4, screening length: 8.12261 Bohr) occupying 0.559868 of unit cell:	Completed after 0 iterations at t[s]:   6432.32
	FillingsUpdate:  mu: -0.171300000  nElectrons: 416.259772  magneticMoment: [ Abs: 0.00000  Tot: -0.00000 ]
	SubspaceRotationAdjust: set factor to 0.00766
ElecMinimize: Iter:  22  G: -2241.962229513899274  |grad|_K:  2.349e-08  alpha:  4.964e-01  linmin: -2.239e-03  t[s]:   6479.56
	Linear fluid (dielectric constant: 78.4, screening length: 8.12261 Bohr) occupying 0.559869 of unit cell:	Completed after 2 iterations at t[s]:   6520.37
	Linear fluid (dielectric constant: 78.4, screening length: 8.12261 Bohr) occupying 0.559869 of unit cell:	Completed after 0 iterations at t[s]:   6550.21
	FillingsUpdate:  mu: -0.171300000  nElectrons: 416.259760  magneticMoment: [ Abs: 0.00000  Tot: -0.00000 ]
	SubspaceRotationAdjust: set factor to 0.00949
ElecMinimize: Iter:  23  G: -2241.962229725681027  |grad|_K:  2.093e-08  alpha:  6.068e-01  linmin: -2.354e-03  t[s]:   6597.55
	Linear fluid (dielectric constant: 78.4, screening length: 8.12261 Bohr) occupying 0.559877 of unit cell:	Completed after 4 iterations at t[s]:   6638.80
	Linear fluid (dielectric constant: 78.4, screening length: 8.12261 Bohr) occupying 0.559877 of unit cell:	Completed after 0 iterations at t[s]:   6669.70
	FillingsUpdate:  mu: -0.171300000  nElectrons: 416.259998  magneticMoment: [ Abs: 0.00000  Tot: -0.00000 ]
	SubspaceRotationAdjust: set factor to 0.0103
ElecMinimize: Iter:  24  G: -2241.962229882136398  |grad|_K:  2.378e-08  alpha:  5.703e-01  linmin: -1.207e-03  t[s]:   6717.03
	Linear fluid (dielectric constant: 78.4, screening length: 8.12261 Bohr) occupying 0.559865 of unit cell:	Completed after 6 iterations at t[s]:   6758.52
	Linear fluid (dielectric constant: 78.4, screening length: 8.12261 Bohr) occupying 0.559868 of unit cell:	Completed after 2 iterations at t[s]:   6788.85
	FillingsUpdate:  mu: -0.171300000  nElectrons: 416.259699  magneticMoment: [ Abs: 0.00000  Tot: -0.00000 ]
	SubspaceRotationAdjust: set factor to 0.0102
ElecMinimize: Iter:  25  G: -2241.962230038982852  |grad|_K:  2.439e-08  alpha:  4.494e-01  linmin:  8.371e-04  t[s]:   6836.75
	Linear fluid (dielectric constant: 78.4, screening length: 8.12261 Bohr) occupying 0.559873 of unit cell:	Completed after 2 iterations at t[s]:   6877.58
	Linear fluid (dielectric constant: 78.4, screening length: 8.12261 Bohr) occupying 0.559876 of unit cell:	Completed after 2 iterations at t[s]:   6908.01
	FillingsUpdate:  mu: -0.171300000  nElectrons: 416.259971  magneticMoment: [ Abs: 0.00000  Tot: -0.00000 ]
	SubspaceRotationAdjust: set factor to 0.0121
ElecMinimize: Iter:  26  G: -2241.962230265848575  |grad|_K:  2.580e-08  alpha:  6.430e-01  linmin: -1.017e-04  t[s]:   6955.69
	Linear fluid (dielectric constant: 78.4, screening length: 8.12261 Bohr) occupying 0.559899 of unit cell:	Completed after 8 iterations at t[s]:   6997.51
	Linear fluid (dielectric constant: 78.4, screening length: 8.12261 Bohr) occupying 0.559891 of unit cell:	Completed after 3 iterations at t[s]:   7028.08
	FillingsUpdate:  mu: -0.171300000  nElectrons: 416.260513  magneticMoment: [ Abs: 0.00000  Tot: -0.00000 ]
	SubspaceRotationAdjust: set factor to 0.0104
ElecMinimize: Iter:  27  G: -2241.962230434780849  |grad|_K:  3.614e-08  alpha:  4.281e-01  linmin:  7.563e-04  t[s]:   7075.44
	Linear fluid (dielectric constant: 78.4, screening length: 8.12261 Bohr) occupying 0.559875 of unit cell:	Completed after 9 iterations at t[s]:   7117.42
	Linear fluid (dielectric constant: 78.4, screening length: 8.12261 Bohr) occupying 0.559882 of unit cell:	Completed after 4 iterations at t[s]:   7148.17
	FillingsUpdate:  mu: -0.171300000  nElectrons: 416.260242  magneticMoment: [ Abs: 0.00000  Tot: -0.00000 ]
	SubspaceRotationAdjust: set factor to 0.00896
ElecMinimize: Iter:  28  G: -2241.962230616393754  |grad|_K:  2.563e-08  alpha:  2.447e-01  linmin:  7.606e-04  t[s]:   7195.84
	Linear fluid (dielectric constant: 78.4, screening length: 8.12261 Bohr) occupying 0.559882 of unit cell:	Completed after 2 iterations at t[s]:   7236.95
	Linear fluid (dielectric constant: 78.4, screening length: 8.12261 Bohr) occupying 0.559882 of unit cell:	Completed after 2 iterations at t[s]:   7268.01
	FillingsUpdate:  mu: -0.171300000  nElectrons: 416.260268  magneticMoment: [ Abs: 0.00000  Tot: -0.00000 ]
	SubspaceRotationAdjust: set factor to 0.0101
ElecMinimize: Iter:  29  G: -2241.962230835431910  |grad|_K:  2.132e-08  alpha:  5.374e-01  linmin: -2.388e-03  t[s]:   7315.33
	Linear fluid (dielectric constant: 78.4, screening length: 8.12261 Bohr) occupying 0.559896 of unit cell:	Completed after 7 iterations at t[s]:   7357.04
	Linear fluid (dielectric constant: 78.4, screening length: 8.12261 Bohr) occupying 0.559894 of unit cell:	Completed after 0 iterations at t[s]:   7386.93
	FillingsUpdate:  mu: -0.171300000  nElectrons: 416.260713  magneticMoment: [ Abs: 0.00000  Tot: -0.00000 ]
	SubspaceRotationAdjust: set factor to 0.00863
ElecMinimize: Iter:  30  G: -2241.962230980531331  |grad|_K:  2.187e-08  alpha:  4.891e-01  linmin:  1.811e-03  t[s]:   7434.17
	Linear fluid (dielectric constant: 78.4, screening length: 8.12261 Bohr) occupying 0.559885 of unit cell:	Completed after 6 iterations at t[s]:   7475.64
	Linear fluid (dielectric constant: 78.4, screening length: 8.12261 Bohr) occupying 0.559888 of unit cell:	Completed after 3 iterations at t[s]:   7506.12
	FillingsUpdate:  mu: -0.171300000  nElectrons: 416.260529  magneticMoment: [ Abs: 0.00000  Tot: -0.00000 ]
	SubspaceRotationAdjust: set factor to 0.00712
ElecMinimize: Iter:  31  G: -2241.962231067723678  |grad|_K:  1.543e-08  alpha:  3.323e-01  linmin: -6.454e-06  t[s]:   7554.12
	Linear fluid (dielectric constant: 78.4, screening length: 8.12261 Bohr) occupying 0.559889 of unit cell:	Completed after 0 iterations at t[s]:   7594.69
	Linear fluid (dielectric constant: 78.4, screening length: 8.12261 Bohr) occupying 0.559890 of unit cell:	Completed after 1 iterations at t[s]:   7624.83
	FillingsUpdate:  mu: -0.171300000  nElectrons: 416.260620  magneticMoment: [ Abs: 0.00000  Tot: -0.00000 ]
	SubspaceRotationAdjust: set factor to 0.00843
ElecMinimize: Iter:  32  G: -2241.962231138236803  |grad|_K:  1.235e-08  alpha:  5.209e-01  linmin:  3.187e-03  t[s]:   7672.06
ElecMinimize: Converged (|Delta G|<1.000000e-07 for 2 iters).
Setting wave functions to eigenvectors of Hamiltonian
Converging empty states (this may take a while): |deigs|: 9.740e-08

Computing DFT-D3 correction:
# coordination-number Pt 7.014 9.389 8.592 9.502 9.534 9.453 9.562 9.551 9.397 8.606 5.275 9.390 5.961 9.390 9.454 9.398 9.552 9.561 9.391 9.533 9.502 8.594 5.273 8.605 7.015 5.960
# diagonal-C6 Pt 336.87 336.87 336.87 336.87 336.87 336.87 336.87 336.87 336.87 336.87 336.87 336.87 336.87 336.87 336.87 336.87 336.87 336.87 336.87 336.87 336.87 336.87 336.87 336.87 336.87 336.87
EvdW_6 =   -0.233113
EvdW_8 =   -0.375988
IonicMinimize: 	Wolfe criterion not satisfied: alpha: 1  (E-E0)/|gdotd0|: 0.0115545  gdotd/gdotd0: -0.894416 (taking cubic step)

Computing DFT-D3 correction:
# coordination-number Pt 7.011 9.389 8.587 9.503 9.536 9.450 9.564 9.551 9.394 8.608 5.275 9.390 5.966 9.389 9.450 9.394 9.550 9.564 9.390 9.535 9.503 8.588 5.275 8.607 7.011 5.965
# diagonal-C6 Pt 336.87 336.87 336.87 336.87 336.87 336.87 336.87 336.87 336.87 336.87 336.87 336.87 336.87 336.87 336.87 336.87 336.87 336.87 336.87 336.87 336.87 336.87 336.87 336.87 336.87 336.87
EvdW_6 =   -0.233112
EvdW_8 =   -0.375992
Shifting auxilliary hamiltonian by 0.000026 to set nElectrons=416.260620

-------- Electronic minimization -----------
	Linear fluid (dielectric constant: 78.4, screening length: 8.12261 Bohr) occupying 0.559939 of unit cell:	Completed after 15 iterations at t[s]:   7912.47
	FillingsUpdate:  mu: -0.171300000  nElectrons: 416.260620  magneticMoment: [ Abs: 0.00000  Tot: -0.00000 ]
ElecMinimize: Iter:   0  G: -2241.962160417475843  |grad|_K:  5.458e-07  alpha:  1.000e+00
	Linear fluid (dielectric constant: 78.4, screening length: 8.12261 Bohr) occupying 0.558879 of unit cell:	Completed after 18 iterations at t[s]:   8009.25
	Linear fluid (dielectric constant: 78.4, screening length: 8.12261 Bohr) occupying 0.559713 of unit cell:	Completed after 18 iterations at t[s]:   8042.09
	FillingsUpdate:  mu: -0.171300000  nElectrons: 416.252957  magneticMoment: [ Abs: 0.00000  Tot: -0.00000 ]
	SubspaceRotationAdjust: set factor to 0.00573
ElecMinimize: Iter:   1  G: -2241.962196857044091  |grad|_K:  2.001e-07  alpha:  1.999e-01  linmin: -1.948e-03  t[s]:   8089.10
	Linear fluid (dielectric constant: 78.4, screening length: 8.12261 Bohr) occupying 0.559744 of unit cell:	Completed after 10 iterations at t[s]:   8131.37
	Linear fluid (dielectric constant: 78.4, screening length: 8.12261 Bohr) occupying 0.559773 of unit cell:	Completed after 9 iterations at t[s]:   8163.04
	FillingsUpdate:  mu: -0.171300000  nElectrons: 416.254936  magneticMoment: [ Abs: 0.00000  Tot: -0.00000 ]
	SubspaceRotationAdjust: set factor to 0.00694
ElecMinimize: Iter:   2  G: -2241.962206420150324  |grad|_K:  9.834e-08  alpha:  3.890e-01  linmin: -3.940e-03  t[s]:   8210.28
	Linear fluid (dielectric constant: 78.4, screening length: 8.12261 Bohr) occupying 0.559787 of unit cell:	Completed after 6 iterations at t[s]:   8252.02
	Linear fluid (dielectric constant: 78.4, screening length: 8.12261 Bohr) occupying 0.559792 of unit cell:	Completed after 2 iterations at t[s]:   8282.52
	FillingsUpdate:  mu: -0.171300000  nElectrons: 416.255433  magneticMoment: [ Abs: 0.00000  Tot: -0.00000 ]
	SubspaceRotationAdjust: set factor to 0.00865
ElecMinimize: Iter:   3  G: -2241.962209685208563  |grad|_K:  7.077e-08  alpha:  5.488e-01  linmin: -2.263e-03  t[s]:   8329.85
	Linear fluid (dielectric constant: 78.4, screening length: 8.12261 Bohr) occupying 0.559801 of unit cell:	Completed after 5 iterations at t[s]:   8371.41
	Linear fluid (dielectric constant: 78.4, screening length: 8.12261 Bohr) occupying 0.559803 of unit cell:	Completed after 2 iterations at t[s]:   8401.93
	FillingsUpdate:  mu: -0.171300000  nElectrons: 416.255607  magneticMoment: [ Abs: 0.00000  Tot: -0.00000 ]
	SubspaceRotationAdjust: set factor to 0.0104
ElecMinimize: Iter:   4  G: -2241.962211743523312  |grad|_K:  6.745e-08  alpha:  6.691e-01  linmin: -1.173e-03  t[s]:   8450.08
	Linear fluid (dielectric constant: 78.4, screening length: 8.12261 Bohr) occupying 0.559847 of unit cell:	Completed after 9 iterations at t[s]:   8492.14
	Linear fluid (dielectric constant: 78.4, screening length: 8.12261 Bohr) occupying 0.559850 of unit cell:	Completed after 0 iterations at t[s]:   8522.39
	FillingsUpdate:  mu: -0.171300000  nElectrons: 416.256945  magneticMoment: [ Abs: 0.00000  Tot: -0.00000 ]
	SubspaceRotationAdjust: set factor to 0.0118
ElecMinimize: Iter:   5  G: -2241.962213749951843  |grad|_K:  6.672e-08  alpha:  7.183e-01  linmin: -8.043e-04  t[s]:   8569.49
	Linear fluid (dielectric constant: 78.4, screening length: 8.12261 Bohr) occupying 0.559854 of unit cell:	Completed after 10 iterations at t[s]:   8611.93
	Linear fluid (dielectric constant: 78.4, screening length: 8.12261 Bohr) occupying 0.559854 of unit cell:	Completed after 0 iterations at t[s]:   8641.64
	FillingsUpdate:  mu: -0.171300000  nElectrons: 416.256882  magneticMoment: [ Abs: 0.00000  Tot: -0.00000 ]
	SubspaceRotationAdjust: set factor to 0.0115
ElecMinimize: Iter:   6  G: -2241.962215687189200  |grad|_K:  7.736e-08  alpha:  7.082e-01  linmin:  4.482e-04  t[s]:   8689.02
	Linear fluid (dielectric constant: 78.4, screening length: 8.12261 Bohr) occupying 0.559977 of unit cell:	Completed after 12 iterations at t[s]:   8731.53
	Linear fluid (dielectric constant: 78.4, screening length: 8.12261 Bohr) occupying 0.559921 of unit cell:	Completed after 10 iterations at t[s]:   8764.00
	FillingsUpdate:  mu: -0.171300000  nElectrons: 416.259066  magneticMoment: [ Abs: 0.00000  Tot: -0.00000 ]
	SubspaceRotationAdjust: set factor to 0.00944
ElecMinimize: Iter:   7  G: -2241.962217089607293  |grad|_K:  7.378e-08  alpha:  3.878e-01  linmin:  8.268e-05  t[s]:   8811.26
	Linear fluid (dielectric constant: 78.4, screening length: 8.12261 Bohr) occupying 0.559922 of unit cell:	Completed after 10 iterations at t[s]:   8853.45
	Linear fluid (dielectric constant: 78.4, screening length: 8.12261 Bohr) occupying 0.559922 of unit cell:	Completed after 3 iterations at t[s]:   8883.98
	FillingsUpdate:  mu: -0.171300000  nElectrons: 416.259199  magneticMoment: [ Abs: 0.00000  Tot: -0.00000 ]
	SubspaceRotationAdjust: set factor to 0.00887
ElecMinimize: Iter:   8  G: -2241.962218823800413  |grad|_K:  6.238e-08  alpha:  5.235e-01  linmin: -1.815e-04  t[s]:   8931.46
	Linear fluid (dielectric constant: 78.4, screening length: 8.12261 Bohr) occupying 0.559944 of unit cell:	Completed after 5 iterations at t[s]:   8973.03
[...]
force Pt   0.000004550136616   0.000024648536824  -0.000185289948595 1
force Pt  -0.000010469591611  -0.000029722908568   0.000189792529485 1
force Pt  -0.000021767233430  -0.000031509908038   0.000193226515901 1
force Pt   0.000006573629406   0.000067809898358  -0.000160557281479 1
force Pt   0.000011996513239   0.000077537634632  -0.000160887108046 1
force Pt   0.000003675269442   0.000039368794768  -0.000151414440680 1
force Pt   0.000006156555712  -0.000034520272809  -0.000108822789966 1
force Pt   0.000001204609036   0.000045678062696   0.000107792851108 1
force Pt  -0.000013992589974   0.000009417929703   0.000176576650819 1
force Pt   0.000002012669259  -0.000038694791609   0.000024346163492 1
force Pt  -0.000006502387555   0.000023253436552   0.000120315295549 1
force Pt  -0.000004475645746  -0.000110418221829   0.000353985597932 1
force Pt  -0.000003456025450  -0.000017496300275   0.000292654752466 1
force Pt   0.000015025444894   0.000114874675857  -0.000257380951393 1
force Pt  -0.000025229810333  -0.000095072468684   0.000378180532572 1
force Pt   0.000019435020349   0.000029913363640  -0.000068689709602 1

# Energy components:
   A_diel =       -0.0859492087946242
   Eewald =    30665.2218241903901799
       EH =    32779.6509400148206623
     Eloc =   -66159.2957972914300626
      Enl =      -27.4076761638028366
     EvdW =       -0.6092069166891270
      Exc =     -739.7825723548510268
 Exc_core =      426.1759343365220047
       KE =      742.8827067476261163
  MuShift =       -0.0137219851330581
-------------------------------------
     Etot =    -2313.2635186313391387
       TS =        0.0045339759556448
-------------------------------------
        F =    -2313.2680526072949760
      muN =      -71.3057845057404904
-------------------------------------
        G =    -2241.9622681015544003


Dumping 'jdft.fillings' ... done
Dumping 'jdft.wfns' ... done
Dumping 'jdft.fluidState' ... done
Dumping 'jdft.ionpos' ... done
Dumping 'jdft.lattice' ... done
Dumping 'jdft.eigenvals' ... done
Dumping 'jdft.eigStats' ... 
	eMin: -2.120799 at state 58 ( [ -0.444444 +0.500000 +0.000000 ] spin -1 )
	HOMO: -0.171516 at state 18 ( [ +0.444444 +0.500000 +0.000000 ] spin 1 )
	mu  : -0.171300
	LUMO: -0.171197 at state 69 ( [ -0.111111 +0.250000 +0.000000 ] spin -1 )
	eMax: +0.111217 at state 0 ( [ +0.000000 +0.000000 +0.000000 ] spin 1 )
	HOMO-LUMO gap: +0.000320
	Optical gap  : +0.000796 at state 56 ( [ -0.444444 +0.000000 +0.000000 ] spin -1 )
Dumping 'jdft.Ecomponents' ... done
IonicMinimize: Iter:   8  G: -2241.962268101554400  |grad|_K:  1.245e-04  alpha:  1.000e+00  linmin:  1.345e-01  t[s]:  41864.37

#--- Lowdin population analysis ---
# oxidation-state Pt -0.039 +0.007 -0.036 +0.010 +0.007 +0.009 +0.009 +0.014 +0.010 -0.065 +0.040 -0.005 +0.037 -0.005 +0.007 +0.008 +0.013 +0.010 +0.007 +0.008 +0.012 -0.037 +0.036 -0.063 -0.041 +0.040
# magnetic-moments Pt -0.000 -0.000 -0.000 -0.000 -0.000 -0.000 -0.000 -0.000 -0.000 -0.000 -0.000 -0.000 -0.000 -0.000 -0.000 -0.000 -0.000 -0.000 -0.000 -0.000 -0.000 -0.000 -0.000 -0.000 -0.000 -0.000


Computing DFT-D3 correction:
# coordination-number Pt 6.997 9.392 8.581 9.510 9.535 9.448 9.565 9.550 9.393 8.627 5.282 9.394 5.971 9.397 9.451 9.397 9.551 9.563 9.390 9.534 9.508 8.578 5.282 8.629 6.994 5.972
# diagonal-C6 Pt 336.87 336.87 336.87 336.87 336.87 336.87 336.87 336.87 336.87 336.87 336.87 336.87 336.87 336.87 336.87 336.87 336.87 336.87 336.87 336.87 336.87 336.87 336.87 336.87 336.87 336.87
EvdW_6 =   -0.233145
EvdW_8 =   -0.376073
Shifting auxilliary hamiltonian by -0.000022 to set nElectrons=416.262607

-------- Electronic minimization -----------
	Linear fluid (dielectric constant: 78.4, screening length: 8.12261 Bohr) occupying 0.560018 of unit cell:	Completed after 17 iterations at t[s]:  41914.22
	FillingsUpdate:  mu: -0.171300000  nElectrons: 416.262607  magneticMoment: [ Abs: 0.00000  Tot: -0.00000 ]
ElecMinimize: Iter:   0  G: -2241.962204133880732  |grad|_K:  7.371e-07  alpha:  1.000e+00
	Linear fluid (dielectric constant: 78.4, screening length: 8.12261 Bohr) occupying 0.562706 of unit cell:	Completed after 18 iterations at t[s]:  42011.75
	Linear fluid (dielectric constant: 78.4, screening length: 8.12261 Bohr) occupying 0.560345 of unit cell:	Completed after 18 iterations at t[s]:  42044.43
	FillingsUpdate:  mu: -0.171300000  nElectrons: 416.273155  magneticMoment: [ Abs: 0.00000  Tot: -0.00000 ]
	SubspaceRotationAdjust: set factor to 0.00799
ElecMinimize: Iter:   1  G: -2241.962249053073720  |grad|_K:  1.946e-07  alpha:  1.367e-01  linmin:  5.505e-03  t[s]:  42092.45
	Linear fluid (dielectric constant: 78.4, screening length: 8.12261 Bohr) occupying 0.560317 of unit cell:	Completed after 9 iterations at t[s]:  42134.54
ElecMinimize: 	Predicted alpha/alphaT>3.000000, increasing alphaT to 4.100341e-01.
	Linear fluid (dielectric constant: 78.4, screening length: 8.12261 Bohr) occupying 0.560261 of unit cell:	Completed after 11 iterations at t[s]:  42166.42
	Linear fluid (dielectric constant: 78.4, screening length: 8.12261 Bohr) occupying 0.560258 of unit cell:	Completed after 2 iterations at t[s]:  42197.03
	FillingsUpdate:  mu: -0.171300000  nElectrons: 416.270560  magneticMoment: [ Abs: 0.00000  Tot: -0.00000 ]
	SubspaceRotationAdjust: set factor to 0.0121
ElecMinimize: Iter:   2  G: -2241.962258773212398  |grad|_K:  9.584e-08  alpha:  4.243e-01  linmin: -3.070e-03  t[s]:  42244.44
	Linear fluid (dielectric constant: 78.4, screening length: 8.12261 Bohr) occupying 0.560235 of unit cell:	Completed after 7 iterations at t[s]:  42286.25
	Linear fluid (dielectric constant: 78.4, screening length: 8.12261 Bohr) occupying 0.560230 of unit cell:	Completed after 2 iterations at t[s]:  42316.88
	FillingsUpdate:  mu: -0.171300000  nElectrons: 416.269849  magneticMoment: [ Abs: 0.00000  Tot: -0.00000 ]
	SubspaceRotationAdjust: set factor to 0.0152
ElecMinimize: Iter:   3  G: -2241.962261717584170  |grad|_K:  6.865e-08  alpha:  5.221e-01  linmin: -8.459e-04  t[s]:  42365.38
	Linear fluid (dielectric constant: 78.4, screening length: 8.12261 Bohr) occupying 0.560195 of unit cell:	Completed after 8 iterations at t[s]:  42407.41
	Linear fluid (dielectric constant: 78.4, screening length: 8.12261 Bohr) occupying 0.560186 of unit cell:	Completed after 2 iterations at t[s]:  42437.98
	FillingsUpdate:  mu: -0.171300000  nElectrons: 416.268708  magneticMoment: [ Abs: 0.00000  Tot: -0.00000 ]
	SubspaceRotationAdjust: set factor to 0.0188
ElecMinimize: Iter:   4  G: -2241.962263585297478  |grad|_K:  6.300e-08  alpha:  6.449e-01  linmin: -3.106e-03  t[s]:  42485.67
	Linear fluid (dielectric constant: 78.4, screening length: 8.12261 Bohr) occupying 0.560134 of unit cell:	Completed after 9 iterations at t[s]:  42527.66
	Linear fluid (dielectric constant: 78.4, screening length: 8.12261 Bohr) occupying 0.560129 of unit cell:	Completed after 2 iterations at t[s]:  42558.51
	FillingsUpdate:  mu: -0.171300000  nElectrons: 416.267143  magneticMoment: [ Abs: 0.00000  Tot: -0.00000 ]
	SubspaceRotationAdjust: set factor to 0.0213
ElecMinimize: Iter:   5  G: -2241.962265328547801  |grad|_K:  5.419e-08  alpha:  7.030e-01  linmin: -2.297e-03  t[s]:  42606.00
	Linear fluid (dielectric constant: 78.4, screening length: 8.12261 Bohr) occupying 0.560118 of unit cell:	Completed after 10 iterations at t[s]:  42648.21
	Linear fluid (dielectric constant: 78.4, screening length: 8.12261 Bohr) occupying 0.560119 of unit cell:	Completed after 0 iterations at t[s]:  42679.61
	FillingsUpdate:  mu: -0.171300000  nElectrons: 416.266902  magneticMoment: [ Abs: 0.00000  Tot: -0.00000 ]
	SubspaceRotationAdjust: set factor to 0.0183
ElecMinimize: Iter:   6  G: -2241.962266529214503  |grad|_K:  6.973e-08  alpha:  6.549e-01  linmin:  1.663e-03  t[s]:  42727.11
	Linear fluid (dielectric constant: 78.4, screening length: 8.12261 Bohr) occupying 0.559922 of unit cell:	Completed after 11 iterations at t[s]:  42769.67
	Linear fluid (dielectric constant: 78.4, screening length: 8.12261 Bohr) occupying 0.560074 of unit cell:	Completed after 12 iterations at t[s]:  42801.81
	FillingsUpdate:  mu: -0.171300000  nElectrons: 416.265438  magneticMoment: [ Abs: 0.00000  Tot: -0.00000 ]
	SubspaceRotationAdjust: set factor to 0.0119
ElecMinimize: Iter:   7  G: -2241.962266937465301  |grad|_K:  4.986e-08  alpha:  1.489e-01  linmin:  1.365e-03  t[s]:  42849.23
	Linear fluid (dielectric constant: 78.4, screening length: 8.12261 Bohr) occupying 0.560070 of unit cell:	Completed after 0 iterations at t[s]:  42890.00
ElecMinimize: 	Predicted alpha/alphaT>3.000000, increasing alphaT to 4.466655e-01.
	Linear fluid (dielectric constant: 78.4, screening length: 8.12261 Bohr) occupying 0.560062 of unit cell:	Completed after 2 iterations at t[s]:  42920.50
	Linear fluid (dielectric constant: 78.4, screening length: 8.12261 Bohr) occupying 0.560062 of unit cell:	Completed after 0 iterations at t[s]:  42951.65
	FillingsUpdate:  mu: -0.171300000  nElectrons: 416.264904  magneticMoment: [ Abs: 0.00000  Tot: -0.00000 ]
	SubspaceRotationAdjust: set factor to 0.0156
ElecMinimize: Iter:   8  G: -2241.962267636862180  |grad|_K:  3.663e-08  alpha:  4.694e-01  linmin: -2.569e-04  t[s]:  42999.07
	Linear fluid (dielectric constant: 78.4, screening length: 8.12261 Bohr) occupying 0.560080 of unit cell:	Completed after 9 iterations at t[s]:  43041.18
	Linear fluid (dielectric constant: 78.4, screening length: 8.12261 Bohr) occupying 0.560074 of unit cell:	Completed after 3 iterations at t[s]:  43072.06
	FillingsUpdate:  mu: -0.171300000  nElectrons: 416.265170  magneticMoment: [ Abs: 0.00000  Tot: -0.00000 ]
	SubspaceRotationAdjust: set factor to 0.0115
ElecMinimize: Iter:   9  G: -2241.962267899340532  |grad|_K:  4.534e-08  alpha:  3.277e-01  linmin:  7.976e-04  t[s]:  43119.56
	Linear fluid (dielectric constant: 78.4, screening length: 8.12261 Bohr) occupying 0.560042 of unit cell:	Completed after 9 iterations at t[s]:  43161.72
	Linear fluid (dielectric constant: 78.4, screening length: 8.12261 Bohr) occupying 0.560054 of unit cell:	Completed after 6 iterations at t[s]:  43192.93
	FillingsUpdate:  mu: -0.171300000  nElectrons: 416.264342  magneticMoment: [ Abs: 0.00000  Tot: -0.00000 ]
	SubspaceRotationAdjust: set factor to 0.0116
ElecMinimize: Iter:  10  G: -2241.962268138071067  |grad|_K:  2.435e-08  alpha:  1.996e-01  linmin:  8.769e-04  t[s]:  43240.45
	Linear fluid (dielectric constant: 78.4, screening length: 8.12261 Bohr) occupying 0.560052 of unit cell:	Completed after 2 iterations at t[s]:  43282.92
	Linear fluid (dielectric constant: 78.4, screening length: 8.12261 Bohr) occupying 0.560049 of unit cell:	Completed after 2 iterations at t[s]:  43313.45
	FillingsUpdate:  mu: -0.171300000  nElectrons: 416.263974  magneticMoment: [ Abs: 0.00000  Tot: -0.00000 ]
	SubspaceRotationAdjust: set factor to 0.0135
ElecMinimize: Iter:  11  G: -2241.962268316741302  |grad|_K:  1.921e-08  alpha:  4.709e-01  linmin: -9.315e-03  t[s]:  43361.26
	Linear fluid (dielectric constant: 78.4, screening length: 8.12261 Bohr) occupying 0.560062 of unit cell:	Completed after 6 iterations at t[s]:  43403.00
	Linear fluid (dielectric constant: 78.4, screening length: 8.12261 Bohr) occupying 0.560062 of unit cell:	Completed after 0 iterations at t[s]:  43433.08
	FillingsUpdate:  mu: -0.171300000  nElectrons: 416.264257  magneticMoment: [ Abs: 0.00000  Tot: -0.00000 ]
	SubspaceRotationAdjust: set factor to 0.0123
ElecMinimize: Iter:  12  G: -2241.962268428560492  |grad|_K:  1.873e-08  alpha:  4.581e-01  linmin:  5.758e-03  t[s]:  43480.51
	Linear fluid (dielectric constant: 78.4, screening length: 8.12261 Bohr) occupying 0.560056 of unit cell:	Completed after 3 iterations at t[s]:  43521.72
	Linear fluid (dielectric constant: 78.4, screening length: 8.12261 Bohr) occupying 0.560057 of unit cell:	Completed after 0 iterations at t[s]:  43552.69
	FillingsUpdate:  mu: -0.171300000  nElectrons: 416.263955  magneticMoment: [ Abs: 0.00000  Tot: -0.00000 ]
	SubspaceRotationAdjust: set factor to 0.014
ElecMinimize: Iter:  13  G: -2241.962268516251243  |grad|_K:  1.368e-08  alpha:  4.376e-01  linmin: -1.614e-03  t[s]:  43600.42
	Linear fluid (dielectric constant: 78.4, screening length: 8.12261 Bohr) occupying 0.560056 of unit cell:	Completed after 2 iterations at t[s]:  43641.69
	Linear fluid (dielectric constant: 78.4, screening length: 8.12261 Bohr) occupying 0.560055 of unit cell:	Completed after 0 iterations at t[s]:  43671.84
	FillingsUpdate:  mu: -0.171300000  nElectrons: 416.263858  magneticMoment: [ Abs: 0.00000  Tot: -0.00000 ]
	SubspaceRotationAdjust: set factor to 0.0168
ElecMinimize: Iter:  14  G: -2241.962268577896793  |grad|_K:  1.215e-08  alpha:  5.190e-01  linmin: -6.765e-03  t[s]:  43719.27
ElecMinimize: Converged (|Delta G|<1.000000e-07 for 2 iters).
Setting wave functions to eigenvectors of Hamiltonian
Converging empty states (this may take a while): |deigs|: 4.264e-09

Computing DFT-D3 correction:
# coordination-number Pt 6.997 9.392 8.581 9.510 9.535 9.448 9.565 9.550 9.393 8.627 5.282 9.394 5.971 9.397 9.451 9.397 9.551 9.563 9.390 9.534 9.508 8.578 5.282 8.629 6.994 5.972
# diagonal-C6 Pt 336.87 336.87 336.87 336.87 336.87 336.87 336.87 336.87 336.87 336.87 336.87 336.87 336.87 336.87 336.87 336.87 336.87 336.87 336.87 336.87 336.87 336.87 336.87 336.87 336.87 336.87
EvdW_6 =   -0.233145
EvdW_8 =   -0.376073

# Ionic positions in cartesian coordinates:
ion Pt   0.004654086506855  10.244359370666446  24.366862894405191 1
ion Pt   0.002631641562086   4.101673277483370  19.959895822986116 1
ion Pt   3.705118497406044   7.312150112723210  22.281716969356641 1
ion Pt   3.698764896882525   1.003196680461598  17.915344298045099 1
ion Pt  -0.001452561481096   8.212795716121656  13.889369402013209 1
ion Pt   0.001502339320715   2.050075974249909   9.724030400165852 1
ion Pt   3.697111462309112  11.267016924745944  15.905503554393432 1
ion Pt   3.700471303965996   5.131960176516428  11.799599295387850 1
ion Pt  -0.001645604588937  12.350495719191642   7.622113296041013 1
ion Pt  -0.002580413917388   6.106664831036005   3.512814652501707 1
ion Pt   0.005535301611903   0.003457858967851  25.880671011096354 1
ion Pt   3.697560048733827   9.240004261522147   5.729498411095534 1
ion Pt   3.694962369231569   3.045637105210176   1.681870682734172 1
ion Pt   3.701592751392039  12.307863063445984  20.948679028888890 1
ion Pt   3.698045668404863   6.158300993123686  16.954734914121175 1
ion Pt   0.001586925653016   9.197128436032811  19.056298708411088 1
ion Pt  -0.000935065174145   3.076034837328294  14.879414125288635 1
ion Pt   3.702108195963625  10.279511948644279  10.773410783748645 1
ion Pt   3.696790501142066   4.106831757736067   6.717807829339476 1
ion Pt   0.001439789860822  13.333791499418750  12.789909877575374 1
ion Pt   0.000764324166145   7.204769064597981   8.763109670034819 1
ion Pt  -0.005565064699856   0.896981449360375   4.395710259742590 1
ion Pt   3.694150418448687   8.205847528829381   0.796731584991813 1
ion Pt   3.702205847774501   2.102758247673770  23.164587464605706 1
ion Pt  -0.004482037249130  11.304065493502522   2.309940943340281 1
ion Pt   0.004612376774147   5.163926671409664  24.994849119689281 1

# Forces in Cartesian coordinates:
force Pt   0.000014939058332   0.000126765431790   0.000141196412266 1
force Pt   0.000013879544553  -0.000030421269486   0.000071345420474 1
force Pt   0.000015140235515   0.000039184008797   0.000095302351479 1
force Pt   0.000009076659501  -0.000019984588688  -0.000063137528453 1
force Pt  -0.000001217166244   0.000127469794101  -0.000201410138805 1
force Pt  -0.000013282635258  -0.000091245647567   0.000045976936925 1
force Pt  -0.000001849608106   0.000018284891899  -0.000232715160277 1
force Pt  -0.000005121462258   0.000037283903464  -0.000058283527289 1
force Pt  -0.000001737371857  -0.000035600145151   0.000086977793827 1
force Pt  -0.000017388598592  -0.000131115840847   0.000036649347832 1
force Pt   0.000007458100512   0.000025922977320   0.000213088057620 1
force Pt  -0.000011688264690  -0.000064489249620   0.000002055367771 1
force Pt  -0.000015809868791  -0.000090889790320  -0.000186116081159 1
force Pt   0.000008274108541   0.000105626528468   0.000093963909574 1
force Pt   0.000011832772146   0.000064682874262  -0.000119217155562 1
force Pt   0.000001569840454   0.000051783295686  -0.000055414146289 1
force Pt   0.000004837944398  -0.000065495547994  -0.000138171966138 1
force Pt   0.000001524562109   0.000030851387361   0.000086833126741 1
force Pt  -0.000013653452110  -0.000001526525580   0.000029099306311 1
force Pt   0.000000986294686  -0.000102159693165  -0.000033998702429 1
force Pt  -0.000008708255836   0.000025689724919   0.000052504869402 1
force Pt  -0.000015194849110  -0.000030714976480   0.000055605395878 1
force Pt  -0.000007688170350  -0.000017105177393  -0.000134644697347 1
force Pt   0.000014318816766   0.000126938866018   0.000121595714561 1
force Pt  -0.000016624065582  -0.000097610055164   0.000022346301513 1
force Pt   0.000015529058445   0.000077093535487   0.000324877040826 1

# Energy components:
   A_diel =       -0.0863734059287287
   Eewald =    30665.7106502643582644
       EH =    32780.1712193174898857
     Eloc =   -66160.3036102003970882
      Enl =      -27.4078500328008339
     EvdW =       -0.6092177942061079
      Exc =     -739.7825056981034777
 Exc_core =      426.1759344571484576
       KE =      742.8818071705524062
  MuShift =       -0.0137873609242748
-------------------------------------
     Etot =    -2313.2637332828071521
       TS =        0.0045341209616275
-------------------------------------
        F =    -2313.2682674037687320
      muN =      -71.3059988258717823
-------------------------------------
        G =    -2241.9622685778967934


Dumping 'jdft.fillings' ... done
Dumping 'jdft.wfns' ... done
Dumping 'jdft.fluidState' ... done
Dumping 'jdft.ionpos' ... done
Dumping 'jdft.lattice' ... done
Dumping 'jdft.eigenvals' ... done
Dumping 'jdft.eigStats' ... 
	eMin: -2.120872 at state 54 ( [ +0.444444 +0.500000 +0.000000 ] spin -1 )
	HOMO: -0.171581 at state 22 ( [ -0.444444 +0.500000 +0.000000 ] spin 1 )
	mu  : -0.171300
	LUMO: -0.171265 at state 43 ( [ +0.111111 -0.250000 +0.000000 ] spin -1 )
	eMax: +0.111247 at state 0 ( [ +0.000000 +0.000000 +0.000000 ] spin 1 )
	HOMO-LUMO gap: +0.000316
	Optical gap  : +0.000779 at state 52 ( [ +0.444444 +0.000000 +0.000000 ] spin -1 )
Dumping 'jdft.Ecomponents' ... done
IonicMinimize: Iter:   9  G: -2241.962268577896793  |grad|_K:  8.558e-05  alpha:  1.000e+00  linmin: -3.421e-01  t[s]:  43844.23
IonicMinimize: Converged (|grad|_K<1.000000e-04).

#--- Lowdin population analysis ---
# oxidation-state Pt -0.037 +0.004 -0.036 +0.007 +0.008 +0.008 +0.008 +0.014 +0.009 -0.065 +0.041 -0.005 +0.041 -0.005 +0.007 +0.008 +0.013 +0.010 +0.005 +0.008 +0.009 -0.036 +0.040 -0.064 -0.038 +0.042
# magnetic-moments Pt -0.000 -0.000 -0.000 -0.000 -0.000 -0.000 -0.000 -0.000 -0.000 -0.000 -0.000 -0.000 -0.000 -0.000 -0.000 -0.000 -0.000 -0.000 -0.000 -0.000 -0.000 -0.000 -0.000 -0.000 -0.000 -0.000


Dumping 'jdft.n_up' ... done
Dumping 'jdft.n_dn' ... done
Dumping 'jdft.tau_up' ... done
Dumping 'jdft.tau_dn' ... done
Dumping 'jdft.eigenvals' ... done
Dumping 'jdft.eigStats' ... 
	eMin: -2.120872 at state 54 ( [ +0.444444 +0.500000 +0.000000 ] spin -1 )
	HOMO: -0.171581 at state 22 ( [ -0.444444 +0.500000 +0.000000 ] spin 1 )
	mu  : -0.171300
	LUMO: -0.171265 at state 43 ( [ +0.111111 -0.250000 +0.000000 ] spin -1 )
	eMax: +0.111247 at state 0 ( [ +0.000000 +0.000000 +0.000000 ] spin 1 )
	HOMO-LUMO gap: +0.000316
	Optical gap  : +0.000779 at state 52 ( [ +0.444444 +0.000000 +0.000000 ] spin -1 )
Dumping 'jdft.kPts' ... done
Dumping 'jdft.dosUp' ... done.
Dumping 'jdft.dosDn' ... done.
End date and time: Thu Dec  9 17:58:29 2021  (Duration: 0-12:11:59.05)
Done!
