
*************** JDFTx 1.7.0 (git hash 5f12716a) ***************

Start date and time: Mon Sep 12 13:56:57 2022
Executable /home/nisi6161/jdftx_alpine/build/jdftx with command-line: -i in
Running on hosts (process indices):  c3cpu-a2-u19-4.rc.int.colorado.edu (0-23)
Divided in process groups (process indices):  0 (0)  1 (1)  2 (2)  3 (3)  4 (4)  5 (5)  6 (6)  7 (7)  8 (8)  9 (9)  10 (10)  11 (11)  12 (12)  13 (13)  14 (14)  15 (15)  16 (16)  17 (17)  18 (18)  19 (19)  20 (20)  21 (21)  22 (22)  23 (23)
Resource initialization completed at t[s]:      0.00
Run totals: 24 processes, 64 threads, 0 GPUs


Input parsed successfully to the following command list (including defaults):

basis kpoint-dependent
converge-empty-states yes
coords-type Cartesian
core-overlap-check none
coulomb-interaction Periodic
davidson-band-ratio 1.1
density-of-states Etol 1.000000e-06 Esigma 1.000000e-03 \
		Complete \
	Total \
	OrthoOrbital Cu 1   s \
	OrthoOrbital Cu 1   p \
	OrthoOrbital Cu 1   px \
	OrthoOrbital Cu 1   py \
	OrthoOrbital Cu 1   pz \
	OrthoOrbital Cu 1   d \
	OrthoOrbital Cu 1   dxy \
	OrthoOrbital Cu 1   dyz \
	OrthoOrbital Cu 1   dz2 \
	OrthoOrbital Cu 1   dxz \
	OrthoOrbital Cu 1   dx2-y2 \
	OrthoOrbital Cu 2   s \
	OrthoOrbital Cu 2   p \
	OrthoOrbital Cu 2   px \
	OrthoOrbital Cu 2   py \
	OrthoOrbital Cu 2   pz \
	OrthoOrbital Cu 2   d \
	OrthoOrbital Cu 2   dxy \
	OrthoOrbital Cu 2   dyz \
	OrthoOrbital Cu 2   dz2 \
	OrthoOrbital Cu 2   dxz \
	OrthoOrbital Cu 2   dx2-y2 \
	OrthoOrbital Cu 3   s \
	OrthoOrbital Cu 3   p \
	OrthoOrbital Cu 3   px \
	OrthoOrbital Cu 3   py \
	OrthoOrbital Cu 3   pz \
	OrthoOrbital Cu 3   d \
	OrthoOrbital Cu 3   dxy \
	OrthoOrbital Cu 3   dyz \
	OrthoOrbital Cu 3   dz2 \
	OrthoOrbital Cu 3   dxz \
	OrthoOrbital Cu 3   dx2-y2 \
	OrthoOrbital Cu 4   s \
	OrthoOrbital Cu 4   p \
	OrthoOrbital Cu 4   px \
	OrthoOrbital Cu 4   py \
	OrthoOrbital Cu 4   pz \
	OrthoOrbital Cu 4   d \
	OrthoOrbital Cu 4   dxy \
	OrthoOrbital Cu 4   dyz \
	OrthoOrbital Cu 4   dz2 \
	OrthoOrbital Cu 4   dxz \
	OrthoOrbital Cu 4   dx2-y2 \
	OrthoOrbital Cu 5   s \
	OrthoOrbital Cu 5   p \
	OrthoOrbital Cu 5   px \
	OrthoOrbital Cu 5   py \
	OrthoOrbital Cu 5   pz \
	OrthoOrbital Cu 5   d \
	OrthoOrbital Cu 5   dxy \
	OrthoOrbital Cu 5   dyz \
	OrthoOrbital Cu 5   dz2 \
	OrthoOrbital Cu 5   dxz \
	OrthoOrbital Cu 5   dx2-y2 \
	OrthoOrbital Cu 6   s \
	OrthoOrbital Cu 6   p \
	OrthoOrbital Cu 6   px \
	OrthoOrbital Cu 6   py \
	OrthoOrbital Cu 6   pz \
	OrthoOrbital Cu 6   d \
	OrthoOrbital Cu 6   dxy \
	OrthoOrbital Cu 6   dyz \
	OrthoOrbital Cu 6   dz2 \
	OrthoOrbital Cu 6   dxz \
	OrthoOrbital Cu 6   dx2-y2 \
	OrthoOrbital Cu 7   s \
	OrthoOrbital Cu 7   p \
	OrthoOrbital Cu 7   px \
	OrthoOrbital Cu 7   py \
	OrthoOrbital Cu 7   pz \
	OrthoOrbital Cu 7   d \
	OrthoOrbital Cu 7   dxy \
	OrthoOrbital Cu 7   dyz \
	OrthoOrbital Cu 7   dz2 \
	OrthoOrbital Cu 7   dxz \
	OrthoOrbital Cu 7   dx2-y2 \
	OrthoOrbital Cu 8   s \
	OrthoOrbital Cu 8   p \
	OrthoOrbital Cu 8   px \
	OrthoOrbital Cu 8   py \
	OrthoOrbital Cu 8   pz \
	OrthoOrbital Cu 8   d \
	OrthoOrbital Cu 8   dxy \
	OrthoOrbital Cu 8   dyz \
	OrthoOrbital Cu 8   dz2 \
	OrthoOrbital Cu 8   dxz \
	OrthoOrbital Cu 8   dx2-y2 \
	OrthoOrbital Cu 9   s \
	OrthoOrbital Cu 9   p \
	OrthoOrbital Cu 9   px \
	OrthoOrbital Cu 9   py \
	OrthoOrbital Cu 9   pz \
	OrthoOrbital Cu 9   d \
	OrthoOrbital Cu 9   dxy \
	OrthoOrbital Cu 9   dyz \
	OrthoOrbital Cu 9   dz2 \
	OrthoOrbital Cu 9   dxz \
	OrthoOrbital Cu 9   dx2-y2 \
	OrthoOrbital Cu 10   s \
	OrthoOrbital Cu 10   p \
	OrthoOrbital Cu 10   px \
	OrthoOrbital Cu 10   py \
	OrthoOrbital Cu 10   pz \
	OrthoOrbital Cu 10   d \
	OrthoOrbital Cu 10   dxy \
	OrthoOrbital Cu 10   dyz \
	OrthoOrbital Cu 10   dz2 \
	OrthoOrbital Cu 10   dxz \
	OrthoOrbital Cu 10   dx2-y2 \
	OrthoOrbital Cu 11   s \
	OrthoOrbital Cu 11   p \
	OrthoOrbital Cu 11   px \
	OrthoOrbital Cu 11   py \
	OrthoOrbital Cu 11   pz \
	OrthoOrbital Cu 11   d \
	OrthoOrbital Cu 11   dxy \
	OrthoOrbital Cu 11   dyz \
	OrthoOrbital Cu 11   dz2 \
	OrthoOrbital Cu 11   dxz \
	OrthoOrbital Cu 11   dx2-y2
dump End ElecDensity KEdensity BandEigs EigStats RhoAtom DOS Kpoints
dump Ionic State IonicPositions Lattice EigStats Ecomponents
dump 
dump 
dump 
dump 
dump 
dump 
dump 
dump 
dump-name jdft.$VAR
elec-cutoff 20
elec-eigen-algo Davidson
elec-ex-corr gga-PBE
elec-initial-magnetization 0.000000 no
elec-n-bands 126
elec-smearing Fermi 0.001
electronic-minimize  \
	dirUpdateScheme      FletcherReeves \
	linminMethod         DirUpdateRecommended \
	nIterations          100 \
	history              15 \
	knormThreshold       0 \
	energyDiffThreshold  1e-07 \
	nEnergyDiff          2 \
	alphaTstart          1 \
	alphaTmin            1e-10 \
	updateTestStepSize   yes \
	alphaTreduceFactor   0.1 \
	alphaTincreaseFactor 3 \
	nAlphaAdjustMax      3 \
	wolfeEnergy          0.0001 \
	wolfeGradient        0.9 \
	fdTest               no
exchange-regularization WignerSeitzTruncated
fluid LinearPCM 298.000000 1.013250
fluid-anion F- 0.5 MeanFieldLJ \
	epsBulk 1 \
	pMol 0 \
	epsInf 1 \
	Pvap 0 \
	sigmaBulk 0 \
	Rvdw 2.24877 \
	Res 0 \
	tauNuc 343133
fluid-cation Na+ 0.5 MeanFieldLJ \
	epsBulk 1 \
	pMol 0 \
	epsInf 1 \
	Pvap 0 \
	sigmaBulk 0 \
	Rvdw 2.19208 \
	Res 0 \
	tauNuc 343133
fluid-ex-corr lda-TF lda-PZ
fluid-gummel-loop 10 1.000000e-05
fluid-minimize  \
	dirUpdateScheme      PolakRibiere \
	linminMethod         DirUpdateRecommended \
	nIterations          400 \
	history              15 \
	knormThreshold       1e-11 \
	energyDiffThreshold  0 \
	nEnergyDiff          2 \
	alphaTstart          1 \
	alphaTmin            1e-10 \
	updateTestStepSize   yes \
	alphaTreduceFactor   0.1 \
	alphaTincreaseFactor 3 \
	nAlphaAdjustMax      6 \
	wolfeEnergy          0.0001 \
	wolfeGradient        0.9 \
	fdTest               no
fluid-solvent H2O 55.338 ScalarEOS \
	epsBulk 78.4 \
	pMol 0.92466 \
	epsInf 1.77 \
	Pvap 1.06736e-10 \
	sigmaBulk 4.62e-05 \
	Rvdw 2.61727 \
	Res 1.42 \
	tauNuc 343133 \
	poleEl 15 7 1
forces-output-coords Positions
initial-state jdft.$VAR
ion Cu   0.001580000000000  -0.002806000000000  21.263675000000003 1
ion Cu  -0.002228000000000   4.314517000000000   1.091669000000000 1
ion Cu   2.381829000000001   0.714888000000000   2.936762000000000 1
ion Cu   2.382684000000001   5.058367000000000   5.057120000000001 1
ion Cu   0.002734000000000   1.433387000000000   7.105375000000001 1
ion Cu   0.000074000000001   5.739328000000000   9.137264000000002 1
ion Cu   2.383383000000000   2.155682000000000  11.181026000000001 1
ion Cu   2.382813000000001   6.476175000000000  13.219086000000003 1
ion Cu  -0.002023000000000   2.878181000000000  15.255402000000002 1
ion Cu   0.000674000000001   7.157452000000001  17.298358000000004 1
ion Cu   2.385034000000000   3.597574000000000  19.420460000000002 1
ion-species /projects/musgravc/apps/jdftx-1.6.0/build/pseudopotentials/GBRV_v1.5/$ID_pbe_v1.uspp
ion-species /projects/musgravc/apps/jdftx-1.6.0/build/pseudopotentials/GBRV_v1.5/$ID_pbe_v1.2.uspp
ion-species /projects/musgravc/apps/jdftx-1.6.0/build/pseudopotentials/GBRV_v1.5/$ID_pbe_v1.4.uspp
ion-species /projects/musgravc/apps/jdftx-1.6.0/build/pseudopotentials/GBRV_v1.5/$ID_pbe_v1.5.uspp
ion-width Ecut
ionic-minimize  \
	dirUpdateScheme      L-BFGS \
	linminMethod         DirUpdateRecommended \
	nIterations          100 \
	history              15 \
	knormThreshold       0.0001 \
	energyDiffThreshold  0.0001 \
	nEnergyDiff          2 \
	alphaTstart          1 \
	alphaTmin            1e-10 \
	updateTestStepSize   yes \
	alphaTreduceFactor   0.1 \
	alphaTincreaseFactor 3 \
	nAlphaAdjustMax      3 \
	wolfeEnergy          0.0001 \
	wolfeGradient        0.9 \
	fdTest               no
kpoint   0.000000000000   0.000000000000   0.000000000000  1.00000000000000
kpoint-folding 13 7 1 
latt-move-scale 0 0 0
latt-scale 1 1 1 
lattice  \
	   4.766623000000000   -2.383311000000000    0.000000000000000  \
	   0.000000000000000    7.904551000000000    0.000000000000000  \
	   0.000000000000000    0.000000000000000   67.072337000000005 
lattice-minimize  \
	dirUpdateScheme      L-BFGS \
	linminMethod         DirUpdateRecommended \
	nIterations          0 \
	history              15 \
	knormThreshold       0 \
	energyDiffThreshold  1e-06 \
	nEnergyDiff          2 \
	alphaTstart          1 \
	alphaTmin            1e-10 \
	updateTestStepSize   yes \
	alphaTreduceFactor   0.1 \
	alphaTincreaseFactor 3 \
	nAlphaAdjustMax      3 \
	wolfeEnergy          0.0001 \
	wolfeGradient        0.9 \
	fdTest               no
lcao-params 30 1e-06 0.001
pcm-variant CANDLE
spintype z-spin
subspace-rotation-factor 1 yes
symmetries automatic
symmetry-threshold 0.0001
target-mu -0.208 no

van-der-waals D3



---------- Setting up symmetries ----------

Found 8 point-group symmetries of the bravais lattice
Found 1 space-group symmetries with basis
Applied RMS atom displacement 0 bohrs to make symmetries exact.

---------- Initializing the Grid ----------
R = 
[      4.76662     -2.38331            0  ]
[            0      7.90455            0  ]
[            0            0      67.0723  ]
unit cell volume = 2527.15
G =
[    1.31816   0.397441         -0  ]
[          0   0.794882          0  ]
[          0         -0  0.0936777  ]
Minimum fftbox size, Smin = [  20  36  272  ]
Chosen fftbox size, S = [  20  36  280  ]

---------- Exchange Correlation functional ----------
Initalized PBE GGA exchange.
Initalized PBE GGA correlation.

---------- Setting up pseudopotentials ----------
Width of ionic core gaussian charges (only for fluid interactions / plotting) set to 0.397384

Reading pseudopotential file '/projects/musgravc/apps/jdftx-1.6.0/build/pseudopotentials/GBRV_v1.5/cu_pbe_v1.2.uspp':
  Title: Cu.  Created by USPP 7.3.6 on 3-2-2014
  Reference state energy: -201.059491.  19 valence electrons in orbitals:
    |300>  occupation: 2  eigenvalue: -5.020764
    |310>  occupation: 6  eigenvalue: -3.445588
    |320>  occupation: 8  eigenvalue: -0.925168
    |400>  occupation: 2  eigenvalue: -0.567638
    |410>  occupation: 0  eigenvalue: -0.326154
  lMax: 2  lLocal: 3  QijEcut: 6
  6 projectors sampled on a log grid with 613 points:
    l: 0  eig: -5.020767  rCut: 1.4
    l: 0  eig: -0.567640  rCut: 1.4
    l: 1  eig: -3.445589  rCut: 1.55
    l: 1  eig: -0.326157  rCut: 1.55
    l: 2  eig: -0.925170  rCut: 1.5
    l: 2  eig: 1.500000  rCut: 1.5
  Partial core density with radius 0.8
  Transforming core density to a uniform radial grid of dG=0.02 with 1309 points.
  Transforming local potential to a uniform radial grid of dG=0.02 with 1309 points.
  Transforming nonlocal projectors to a uniform radial grid of dG=0.02 with 432 points.
  Transforming density augmentations to a uniform radial grid of dG=0.02 with 1309 points.
  Transforming atomic orbitals to a uniform radial grid of dG=0.02 with 432 points.
  Core radius for overlap checks: 1.55 bohrs.

Initialized 1 species with 11 total atoms.

Folded 1 k-points by 13x7x1 to 91 k-points.

---------- Setting up k-points, bands, fillings ----------
Adding inversion symmetry to k-mesh for non-inversion-symmetric unit cell.
Reduced to 46 k-points under symmetry. 
Computing the number of bands and number of electrons
Reading initial fillings from file jdft.fillings.
nElectrons: 208.490998   nBands: 126   nStates: 92

----- Setting up reduced wavefunction bases (one per k-point) -----
average nbasis = 10795.527 , ideal nbasis = 10796.188

----- Initializing Supercell corresponding to k-point mesh -----
Lattice vector linear combinations in supercell:
[  13   0   0  ]
[   0   7   0  ]
[   0   0   1  ]
Supercell lattice vectors:
[  61.9661  -16.6832  0  ]
[  0  55.3319  0  ]
[  0  0  67.0723  ]

Initializing DFT-D3 calculator:
	Parameters set for gga-PBE functional
	s6:  1.000  s_r6:  1.217
	s8:  0.722  s_r8:  1.000
	Per-atom parameters loaded for:
	Cu:  sqrtQ[a0]:  5.226  Rcov[a0]:  1.909  CN: [ 0.00 0.96 ]

Initializing DFT-D2 calculator for fluid / solvation:
	Cu:  C6:  187.33 Eh-a0^6  R0: 2.952 a0

---------- Setting up ewald sum ----------
Optimum gaussian width for ewald sums = 3.643805 bohr.
Real space sum over 1235 unit cells with max indices [  9  6  2  ]
Reciprocal space sum over 4543 terms with max indices [  3  5  29  ]

Computing DFT-D3 correction:
# coordination-number Cu 5.593 5.591 7.569 9.120 8.988 9.112 9.122 9.115 8.995 9.125 7.574
# diagonal-C6 Cu 175.00 175.00 175.00 175.00 175.00 175.00 175.00 175.00 175.00 175.00 175.00
EvdW_6 =   -0.066521
EvdW_8 =   -0.099012

---------- Allocating electronic variables ----------
Initializing wave functions:  reading from 'jdft.wfns'
----- createFluidSolver() ----- (Fluid-side solver setup)
   Initializing fluid molecule 'H2O'
     Initializing site 'O'
       Electron density: proportional to exp(-r/0.36935)*erfc((r-0.51523)/0.36823) with norm 6.826
       Charge density: gaussian nuclear width 0.478731 with net site charge 0.826
       Polarizability: cuspless exponential with width 0.32 and norm 3.73
       Hard sphere radius: 2.57003 bohrs
       Positions in reference frame:
         [ +0.000000 +0.000000 +0.000000 ]
     Initializing site 'H'
       Electron density: proportional to exp(-r/0.34641)*erfc((r-0)/0.390882) with norm 0.587
       Charge density: gaussian nuclear width 0.377945 with net site charge -0.413
       Polarizability: cuspless exponential with width 0.39 and norm 3.3
       Positions in reference frame:
         [ +0.000000 -1.441945 +1.122523 ]
         [ +0.000000 +1.441945 +1.122523 ]
     Net charge: 0   dipole magnitude: 0.927204
     Initializing spherical shell mfKernel with radius 2.61727 Bohr
     deltaS corrections:
       site 'O': -7.54299
       site 'H': -6.83917
   Initializing fluid molecule 'Na+'
     Initializing site 'Na'
       Electron density: proportional to exp(-r/0.19682)*erfc((r-0.71491)/0.41314) with norm 8.1383
       Charge density: gaussian nuclear width 0.365347 with net site charge -1
       Hard sphere radius: 1.86327 bohrs
       Positions in reference frame:
         [ +0.000000 +0.000000 +0.000000 ]
     Net charge: -1   dipole magnitude: 0
     Initializing gaussian mfKernel with width: 1.55004 Bohr
     deltaS corrections:
       site 'Na': -22.3555
   Initializing fluid molecule 'F-'
     Initializing site 'F'
       Electron density: proportional to exp(-r/0.38886)*erfc((r-0)/0.438782) with norm 8
       Charge density: gaussian nuclear width 0.374796 with net site charge 1
       Hard sphere radius: 2.39995 bohrs
       Positions in reference frame:
         [ +0.000000 +0.000000 +0.000000 ]
     Net charge: 1   dipole magnitude: 0
     Initializing gaussian mfKernel with width: 1.59012 Bohr
     deltaS corrections:
       site 'F': -9.04335

Correction to mu due to finite nuclear width = -0.0820568
   Cavity determined by nc: 0.00142 and sigma: 0.707107
   Nonlocal vdW cavity from gaussian model electron density with norm = 8 and sigma = 0.993594 bohr
   Charge asymmetry in cavity with sensitivity pCavity = 36.5 e-bohr/Eh
   Electrostatic cavity expanded by eta = 1.46 bohrs
   Weighted density cavitation model constrained by Nbulk: 0.0049383 bohr^-3, Pvap: 3.14029 kPa, Rvdw: 2.61727 bohr and sigmaBulk: 4.62e-05 Eh/bohr^2 at T: 298 K.
   Weighted density dispersion model using vdW pair potentials with single solvent site with sqrtC6eff: 0.77 SI.
Reading fluid state from 'jdft.fluidState'


---- Citations for features of the code used in this run ----

   Software package:
      R. Sundararaman, K. Letchworth-Weaver, K.A. Schwarz, D. Gunceler, Y. Ozhabes and T.A. Arias, 'JDFTx: software for joint density-functional theory', SoftwareX 6, 278 (2017)

   gga-PBE exchange-correlation functional:
      J.P. Perdew, K. Burke and M. Ernzerhof, Phys. Rev. Lett. 77, 3865 (1996)

   Pseudopotentials:
      KF Garrity, JW Bennett, KM Rabe and D Vanderbilt, Comput. Mater. Sci. 81, 446 (2014)

   DFT-D3 dispersion correction:
      S. Grimme, J. Antony, S. Ehrlich and H. Krieg, J. Chem. Phys. 132, 154104 (2010)

   DFT-D2 dispersion correction:
      S. Grimme, J. Comput. Chem. 27, 1787 (2006)

   Charge-asymmetric nonlocally-determined local-electric (CANDLE) solvation model:
      R. Sundararaman and W.A. Goddard III, J. Chem. Phys. 142, 064107 (2015)

   Total energy minimization with Auxiliary Hamiltonian:
      C. Freysoldt, S. Boeck, and J. Neugebauer, Phys. Rev. B 79, 241103(R) (2009)

   Grand-canonical (fixed-potential) DFT:
      R. Sundararaman, W. A. Goddard III and T. A. Arias, J. Chem. Phys. 146, 114104 (2017)

   Linear-tetrahedron sampling for density of states:
      G. Lehmann and M. Taut, Phys. status solidi (b) 54, 469 (1972)

This list may not be complete. Please suggest additional citations or
report any other bugs at https://github.com/shankar1729/jdftx/issues

Initialization completed successfully at t[s]:      8.00


Computing DFT-D3 correction:
# coordination-number Cu 5.593 5.591 7.569 9.120 8.988 9.112 9.122 9.115 8.995 9.125 7.574
# diagonal-C6 Cu 175.00 175.00 175.00 175.00 175.00 175.00 175.00 175.00 175.00 175.00 175.00
EvdW_6 =   -0.066521
EvdW_8 =   -0.099012
Shifting auxilliary hamiltonian by 0.036830 to set nElectrons=208.490998

-------- Electronic minimization -----------
	Linear fluid (dielectric constant: 78.4, screening length: 8.12261 Bohr) occupying 0.559656 of unit cell:	Completed after 23 iterations at t[s]:     15.80
	FillingsUpdate:  mu: -0.208000000  nElectrons: 208.490998  magneticMoment: [ Abs: 0.00001  Tot: -0.00000 ]
ElecMinimize: Iter:   0  G: -2176.588783856537702  |grad|_K:  9.253e-05  alpha:  1.000e+00
	Linear fluid (dielectric constant: 78.4, screening length: 8.12261 Bohr) occupying 0.554618 of unit cell:	Completed after 32 iterations at t[s]:     44.91
	Linear fluid (dielectric constant: 78.4, screening length: 8.12261 Bohr) occupying 0.559578 of unit cell:	Completed after 33 iterations at t[s]:     55.76
	FillingsUpdate:  mu: -0.208000000  nElectrons: 208.454507  magneticMoment: [ Abs: 0.00001  Tot: -0.00000 ]
	SubspaceRotationAdjust: set factor to 1.05
ElecMinimize: Iter:   1  G: -2176.630161056019006  |grad|_K:  8.192e-05  alpha:  2.161e-02  linmin: -8.158e-03  t[s]:     70.38
	Linear fluid (dielectric constant: 78.4, screening length: 8.12261 Bohr) occupying 0.559412 of unit cell:	Completed after 20 iterations at t[s]:     82.40
ElecMinimize: 	Predicted alpha/alphaT>3.000000, increasing alphaT to 6.483466e-02.
	Linear fluid (dielectric constant: 78.4, screening length: 8.12261 Bohr) occupying 0.559105 of unit cell:	Completed after 23 iterations at t[s]:     92.86
	Linear fluid (dielectric constant: 78.4, screening length: 8.12261 Bohr) occupying 0.559023 of unit cell:	Completed after 19 iterations at t[s]:    103.62
	FillingsUpdate:  mu: -0.208000000  nElectrons: 208.750005  magneticMoment: [ Abs: 0.00001  Tot: -0.00000 ]
	SubspaceRotationAdjust: set factor to 0.877
ElecMinimize: Iter:   2  G: -2176.746289293508653  |grad|_K:  9.271e-05  alpha:  7.816e-02  linmin: -4.392e-04  t[s]:    119.29
	Linear fluid (dielectric constant: 78.4, screening length: 8.12261 Bohr) occupying 0.558026 of unit cell:	Completed after 23 iterations at t[s]:    132.53
	Linear fluid (dielectric constant: 78.4, screening length: 8.12261 Bohr) occupying 0.558702 of unit cell:	Completed after 20 iterations at t[s]:    143.49
	FillingsUpdate:  mu: -0.208000000  nElectrons: 208.608439  magneticMoment: [ Abs: 0.00001  Tot: -0.00000 ]
	SubspaceRotationAdjust: set factor to 0.625
ElecMinimize: Iter:   3  G: -2176.773562192844565  |grad|_K:  9.818e-05  alpha:  2.431e-02  linmin:  2.424e-04  t[s]:    159.30
	Linear fluid (dielectric constant: 78.4, screening length: 8.12261 Bohr) occupying 0.558318 of unit cell:	Completed after 21 iterations at t[s]:    172.47
	Linear fluid (dielectric constant: 78.4, screening length: 8.12261 Bohr) occupying 0.557846 of unit cell:	Completed after 20 iterations at t[s]:    183.37
	FillingsUpdate:  mu: -0.208000000  nElectrons: 208.646501  magneticMoment: [ Abs: 0.00001  Tot: -0.00000 ]
	SubspaceRotationAdjust: set factor to 0.571
ElecMinimize: Iter:   4  G: -2176.833358623019649  |grad|_K:  9.013e-05  alpha:  5.363e-02  linmin:  4.913e-05  t[s]:    199.26
	Linear fluid (dielectric constant: 78.4, screening length: 8.12261 Bohr) occupying 0.557374 of unit cell:	Completed after 24 iterations at t[s]:    212.65
	Linear fluid (dielectric constant: 78.4, screening length: 8.12261 Bohr) occupying 0.557569 of unit cell:	Completed after 23 iterations at t[s]:    223.91
	FillingsUpdate:  mu: -0.208000000  nElectrons: 208.790589  magneticMoment: [ Abs: 0.00001  Tot: -0.00000 ]
	SubspaceRotationAdjust: set factor to 0.527
ElecMinimize: Iter:   5  G: -2176.856650173855996  |grad|_K:  5.137e-05  alpha:  2.408e-02  linmin:  2.134e-05  t[s]:    239.93
	Linear fluid (dielectric constant: 78.4, screening length: 8.12261 Bohr) occupying 0.557444 of unit cell:	Completed after 16 iterations at t[s]:    252.85
	Linear fluid (dielectric constant: 78.4, screening length: 8.12261 Bohr) occupying 0.557336 of unit cell:	Completed after 15 iterations at t[s]:    263.54
	FillingsUpdate:  mu: -0.208000000  nElectrons: 208.816051  magneticMoment: [ Abs: 0.00001  Tot: -0.00000 ]
	SubspaceRotationAdjust: set factor to 0.475
ElecMinimize: Iter:   6  G: -2176.871237381177252  |grad|_K:  4.258e-05  alpha:  4.427e-02  linmin:  4.623e-05  t[s]:    279.62
	Linear fluid (dielectric constant: 78.4, screening length: 8.12261 Bohr) occupying 0.557041 of unit cell:	Completed after 20 iterations at t[s]:    292.83
	Linear fluid (dielectric constant: 78.4, screening length: 8.12261 Bohr) occupying 0.557136 of unit cell:	Completed after 15 iterations at t[s]:    303.57
	FillingsUpdate:  mu: -0.208000000  nElectrons: 208.735552  magneticMoment: [ Abs: 0.00001  Tot: -0.00000 ]
	SubspaceRotationAdjust: set factor to 0.556
ElecMinimize: Iter:   7  G: -2176.878052172719890  |grad|_K:  2.804e-05  alpha:  3.018e-02  linmin: -1.200e-05  t[s]:    319.49
	Linear fluid (dielectric constant: 78.4, screening length: 8.12261 Bohr) occupying 0.557014 of unit cell:	Completed after 16 iterations at t[s]:    332.44
	Linear fluid (dielectric constant: 78.4, screening length: 8.12261 Bohr) occupying 0.556882 of unit cell:	Completed after 15 iterations at t[s]:    343.19
	FillingsUpdate:  mu: -0.208000000  nElectrons: 208.643326  magneticMoment: [ Abs: 0.00001  Tot: -0.00000 ]
	SubspaceRotationAdjust: set factor to 0.488
ElecMinimize: Iter:   8  G: -2176.884178651955608  |grad|_K:  3.912e-05  alpha:  6.366e-02  linmin:  3.259e-04  t[s]:    359.23
	Linear fluid (dielectric constant: 78.4, screening length: 8.12261 Bohr) occupying 0.556412 of unit cell:	Completed after 21 iterations at t[s]:    372.54
	Linear fluid (dielectric constant: 78.4, screening length: 8.12261 Bohr) occupying 0.556609 of unit cell:	Completed after 17 iterations at t[s]:    383.43
	FillingsUpdate:  mu: -0.208000000  nElectrons: 208.633646  magneticMoment: [ Abs: 0.00000  Tot: -0.00000 ]
	SubspaceRotationAdjust: set factor to 0.698
ElecMinimize: Iter:   9  G: -2176.890904006987967  |grad|_K:  2.915e-05  alpha:  3.734e-02  linmin: -3.736e-07  t[s]:    399.40
	Linear fluid (dielectric constant: 78.4, screening length: 8.12261 Bohr) occupying 0.556442 of unit cell:	Completed after 18 iterations at t[s]:    412.44
	Linear fluid (dielectric constant: 78.4, screening length: 8.12261 Bohr) occupying 0.556450 of unit cell:	Completed after 12 iterations at t[s]:    422.99
	FillingsUpdate:  mu: -0.208000000  nElectrons: 208.663230  magneticMoment: [ Abs: 0.00001  Tot: -0.00000 ]
	SubspaceRotationAdjust: set factor to 0.611
ElecMinimize: Iter:  10  G: -2176.894719119546153  |grad|_K:  2.950e-05  alpha:  3.565e-02  linmin:  3.027e-06  t[s]:    439.04
	Linear fluid (dielectric constant: 78.4, screening length: 8.12261 Bohr) occupying 0.556218 of unit cell:	Completed after 18 iterations at t[s]:    452.15
	Linear fluid (dielectric constant: 78.4, screening length: 8.12261 Bohr) occupying 0.556218 of unit cell:	Completed after 2 iterations at t[s]:    462.01
	FillingsUpdate:  mu: -0.208000000  nElectrons: 208.623489  magneticMoment: [ Abs: 0.00001  Tot: -0.00000 ]
	SubspaceRotationAdjust: set factor to 0.961
ElecMinimize: Iter:  11  G: -2176.898630516951471  |grad|_K:  1.754e-05  alpha:  3.573e-02  linmin:  4.836e-05  t[s]:    478.02
	Linear fluid (dielectric constant: 78.4, screening length: 8.12261 Bohr) occupying 0.556105 of unit cell:	Completed after 15 iterations at t[s]:    490.90
	Linear fluid (dielectric constant: 78.4, screening length: 8.12261 Bohr) occupying 0.556085 of unit cell:	Completed after 14 iterations at t[s]:    501.53
	FillingsUpdate:  mu: -0.208000000  nElectrons: 208.597444  magneticMoment: [ Abs: 0.00000  Tot: -0.00000 ]
	SubspaceRotationAdjust: set factor to 0.664
ElecMinimize: Iter:  12  G: -2176.900246126090224  |grad|_K:  2.342e-05  alpha:  4.201e-02  linmin:  3.022e-05  t[s]:    517.53
	Linear fluid (dielectric constant: 78.4, screening length: 8.12261 Bohr) occupying 0.555822 of unit cell:	Completed after 17 iterations at t[s]:    530.59
	Linear fluid (dielectric constant: 78.4, screening length: 8.12261 Bohr) occupying 0.555916 of unit cell:	Completed after 15 iterations at t[s]:    541.26
	FillingsUpdate:  mu: -0.208000000  nElectrons: 208.643920  magneticMoment: [ Abs: 0.00000  Tot: -0.00000 ]
	SubspaceRotationAdjust: set factor to 0.854
ElecMinimize: Iter:  13  G: -2176.902093165893348  |grad|_K:  1.446e-05  alpha:  2.703e-02  linmin: -5.395e-07  t[s]:    557.33
	Linear fluid (dielectric constant: 78.4, screening length: 8.12261 Bohr) occupying 0.555828 of unit cell:	Completed after 15 iterations at t[s]:    570.25
	Linear fluid (dielectric constant: 78.4, screening length: 8.12261 Bohr) occupying 0.555735 of unit cell:	Completed after 15 iterations at t[s]:    580.99
	FillingsUpdate:  mu: -0.208000000  nElectrons: 208.686220  magneticMoment: [ Abs: 0.00000  Tot: -0.00000 ]
	SubspaceRotationAdjust: set factor to 0.751
ElecMinimize: Iter:  14  G: -2176.903555723029967  |grad|_K:  1.544e-05  alpha:  5.542e-02  linmin: -3.905e-05  t[s]:    597.07
	Linear fluid (dielectric constant: 78.4, screening length: 8.12261 Bohr) occupying 0.555421 of unit cell:	Completed after 18 iterations at t[s]:    610.19
	Linear fluid (dielectric constant: 78.4, screening length: 8.12261 Bohr) occupying 0.555612 of unit cell:	Completed after 15 iterations at t[s]:    620.94
	FillingsUpdate:  mu: -0.208000000  nElectrons: 208.673940  magneticMoment: [ Abs: 0.00000  Tot: -0.00000 ]
	SubspaceRotationAdjust: set factor to 0.621
ElecMinimize: Iter:  15  G: -2176.904218174746347  |grad|_K:  1.036e-05  alpha:  2.184e-02  linmin: -2.969e-05  t[s]:    636.88
	Linear fluid (dielectric constant: 78.4, screening length: 8.12261 Bohr) occupying 0.555538 of unit cell:	Completed after 13 iterations at t[s]:    649.67
	Linear fluid (dielectric constant: 78.4, screening length: 8.12261 Bohr) occupying 0.555388 of unit cell:	Completed after 14 iterations at t[s]:    660.33
	FillingsUpdate:  mu: -0.208000000  nElectrons: 208.675748  magneticMoment: [ Abs: 0.00000  Tot: -0.00000 ]
	SubspaceRotationAdjust: set factor to 0.691
ElecMinimize: Iter:  16  G: -2176.905097195513463  |grad|_K:  1.081e-05  alpha:  6.473e-02  linmin: -1.022e-05  t[s]:    676.33
	Linear fluid (dielectric constant: 78.4, screening length: 8.12261 Bohr) occupying 0.555097 of unit cell:	Completed after 17 iterations at t[s]:    689.38
	Linear fluid (dielectric constant: 78.4, screening length: 8.12261 Bohr) occupying 0.555214 of unit cell:	Completed after 15 iterations at t[s]:    700.07
	FillingsUpdate:  mu: -0.208000000  nElectrons: 208.695660  magneticMoment: [ Abs: 0.00000  Tot: -0.00000 ]
	SubspaceRotationAdjust: set factor to 0.617
ElecMinimize: Iter:  17  G: -2176.905669460263653  |grad|_K:  1.110e-05  alpha:  3.886e-02  linmin: -8.689e-07  t[s]:    716.13
	Linear fluid (dielectric constant: 78.4, screening length: 8.12261 Bohr) occupying 0.554979 of unit cell:	Completed after 15 iterations at t[s]:    729.01
	Linear fluid (dielectric constant: 78.4, screening length: 8.12261 Bohr) occupying 0.554892 of unit cell:	Completed after 14 iterations at t[s]:    739.65
	FillingsUpdate:  mu: -0.208000000  nElectrons: 208.682832  magneticMoment: [ Abs: 0.00000  Tot: -0.00000 ]
	SubspaceRotationAdjust: set factor to 0.791
ElecMinimize: Iter:  18  G: -2176.906491207520503  |grad|_K:  7.613e-06  alpha:  5.301e-02  linmin:  7.289e-06  t[s]:    755.73
	Linear fluid (dielectric constant: 78.4, screening length: 8.12261 Bohr) occupying 0.554699 of unit cell:	Completed after 15 iterations at t[s]:    768.64
	Linear fluid (dielectric constant: 78.4, screening length: 8.12261 Bohr) occupying 0.554746 of unit cell:	Completed after 12 iterations at t[s]:    779.17
	FillingsUpdate:  mu: -0.208000000  nElectrons: 208.668706  magneticMoment: [ Abs: 0.00000  Tot: -0.00000 ]
	SubspaceRotationAdjust: set factor to 0.688
ElecMinimize: Iter:  19  G: -2176.906784105168754  |grad|_K:  7.371e-06  alpha:  4.011e-02  linmin:  1.204e-05  t[s]:    795.22
	Linear fluid (dielectric constant: 78.4, screening length: 8.12261 Bohr) occupying 0.554595 of unit cell:	Completed after 15 iterations at t[s]:    808.16
	Linear fluid (dielectric constant: 78.4, screening length: 8.12261 Bohr) occupying 0.554638 of unit cell:	Completed after 12 iterations at t[s]:    818.67
	FillingsUpdate:  mu: -0.208000000  nElectrons: 208.678770  magneticMoment: [ Abs: 0.00000  Tot: -0.00000 ]
	SubspaceRotationAdjust: set factor to 0.674
ElecMinimize: Iter:  20  G: -2176.906981317572445  |grad|_K:  4.655e-06  alpha:  2.885e-02  linmin:  1.967e-06  t[s]:    834.56
	Linear fluid (dielectric constant: 78.4, screening length: 8.12261 Bohr) occupying 0.554580 of unit cell:	Completed after 13 iterations at t[s]:    847.35
	Linear fluid (dielectric constant: 78.4, screening length: 8.12261 Bohr) occupying 0.554494 of unit cell:	Completed after 12 iterations at t[s]:    857.84
	FillingsUpdate:  mu: -0.208000000  nElectrons: 208.684158  magneticMoment: [ Abs: 0.00000  Tot: -0.00000 ]
	SubspaceRotationAdjust: set factor to 0.868
ElecMinimize: Iter:  21  G: -2176.907174722131458  |grad|_K:  4.377e-06  alpha:  7.089e-02  linmin: -1.389e-06  t[s]:    873.87
	Linear fluid (dielectric constant: 78.4, screening length: 8.12261 Bohr) occupying 0.554328 of unit cell:	Completed after 15 iterations at t[s]:    886.78
	Linear fluid (dielectric constant: 78.4, screening length: 8.12261 Bohr) occupying 0.554391 of unit cell:	Completed after 13 iterations at t[s]:    897.37
	FillingsUpdate:  mu: -0.208000000  nElectrons: 208.679654  magneticMoment: [ Abs: 0.00000  Tot: -0.00000 ]
	SubspaceRotationAdjust: set factor to 0.735
ElecMinimize: Iter:  22  G: -2176.907280835304846  |grad|_K:  4.791e-06  alpha:  4.400e-02  linmin:  1.203e-06  t[s]:    913.39
	Linear fluid (dielectric constant: 78.4, screening length: 8.12261 Bohr) occupying 0.554254 of unit cell:	Completed after 15 iterations at t[s]:    926.26
	Linear fluid (dielectric constant: 78.4, screening length: 8.12261 Bohr) occupying 0.554290 of unit cell:	Completed after 13 iterations at t[s]:    936.89
	FillingsUpdate:  mu: -0.208000000  nElectrons: 208.689391  magneticMoment: [ Abs: 0.00000  Tot: -0.00000 ]
	SubspaceRotationAdjust: set factor to 0.559
ElecMinimize: Iter:  23  G: -2176.907374995440023  |grad|_K:  3.267e-06  alpha:  3.265e-02  linmin: -7.392e-06  t[s]:    952.91
	Linear fluid (dielectric constant: 78.4, screening length: 8.12261 Bohr) occupying 0.554227 of unit cell:	Completed after 12 iterations at t[s]:    965.63
	Linear fluid (dielectric constant: 78.4, screening length: 8.12261 Bohr) occupying 0.554169 of unit cell:	Completed after 12 iterations at t[s]:    976.16
	FillingsUpdate:  mu: -0.208000000  nElectrons: 208.689723  magneticMoment: [ Abs: 0.00000  Tot: -0.00000 ]
	SubspaceRotationAdjust: set factor to 0.655
ElecMinimize: Iter:  24  G: -2176.907459375937833  |grad|_K:  2.492e-06  alpha:  6.277e-02  linmin:  4.859e-06  t[s]:    992.14
	Linear fluid (dielectric constant: 78.4, screening length: 8.12261 Bohr) occupying 0.554077 of unit cell:	Completed after 11 iterations at t[s]:   1004.78
	Linear fluid (dielectric constant: 78.4, screening length: 8.12261 Bohr) occupying 0.554068 of unit cell:	Completed after 9 iterations at t[s]:   1015.01
	FillingsUpdate:  mu: -0.208000000  nElectrons: 208.687562  magneticMoment: [ Abs: 0.00000  Tot: -0.00000 ]
	SubspaceRotationAdjust: set factor to 0.702
ElecMinimize: Iter:  25  G: -2176.907513112885681  |grad|_K:  2.307e-06  alpha:  6.876e-02  linmin:  1.329e-06  t[s]:   1031.08
	Linear fluid (dielectric constant: 78.4, screening length: 8.12261 Bohr) occupying 0.553961 of unit cell:	Completed after 14 iterations at t[s]:   1043.89
	Linear fluid (dielectric constant: 78.4, screening length: 8.12261 Bohr) occupying 0.553996 of unit cell:	Completed after 13 iterations at t[s]:   1054.45
	FillingsUpdate:  mu: -0.208000000  nElectrons: 208.691262  magneticMoment: [ Abs: 0.00000  Tot: -0.00000 ]
	SubspaceRotationAdjust: set factor to 0.585
ElecMinimize: Iter:  26  G: -2176.907544210522701  |grad|_K:  2.230e-06  alpha:  4.642e-02  linmin:  1.200e-06  t[s]:   1070.53
	Linear fluid (dielectric constant: 78.4, screening length: 8.12261 Bohr) occupying 0.553910 of unit cell:	Completed after 13 iterations at t[s]:   1083.36
	Linear fluid (dielectric constant: 78.4, screening length: 8.12261 Bohr) occupying 0.553914 of unit cell:	Completed after 8 iterations at t[s]:   1093.62
	FillingsUpdate:  mu: -0.208000000  nElectrons: 208.688410  magneticMoment: [ Abs: 0.00000  Tot: -0.00000 ]
	SubspaceRotationAdjust: set factor to 0.511
ElecMinimize: Iter:  27  G: -2176.907571877916325  |grad|_K:  1.658e-06  alpha:  4.419e-02  linmin:  2.071e-06  t[s]:   1109.62
	Linear fluid (dielectric constant: 78.4, screening length: 8.12261 Bohr) occupying 0.553858 of unit cell:	Completed after 10 iterations at t[s]:   1122.22
	Linear fluid (dielectric constant: 78.4, screening length: 8.12261 Bohr) occupying 0.553831 of unit cell:	Completed after 10 iterations at t[s]:   1132.54
	FillingsUpdate:  mu: -0.208000000  nElectrons: 208.690042  magneticMoment: [ Abs: 0.00000  Tot: -0.00000 ]
	SubspaceRotationAdjust: set factor to 0.586
ElecMinimize: Iter:  28  G: -2176.907594543320101  |grad|_K:  1.336e-06  alpha:  6.556e-02  linmin:  9.560e-07  t[s]:   1148.50
	Linear fluid (dielectric constant: 78.4, screening length: 8.12261 Bohr) occupying 0.553763 of unit cell:	Completed after 11 iterations at t[s]:   1161.16
	Linear fluid (dielectric constant: 78.4, screening length: 8.12261 Bohr) occupying 0.553753 of unit cell:	Completed after 8 iterations at t[s]:   1171.43
	FillingsUpdate:  mu: -0.208000000  nElectrons: 208.693079  magneticMoment: [ Abs: 0.00000  Tot: -0.00000 ]
	SubspaceRotationAdjust: set factor to 0.606
ElecMinimize: Iter:  29  G: -2176.907611565161005  |grad|_K:  1.355e-06  alpha:  7.581e-02  linmin: -1.979e-06  t[s]:   1187.42
	Linear fluid (dielectric constant: 78.4, screening length: 8.12261 Bohr) occupying 0.553655 of unit cell:	Completed after 12 iterations at t[s]:   1200.16
	Linear fluid (dielectric constant: 78.4, screening length: 8.12261 Bohr) occupying 0.553686 of unit cell:	Completed after 11 iterations at t[s]:   1210.59
	FillingsUpdate:  mu: -0.208000000  nElectrons: 208.692804  magneticMoment: [ Abs: 0.00000  Tot: -0.00000 ]
	SubspaceRotationAdjust: set factor to 0.506
ElecMinimize: Iter:  30  G: -2176.907623668285396  |grad|_K:  1.241e-06  alpha:  5.236e-02  linmin:  3.261e-07  t[s]:   1226.63
	Linear fluid (dielectric constant: 78.4, screening length: 8.12261 Bohr) occupying 0.553622 of unit cell:	Completed after 12 iterations at t[s]:   1239.35
	Linear fluid (dielectric constant: 78.4, screening length: 8.12261 Bohr) occupying 0.553630 of unit cell:	Completed after 9 iterations at t[s]:   1249.68
	FillingsUpdate:  mu: -0.208000000  nElectrons: 208.696058  magneticMoment: [ Abs: 0.00000  Tot: -0.00000 ]
	SubspaceRotationAdjust: set factor to 0.448
ElecMinimize: Iter:  31  G: -2176.907632530530464  |grad|_K:  8.044e-07  alpha:  4.574e-02  linmin:  4.252e-07  t[s]:   1265.72
	Linear fluid (dielectric constant: 78.4, screening length: 8.12261 Bohr) occupying 0.553601 of unit cell:	Completed after 10 iterations at t[s]:   1278.26
	Linear fluid (dielectric constant: 78.4, screening length: 8.12261 Bohr) occupying 0.553592 of unit cell:	Completed after 4 iterations at t[s]:   1288.21
	FillingsUpdate:  mu: -0.208000000  nElectrons: 208.697034  magneticMoment: [ Abs: 0.00000  Tot: -0.00000 ]
	SubspaceRotationAdjust: set factor to 0.476
ElecMinimize: Iter:  32  G: -2176.907637421554682  |grad|_K:  6.102e-07  alpha:  6.007e-02  linmin:  1.731e-06  t[s]:   1304.17
	Linear fluid (dielectric constant: 78.4, screening length: 8.12261 Bohr) occupying 0.553563 of unit cell:	Completed after 11 iterations at t[s]:   1316.85
	Linear fluid (dielectric constant: 78.4, screening length: 8.12261 Bohr) occupying 0.553554 of unit cell:	Completed after 9 iterations at t[s]:   1327.14
	FillingsUpdate:  mu: -0.208000000  nElectrons: 208.697037  magneticMoment: [ Abs: 0.00000  Tot: -0.00000 ]
	SubspaceRotationAdjust: set factor to 0.471
ElecMinimize: Iter:  33  G: -2176.907641123754274  |grad|_K:  6.610e-07  alpha:  7.906e-02  linmin:  1.294e-05  t[s]:   1343.17
	Linear fluid (dielectric constant: 78.4, screening length: 8.12261 Bohr) occupying 0.553503 of unit cell:	Completed after 12 iterations at t[s]:   1355.94
	Linear fluid (dielectric constant: 78.4, screening length: 8.12261 Bohr) occupying 0.553509 of unit cell:	Completed after 8 iterations at t[s]:   1366.19
	FillingsUpdate:  mu: -0.208000000  nElectrons: 208.698313  magneticMoment: [ Abs: 0.00000  Tot: -0.00000 ]
	SubspaceRotationAdjust: set factor to 0.439
ElecMinimize: Iter:  34  G: -2176.907644903405526  |grad|_K:  6.203e-07  alpha:  6.887e-02  linmin:  3.927e-06  t[s]:   1382.12
	Linear fluid (dielectric constant: 78.4, screening length: 8.12261 Bohr) occupying 0.553463 of unit cell:	Completed after 9 iterations at t[s]:   1394.71
	Linear fluid (dielectric constant: 78.4, screening length: 8.12261 Bohr) occupying 0.553468 of unit cell:	Completed after 7 iterations at t[s]:   1404.84
	FillingsUpdate:  mu: -0.208000000  nElectrons: 208.697885  magneticMoment: [ Abs: 0.00000  Tot: -0.00000 ]
	SubspaceRotationAdjust: set factor to 0.475
ElecMinimize: Iter:  35  G: -2176.907647876652391  |grad|_K:  4.406e-07  alpha:  6.145e-02  linmin: -1.984e-06  t[s]:   1420.85
	Linear fluid (dielectric constant: 78.4, screening length: 8.12261 Bohr) occupying 0.553442 of unit cell:	Completed after 10 iterations at t[s]:   1433.43
	Linear fluid (dielectric constant: 78.4, screening length: 8.12261 Bohr) occupying 0.553441 of unit cell:	Completed after 1 iterations at t[s]:   1443.19
	FillingsUpdate:  mu: -0.208000000  nElectrons: 208.697494  magneticMoment: [ Abs: 0.00000  Tot: -0.00000 ]
	SubspaceRotationAdjust: set factor to 0.492
ElecMinimize: Iter:  36  G: -2176.907649478585427  |grad|_K:  3.664e-07  alpha:  6.553e-02  linmin: -1.135e-05  t[s]:   1459.16
	Linear fluid (dielectric constant: 78.4, screening length: 8.12261 Bohr) occupying 0.553418 of unit cell:	Completed after 10 iterations at t[s]:   1471.72
	Linear fluid (dielectric constant: 78.4, screening length: 8.12261 Bohr) occupying 0.553415 of unit cell:	Completed after 2 iterations at t[s]:   1481.58
	FillingsUpdate:  mu: -0.208000000  nElectrons: 208.697827  magneticMoment: [ Abs: 0.00000  Tot: -0.00000 ]
	SubspaceRotationAdjust: set factor to 0.459
ElecMinimize: Iter:  37  G: -2176.907650708229539  |grad|_K:  3.687e-07  alpha:  7.267e-02  linmin: -1.621e-06  t[s]:   1497.61
	Linear fluid (dielectric constant: 78.4, screening length: 8.12261 Bohr) occupying 0.553386 of unit cell:	Completed after 9 iterations at t[s]:   1510.10
	Linear fluid (dielectric constant: 78.4, screening length: 8.12261 Bohr) occupying 0.553387 of unit cell:	Completed after 2 iterations at t[s]:   1519.94
	FillingsUpdate:  mu: -0.208000000  nElectrons: 208.697493  magneticMoment: [ Abs: 0.00000  Tot: -0.00000 ]
	SubspaceRotationAdjust: set factor to 0.444
ElecMinimize: Iter:  38  G: -2176.907651893263846  |grad|_K:  3.100e-07  alpha:  6.918e-02  linmin:  3.541e-05  t[s]:   1535.98
	Linear fluid (dielectric constant: 78.4, screening length: 8.12261 Bohr) occupying 0.553364 of unit cell:	Completed after 9 iterations at t[s]:   1548.51
	Linear fluid (dielectric constant: 78.4, screening length: 8.12261 Bohr) occupying 0.553366 of unit cell:	Completed after 2 iterations at t[s]:   1558.36
	FillingsUpdate:  mu: -0.208000000  nElectrons: 208.697810  magneticMoment: [ Abs: 0.00000  Tot: -0.00000 ]
	SubspaceRotationAdjust: set factor to 0.504
ElecMinimize: Iter:  39  G: -2176.907652643013989  |grad|_K:  2.226e-07  alpha:  6.244e-02  linmin:  3.909e-06  t[s]:   1574.32
	Linear fluid (dielectric constant: 78.4, screening length: 8.12261 Bohr) occupying 0.553354 of unit cell:	Completed after 8 iterations at t[s]:   1586.83
	Linear fluid (dielectric constant: 78.4, screening length: 8.12261 Bohr) occupying 0.553352 of unit cell:	Completed after 2 iterations at t[s]:   1596.63
	FillingsUpdate:  mu: -0.208000000  nElectrons: 208.698197  magneticMoment: [ Abs: 0.00000  Tot: -0.00000 ]
	SubspaceRotationAdjust: set factor to 0.545
ElecMinimize: Iter:  40  G: -2176.907653085391303  |grad|_K:  1.985e-07  alpha:  7.095e-02  linmin: -1.087e-05  t[s]:   1612.58
	Linear fluid (dielectric constant: 78.4, screening length: 8.12261 Bohr) occupying 0.553339 of unit cell:	Completed after 6 iterations at t[s]:   1624.92
	Linear fluid (dielectric constant: 78.4, screening length: 8.12261 Bohr) occupying 0.553336 of unit cell:	Completed after 2 iterations at t[s]:   1634.69
	FillingsUpdate:  mu: -0.208000000  nElectrons: 208.698454  magneticMoment: [ Abs: 0.00000  Tot: +0.00000 ]
	SubspaceRotationAdjust: set factor to 0.549
ElecMinimize: Iter:  41  G: -2176.907653495954946  |grad|_K:  1.968e-07  alpha:  8.269e-02  linmin: -1.765e-06  t[s]:   1650.63
	Linear fluid (dielectric constant: 78.4, screening length: 8.12261 Bohr) occupying 0.553319 of unit cell:	Completed after 9 iterations at t[s]:   1663.10
	Linear fluid (dielectric constant: 78.4, screening length: 8.12261 Bohr) occupying 0.553321 of unit cell:	Completed after 2 iterations at t[s]:   1672.94
	FillingsUpdate:  mu: -0.208000000  nElectrons: 208.698979  magneticMoment: [ Abs: 0.00000  Tot: +0.00000 ]
	SubspaceRotationAdjust: set factor to 0.559
ElecMinimize: Iter:  42  G: -2176.907653842421496  |grad|_K:  1.572e-07  alpha:  7.091e-02  linmin:  5.200e-05  t[s]:   1688.99
	Linear fluid (dielectric constant: 78.4, screening length: 8.12261 Bohr) occupying 0.553310 of unit cell:	Completed after 3 iterations at t[s]:   1701.03
	Linear fluid (dielectric constant: 78.4, screening length: 8.12261 Bohr) occupying 0.553311 of unit cell:	Completed after 2 iterations at t[s]:   1710.84
	FillingsUpdate:  mu: -0.208000000  nElectrons: 208.699145  magneticMoment: [ Abs: 0.00000  Tot: +0.00000 ]
	SubspaceRotationAdjust: set factor to 0.59
ElecMinimize: Iter:  43  G: -2176.907654040578109  |grad|_K:  1.220e-07  alpha:  6.443e-02  linmin:  5.008e-06  t[s]:   1726.88
	Linear fluid (dielectric constant: 78.4, screening length: 8.12261 Bohr) occupying 0.553303 of unit cell:	Completed after 2 iterations at t[s]:   1738.93
	Linear fluid (dielectric constant: 78.4, screening length: 8.12261 Bohr) occupying 0.553302 of unit cell:	Completed after 2 iterations at t[s]:   1748.77
	FillingsUpdate:  mu: -0.208000000  nElectrons: 208.699259  magneticMoment: [ Abs: 0.00000  Tot: +0.00000 ]
	SubspaceRotationAdjust: set factor to 0.619
ElecMinimize: Iter:  44  G: -2176.907654182702572  |grad|_K:  1.103e-07  alpha:  7.592e-02  linmin: -1.081e-05  t[s]:   1764.77
	Linear fluid (dielectric constant: 78.4, screening length: 8.12261 Bohr) occupying 0.553293 of unit cell:	Completed after 3 iterations at t[s]:   1776.90
	Linear fluid (dielectric constant: 78.4, screening length: 8.12261 Bohr) occupying 0.553294 of unit cell:	Completed after 0 iterations at t[s]:   1786.50
	FillingsUpdate:  mu: -0.208000000  nElectrons: 208.699359  magneticMoment: [ Abs: 0.00000  Tot: +0.00000 ]
	SubspaceRotationAdjust: set factor to 0.628
ElecMinimize: Iter:  45  G: -2176.907654296965120  |grad|_K:  9.461e-08  alpha:  7.438e-02  linmin:  4.630e-06  t[s]:   1802.43
	Linear fluid (dielectric constant: 78.4, screening length: 8.12261 Bohr) occupying 0.553286 of unit cell:	Completed after 7 iterations at t[s]:   1814.76
	Linear fluid (dielectric constant: 78.4, screening length: 8.12261 Bohr) occupying 0.553287 of unit cell:	Completed after 0 iterations at t[s]:   1824.32
	FillingsUpdate:  mu: -0.208000000  nElectrons: 208.699291  magneticMoment: [ Abs: 0.00000  Tot: +0.00000 ]
	SubspaceRotationAdjust: set factor to 0.608
ElecMinimize: Iter:  46  G: -2176.907654368681960  |grad|_K:  7.627e-08  alpha:  6.354e-02  linmin:  1.268e-04  t[s]:   1840.41
	Linear fluid (dielectric constant: 78.4, screening length: 8.12261 Bohr) occupying 0.553283 of unit cell:	Completed after 7 iterations at t[s]:   1852.75
	Linear fluid (dielectric constant: 78.4, screening length: 8.12261 Bohr) occupying 0.553283 of unit cell:	Completed after 0 iterations at t[s]:   1862.39
	FillingsUpdate:  mu: -0.208000000  nElectrons: 208.699422  magneticMoment: [ Abs: 0.00000  Tot: +0.00000 ]
	SubspaceRotationAdjust: set factor to 0.545
ElecMinimize: Iter:  47  G: -2176.907654408345024  |grad|_K:  7.600e-08  alpha:  5.589e-02  linmin:  5.967e-05  t[s]:   1878.44
ElecMinimize: Converged (|Delta G|<1.000000e-07 for 2 iters).
Setting wave functions to eigenvectors of Hamiltonian
Converging empty states (this may take a while): |deigs|: 1.358e-03

Computing DFT-D3 correction:
# coordination-number Cu 5.593 5.591 7.569 9.120 8.988 9.112 9.122 9.115 8.995 9.125 7.574
# diagonal-C6 Cu 175.00 175.00 175.00 175.00 175.00 175.00 175.00 175.00 175.00 175.00 175.00
EvdW_6 =   -0.066521
EvdW_8 =   -0.099012

# Ionic positions in cartesian coordinates:
ion Cu   0.001580000000000  -0.002806000000000  21.263675000000003 1
ion Cu  -0.002228000000000   4.314517000000000   1.091669000000000 1
ion Cu   2.381829000000001   0.714888000000000   2.936762000000000 1
ion Cu   2.382684000000001   5.058367000000000   5.057120000000001 1
ion Cu   0.002734000000000   1.433387000000000   7.105375000000001 1
ion Cu   0.000074000000001   5.739328000000000   9.137264000000002 1
ion Cu   2.383383000000000   2.155682000000000  11.181026000000001 1
ion Cu   2.382813000000001   6.476175000000000  13.219086000000003 1
ion Cu  -0.002023000000000   2.878181000000000  15.255402000000002 1
ion Cu   0.000674000000001   7.157452000000001  17.298358000000004 1
ion Cu   2.385034000000000   3.597574000000000  19.420460000000002 1

# Forces in Cartesian coordinates:
force Cu  -0.000005602242768  -0.000138256011807   0.000477331509022 1
force Cu   0.000004964850824   0.000144181003259  -0.000424000398142 1
force Cu  -0.000021879641051   0.000207936775881   0.001736876209158 1
force Cu  -0.000084742513990   0.000021621869361  -0.000831499733877 1
force Cu  -0.000033502405061   0.000246186153580   0.000775871666212 1
force Cu   0.000042273639288   0.000096699924142   0.000038833909903 1
force Cu   0.000002883247020  -0.000002499468634  -0.000046350388381 1
force Cu  -0.000037690816210  -0.000094921354858  -0.000084704579302 1
force Cu   0.000037964138842  -0.000239010070018  -0.000808678388258 1
force Cu   0.000088524431859  -0.000017345366710   0.000853637586118 1
force Cu   0.000026763672224  -0.000201482458486  -0.001683327396926 1

# Energy components:
   A_diel =        0.0332048657991547
   Eewald =    16810.1363445524184499
       EH =    18823.6888485898707586
     Eloc =   -38271.0687855154174031
      Enl =      402.8797845987471078
     EvdW =       -0.1655331515144345
      Exc =     -213.4243790653894735
 Exc_core =        0.5166801012303153
       KE =      227.0623294304867272
  MuShift =        0.0246644711232355
-------------------------------------
     Etot =    -2220.3168411226465651
       TS =        0.0002930353141388
-------------------------------------
        F =    -2220.3171341579604814
      muN =      -43.4094797496156133
-------------------------------------
        G =    -2176.9076544083450244


Dumping 'jdft.fillings' ... done
Dumping 'jdft.wfns' ... done
Dumping 'jdft.fluidState' ... done
Dumping 'jdft.ionpos' ... done
Dumping 'jdft.lattice' ... done
Dumping 'jdft.eigenvals' ... done
Dumping 'jdft.eigStats' ... 
	eMin: -4.348771 at state 46 ( [ +0.000000 +0.000000 +0.000000 ] spin -1 )
	HOMO: -0.208022 at state 19 ( [ +0.230769 +0.142857 +0.000000 ] spin 1 )
	mu  : -0.208000
	LUMO: -0.207346 at state 42 ( [ +0.461538 +0.428571 +0.000000 ] spin 1 )
	eMax: +0.212518 at state 88 ( [ +0.461538 +0.428571 +0.000000 ] spin -1 )
	HOMO-LUMO gap: +0.000677
	Optical gap  : +0.004696 at state 47 ( [ +0.000000 +0.142857 +0.000000 ] spin -1 )
Dumping 'jdft.Ecomponents' ... done
IonicMinimize: Iter:   0  G: -2176.907654408345024  |grad|_K:  5.288e-04  t[s]:   1984.18

#--- Lowdin population analysis ---
# oxidation-state Cu +0.302 +0.302 +0.071 +0.042 +0.078 +0.074 +0.078 +0.074 +0.078 +0.042 +0.071
# magnetic-moments Cu -0.000 -0.000 -0.000 +0.000 +0.000 +0.000 +0.000 +0.000 +0.000 -0.000 -0.000


Computing DFT-D3 correction:
# coordination-number Cu 5.591 5.590 7.572 9.120 8.990 9.112 9.124 9.114 8.996 9.125 7.576
# diagonal-C6 Cu 175.00 175.00 175.00 175.00 175.00 175.00 175.00 175.00 175.00 175.00 175.00
EvdW_6 =   -0.066522
EvdW_8 =   -0.099017
Shifting auxilliary hamiltonian by -0.000074 to set nElectrons=208.699422

-------- Electronic minimization -----------
	Linear fluid (dielectric constant: 78.4, screening length: 8.12261 Bohr) occupying 0.553253 of unit cell:	Completed after 12 iterations at t[s]:   1998.11
	FillingsUpdate:  mu: -0.208000000  nElectrons: 208.699422  magneticMoment: [ Abs: 0.00001  Tot: +0.00000 ]
ElecMinimize: Iter:   0  G: -2176.907656911829690  |grad|_K:  9.367e-07  alpha:  1.000e+00
	Linear fluid (dielectric constant: 78.4, screening length: 8.12261 Bohr) occupying 0.553287 of unit cell:	Completed after 17 iterations at t[s]:   2028.87
	Linear fluid (dielectric constant: 78.4, screening length: 8.12261 Bohr) occupying 0.553253 of unit cell:	Completed after 18 iterations at t[s]:   2039.78
	FillingsUpdate:  mu: -0.208000000  nElectrons: 208.701148  magneticMoment: [ Abs: 0.00001  Tot: +0.00000 ]
	SubspaceRotationAdjust: set factor to 0.364
ElecMinimize: Iter:   1  G: -2176.907659328182035  |grad|_K:  3.279e-07  alpha:  2.200e-02  linmin:  2.042e-04  t[s]:   2055.90
	Linear fluid (dielectric constant: 78.4, screening length: 8.12261 Bohr) occupying 0.553253 of unit cell:	Completed after 10 iterations at t[s]:   2068.51
ElecMinimize: 	Predicted alpha/alphaT>3.000000, increasing alphaT to 6.598908e-02.
	Linear fluid (dielectric constant: 78.4, screening length: 8.12261 Bohr) occupying 0.553253 of unit cell:	Completed after 10 iterations at t[s]:   2078.88
	Linear fluid (dielectric constant: 78.4, screening length: 8.12261 Bohr) occupying 0.553253 of unit cell:	Completed after 10 iterations at t[s]:   2089.27
	FillingsUpdate:  mu: -0.208000000  nElectrons: 208.699902  magneticMoment: [ Abs: 0.00001  Tot: +0.00000 ]
	SubspaceRotationAdjust: set factor to 0.371
ElecMinimize: Iter:   2  G: -2176.907660751805452  |grad|_K:  1.745e-07  alpha:  1.058e-01  linmin:  1.610e-06  t[s]:   2105.18
	Linear fluid (dielectric constant: 78.4, screening length: 8.12261 Bohr) occupying 0.553253 of unit cell:	Completed after 6 iterations at t[s]:   2117.50
	Linear fluid (dielectric constant: 78.4, screening length: 8.12261 Bohr) occupying 0.553253 of unit cell:	Completed after 2 iterations at t[s]:   2127.33
	FillingsUpdate:  mu: -0.208000000  nElectrons: 208.699594  magneticMoment: [ Abs: 0.00001  Tot: +0.00000 ]
	SubspaceRotationAdjust: set factor to 0.379
ElecMinimize: Iter:   3  G: -2176.907661260284385  |grad|_K:  9.755e-08  alpha:  1.332e-01  linmin:  4.041e-05  t[s]:   2143.42
	Linear fluid (dielectric constant: 78.4, screening length: 8.12261 Bohr) occupying 0.553253 of unit cell:	Completed after 7 iterations at t[s]:   2155.82
	Linear fluid (dielectric constant: 78.4, screening length: 8.12261 Bohr) occupying 0.553253 of unit cell:	Completed after 7 iterations at t[s]:   2165.94
	FillingsUpdate:  mu: -0.208000000  nElectrons: 208.699210  magneticMoment: [ Abs: 0.00000  Tot: +0.00000 ]
	SubspaceRotationAdjust: set factor to 0.264
ElecMinimize: Iter:   4  G: -2176.907661537794866  |grad|_K:  1.336e-07  alpha:  2.302e-01  linmin: -4.946e-05  t[s]:   2182.07
	Linear fluid (dielectric constant: 78.4, screening length: 8.12261 Bohr) occupying 0.553254 of unit cell:	Completed after 12 iterations at t[s]:   2194.80
	Linear fluid (dielectric constant: 78.4, screening length: 8.12261 Bohr) occupying 0.553253 of unit cell:	Completed after 11 iterations at t[s]:   2205.31
	FillingsUpdate:  mu: -0.208000000  nElectrons: 208.699594  magneticMoment: [ Abs: 0.00000  Tot: +0.00000 ]
	SubspaceRotationAdjust: set factor to 0.16
ElecMinimize: Iter:   5  G: -2176.907661670570633  |grad|_K:  8.841e-08  alpha:  5.708e-02  linmin: -5.639e-06  t[s]:   2221.34
	Linear fluid (dielectric constant: 78.4, screening length: 8.12261 Bohr) occupying 0.553253 of unit cell:	Completed after 2 iterations at t[s]:   2233.38
	Linear fluid (dielectric constant: 78.4, screening length: 8.12261 Bohr) occupying 0.553253 of unit cell:	Completed after 2 iterations at t[s]:   2243.11
	FillingsUpdate:  mu: -0.208000000  nElectrons: 208.699587  magneticMoment: [ Abs: 0.00001  Tot: +0.00000 ]
	SubspaceRotationAdjust: set factor to 0.273
ElecMinimize: Iter:   6  G: -2176.907661786457084  |grad|_K:  5.694e-08  alpha:  1.171e-01  linmin: -2.848e-06  t[s]:   2259.17
	Linear fluid (dielectric constant: 78.4, screening length: 8.12261 Bohr) occupying 0.553254 of unit cell:	Completed after 9 iterations at t[s]:   2271.69
	Linear fluid (dielectric constant: 78.4, screening length: 8.12261 Bohr) occupying 0.553254 of unit cell:	Completed after 0 iterations at t[s]:   2281.30
	FillingsUpdate:  mu: -0.208000000  nElectrons: 208.699438  magneticMoment: [ Abs: 0.00001  Tot: +0.00000 ]
	SubspaceRotationAdjust: set factor to 0.195
ElecMinimize: Iter:   7  G: -2176.907661832492522  |grad|_K:  5.782e-08  alpha:  1.127e-01  linmin: -8.950e-05  t[s]:   2297.37
	Linear fluid (dielectric constant: 78.4, screening length: 8.12261 Bohr) occupying 0.553254 of unit cell:	Completed after 9 iterations at t[s]:   2309.91
	Linear fluid (dielectric constant: 78.4, screening length: 8.12261 Bohr) occupying 0.553254 of unit cell:	Completed after 2 iterations at t[s]:   2319.75
	FillingsUpdate:  mu: -0.208000000  nElectrons: 208.699627  magneticMoment: [ Abs: 0.00000  Tot: +0.00000 ]
	SubspaceRotationAdjust: set factor to 0.127
ElecMinimize: Iter:   8  G: -2176.907661873047800  |grad|_K:  3.936e-08  alpha:  9.294e-02  linmin:  4.398e-05  t[s]:   2335.75
ElecMinimize: Converged (|Delta G|<1.000000e-07 for 2 iters).
Setting wave functions to eigenvectors of Hamiltonian
Converging empty states (this may take a while): |deigs|: 1.811e-07

Computing DFT-D3 correction:
# coordination-number Cu 5.591 5.590 7.572 9.120 8.990 9.112 9.124 9.114 8.996 9.125 7.576
# diagonal-C6 Cu 175.00 175.00 175.00 175.00 175.00 175.00 175.00 175.00 175.00 175.00 175.00
EvdW_6 =   -0.066522
EvdW_8 =   -0.099017

# Ionic positions in cartesian coordinates:
ion Cu   0.001572583542598  -0.002946357011417  21.264151968782162 1
ion Cu  -0.002224849363810   4.314659080003650   1.091244636874992 1
ion Cu   2.381805306144315   0.715093835776271   2.938498513482293 1
ion Cu   2.382597443271377   5.058386520869751   5.056288137539258 1
ion Cu   0.002698683380305   1.433631085153970   7.106150508939347 1
ion Cu   0.000114459424654   5.739422598924532   9.137302471183038 1
ion Cu   2.383384069032386   2.155677399531756  11.180979286884753 1
ion Cu   2.382773494969157   6.476077977645533  13.219000932693836 1
ion Cu  -0.001986850075792   2.877939888930372  15.254592958884878 1
ion Cu   0.000760710217226   7.157432553633681  17.299211274859257 1
ion Cu   2.385058949457590   3.597370416541904  19.418776309876211 1

# Forces in Cartesian coordinates:
force Cu  -0.000005611673385  -0.000100843334822   0.000153839015581 1
force Cu   0.000006079464606   0.000106115481538  -0.000104184192600 1
force Cu  -0.000007490511140   0.000106129673740   0.001297703423698 1
force Cu  -0.000048535077096  -0.000001241556602  -0.000749382372276 1
force Cu  -0.000017488095702   0.000152366653284   0.000105854272416 1
force Cu   0.000029839425540   0.000053016982119  -0.000254832994885 1
force Cu   0.000002758033426  -0.000000667222062  -0.000029568769280 1
force Cu  -0.000025122616263  -0.000049751517534   0.000223988686083 1
force Cu   0.000022256825728  -0.000145761650432  -0.000138783555626 1
force Cu   0.000052324489640   0.000004361551719   0.000756358991686 1
force Cu   0.000012167185293  -0.000100689209554  -0.001260557885795 1

# Energy components:
   A_diel =        0.0332020968240334
   Eewald =    16810.7653849026282842
       EH =    18824.3246945331666211
     Eloc =   -38272.3331103820673889
      Enl =      402.8787813377072098
     EvdW =       -0.1655393067395494
      Exc =     -213.4242723885764690
 Exc_core =        0.5166801711097964
       KE =      227.0626403607184045
  MuShift =        0.0246476670097310
-------------------------------------
     Etot =    -2220.3168910082158618
       TS =        0.0002932100247308
-------------------------------------
        F =    -2220.3171842182405271
      muN =      -43.4095223451928121
-------------------------------------
        G =    -2176.9076618730478003


Dumping 'jdft.fillings' ... done
Dumping 'jdft.wfns' ... done
Dumping 'jdft.fluidState' ... done
Dumping 'jdft.ionpos' ... done
Dumping 'jdft.lattice' ... done
Dumping 'jdft.eigenvals' ... done
Dumping 'jdft.eigStats' ... 
	eMin: -4.348838 at state 46 ( [ +0.000000 +0.000000 +0.000000 ] spin -1 )
	HOMO: -0.208039 at state 65 ( [ +0.230769 +0.142857 +0.000000 ] spin -1 )
	mu  : -0.208000
	LUMO: -0.207356 at state 42 ( [ +0.461538 +0.428571 +0.000000 ] spin 1 )
	eMax: +0.212493 at state 88 ( [ +0.461538 +0.428571 +0.000000 ] spin -1 )
	HOMO-LUMO gap: +0.000683
	Optical gap  : +0.004697 at state 1 ( [ +0.000000 +0.142857 +0.000000 ] spin 1 )
Dumping 'jdft.Ecomponents' ... done
IonicMinimize: Iter:   1  G: -2176.907661873047800  |grad|_K:  3.769e-04  alpha:  1.000e+00  linmin: -9.268e-01  t[s]:   2375.15

#--- Lowdin population analysis ---
# oxidation-state Cu +0.303 +0.303 +0.071 +0.043 +0.078 +0.074 +0.078 +0.074 +0.078 +0.043 +0.071
# magnetic-moments Cu +0.000 +0.000 +0.000 +0.000 +0.000 +0.000 -0.000 -0.000 +0.000 +0.000 +0.000


Computing DFT-D3 correction:
# coordination-number Cu 5.590 5.589 7.584 9.127 8.996 9.107 9.123 9.109 9.002 9.131 7.587
# diagonal-C6 Cu 175.00 175.00 175.00 175.00 175.00 175.00 175.00 175.00 175.00 175.00 175.00
EvdW_6 =   -0.066525
EvdW_8 =   -0.099030
Shifting auxilliary hamiltonian by -0.000060 to set nElectrons=208.699627

-------- Electronic minimization -----------
	Linear fluid (dielectric constant: 78.4, screening length: 8.12261 Bohr) occupying 0.553265 of unit cell:	Completed after 13 iterations at t[s]:   2389.13
	FillingsUpdate:  mu: -0.208000000  nElectrons: 208.699627  magneticMoment: [ Abs: 0.00007  Tot: +0.00000 ]
ElecMinimize: Iter:   0  G: -2176.907663510341081  |grad|_K:  6.448e-07  alpha:  1.000e+00
	Linear fluid (dielectric constant: 78.4, screening length: 8.12261 Bohr) occupying 0.553270 of unit cell:	Completed after 13 iterations at t[s]:   2419.52
	Linear fluid (dielectric constant: 78.4, screening length: 8.12261 Bohr) occupying 0.553266 of unit cell:	Completed after 13 iterations at t[s]:   2430.09
	FillingsUpdate:  mu: -0.208000000  nElectrons: 208.700424  magneticMoment: [ Abs: 0.00006  Tot: +0.00000 ]
	SubspaceRotationAdjust: set factor to 0.121
ElecMinimize: Iter:   1  G: -2176.907670080025127  |grad|_K:  4.271e-07  alpha:  1.255e-01  linmin: -3.981e-06  t[s]:   2446.12
	Linear fluid (dielectric constant: 78.4, screening length: 8.12261 Bohr) occupying 0.553265 of unit cell:	Completed after 8 iterations at t[s]:   2458.50
	Linear fluid (dielectric constant: 78.4, screening length: 8.12261 Bohr) occupying 0.553264 of unit cell:	Completed after 8 iterations at t[s]:   2468.75
	FillingsUpdate:  mu: -0.208000000  nElectrons: 208.699803  magneticMoment: [ Abs: 0.00003  Tot: +0.00000 ]
	SubspaceRotationAdjust: set factor to 0.125
ElecMinimize: Iter:   2  G: -2176.907676205927146  |grad|_K:  3.184e-07  alpha:  2.668e-01  linmin:  1.781e-05  t[s]:   2484.73
	Linear fluid (dielectric constant: 78.4, screening length: 8.12261 Bohr) occupying 0.553263 of unit cell:	Completed after 10 iterations at t[s]:   2497.31
	Linear fluid (dielectric constant: 78.4, screening length: 8.12261 Bohr) occupying 0.553263 of unit cell:	Completed after 2 iterations at t[s]:   2507.07
	FillingsUpdate:  mu: -0.208000000  nElectrons: 208.699503  magneticMoment: [ Abs: 0.00002  Tot: +0.00000 ]
	SubspaceRotationAdjust: set factor to 0.131
ElecMinimize: Iter:   3  G: -2176.907678600387044  |grad|_K:  2.336e-07  alpha:  1.877e-01  linmin:  9.518e-05  t[s]:   2523.26
	Linear fluid (dielectric constant: 78.4, screening length: 8.12261 Bohr) occupying 0.553263 of unit cell:	Completed after 8 iterations at t[s]:   2535.74
	Linear fluid (dielectric constant: 78.4, screening length: 8.12261 Bohr) occupying 0.553263 of unit cell:	Completed after 2 iterations at t[s]:   2545.60
	FillingsUpdate:  mu: -0.208000000  nElectrons: 208.699506  magneticMoment: [ Abs: 0.00002  Tot: +0.00000 ]
	SubspaceRotationAdjust: set factor to 0.15
ElecMinimize: Iter:   4  G: -2176.907679540314803  |grad|_K:  1.364e-07  alpha:  1.372e-01  linmin: -1.169e-04  t[s]:   2561.60
	Linear fluid (dielectric constant: 78.4, screening length: 8.12261 Bohr) occupying 0.553263 of unit cell:	Completed after 2 iterations at t[s]:   2573.71
	Linear fluid (dielectric constant: 78.4, screening length: 8.12261 Bohr) occupying 0.553264 of unit cell:	Completed after 2 iterations at t[s]:   2583.46
	FillingsUpdate:  mu: -0.208000000  nElectrons: 208.699353  magneticMoment: [ Abs: 0.00002  Tot: +0.00000 ]
	SubspaceRotationAdjust: set factor to 0.162
ElecMinimize: Iter:   5  G: -2176.907680362905012  |grad|_K:  1.842e-07  alpha:  3.503e-01  linmin: -1.587e-04  t[s]:   2599.82
	Linear fluid (dielectric constant: 78.4, screening length: 8.12261 Bohr) occupying 0.553267 of unit cell:	Completed after 6 iterations at t[s]:   2612.16
	Linear fluid (dielectric constant: 78.4, screening length: 8.12261 Bohr) occupying 0.553265 of unit cell:	Completed after 2 iterations at t[s]:   2621.96
	FillingsUpdate:  mu: -0.208000000  nElectrons: 208.699278  magneticMoment: [ Abs: 0.00007  Tot: +0.00000 ]
	SubspaceRotationAdjust: set factor to 0.203
ElecMinimize: Iter:   6  G: -2176.907680985649222  |grad|_K:  1.029e-07  alpha:  1.457e-01  linmin: -7.685e-06  t[s]:   2637.92
	Linear fluid (dielectric constant: 78.4, screening length: 8.12261 Bohr) occupying 0.553266 of unit cell:	Completed after 2 iterations at t[s]:   2649.93
	Linear fluid (dielectric constant: 78.4, screening length: 8.12261 Bohr) occupying 0.553267 of unit cell:	Completed after 2 iterations at t[s]:   2659.74
	FillingsUpdate:  mu: -0.208000000  nElectrons: 208.699311  magneticMoment: [ Abs: 0.00005  Tot: +0.00000 ]
	SubspaceRotationAdjust: set factor to 0.235
ElecMinimize: Iter:   7  G: -2176.907681236894405  |grad|_K:  1.209e-07  alpha:  1.893e-01  linmin:  2.300e-04  t[s]:   2675.79
	Linear fluid (dielectric constant: 78.4, screening length: 8.12261 Bohr) occupying 0.553270 of unit cell:	Completed after 3 iterations at t[s]:   2687.88
	Linear fluid (dielectric constant: 78.4, screening length: 8.12261 Bohr) occupying 0.553272 of unit cell:	Completed after 2 iterations at t[s]:   2697.67
	FillingsUpdate:  mu: -0.208000000  nElectrons: 208.699290  magneticMoment: [ Abs: 0.00007  Tot: +0.00001 ]
	SubspaceRotationAdjust: set factor to 0.277
ElecMinimize: Iter:   8  G: -2176.907681855845112  |grad|_K:  1.104e-07  alpha:  3.399e-01  linmin: -4.237e-05  t[s]:   2713.76
	Linear fluid (dielectric constant: 78.4, screening length: 8.12261 Bohr) occupying 0.553278 of unit cell:	Completed after 9 iterations at t[s]:   2726.27
	Linear fluid (dielectric constant: 78.4, screening length: 8.12261 Bohr) occupying 0.553276 of unit cell:	Completed after 7 iterations at t[s]:   2736.37
	FillingsUpdate:  mu: -0.208000000  nElectrons: 208.699135  magneticMoment: [ Abs: 0.00006  Tot: +0.00001 ]
	SubspaceRotationAdjust: set factor to 0.304
ElecMinimize: Iter:   9  G: -2176.907682132375612  |grad|_K:  1.101e-07  alpha:  1.787e-01  linmin:  1.710e-05  t[s]:   2752.35
	Linear fluid (dielectric constant: 78.4, screening length: 8.12261 Bohr) occupying 0.553280 of unit cell:	Completed after 9 iterations at t[s]:   2764.83
	Linear fluid (dielectric constant: 78.4, screening length: 8.12261 Bohr) occupying 0.553280 of unit cell:	Completed after 0 iterations at t[s]:   2774.50
	FillingsUpdate:  mu: -0.208000000  nElectrons: 208.699290  magneticMoment: [ Abs: 0.00004  Tot: +0.00001 ]
	SubspaceRotationAdjust: set factor to 0.298
ElecMinimize: Iter:  10  G: -2176.907682427013697  |grad|_K:  1.066e-07  alpha:  1.930e-01  linmin: -1.575e-04  t[s]:   2790.54
	Linear fluid (dielectric constant: 78.4, screening length: 8.12261 Bohr) occupying 0.553284 of unit cell:	Completed after 9 iterations at t[s]:   2803.08
	Linear fluid (dielectric constant: 78.4, screening length: 8.12261 Bohr) occupying 0.553283 of unit cell:	Completed after 10 iterations at t[s]:   2813.52
	FillingsUpdate:  mu: -0.208000000  nElectrons: 208.698887  magneticMoment: [ Abs: 0.00006  Tot: +0.00001 ]
	SubspaceRotationAdjust: set factor to 0.227
ElecMinimize: Iter:  11  G: -2176.907682601633041  |grad|_K:  1.160e-07  alpha:  1.190e-01  linmin:  4.566e-05  t[s]:   2829.56
	Linear fluid (dielectric constant: 78.4, screening length: 8.12261 Bohr) occupying 0.553287 of unit cell:	Completed after 10 iterations at t[s]:   2842.20
	Linear fluid (dielectric constant: 78.4, screening length: 8.12261 Bohr) occupying 0.553286 of unit cell:	Completed after 0 iterations at t[s]:   2851.77
	FillingsUpdate:  mu: -0.208000000  nElectrons: 208.699117  magneticMoment: [ Abs: 0.00006  Tot: +0.00001 ]
	SubspaceRotationAdjust: set factor to 0.163
ElecMinimize: Iter:  12  G: -2176.907682796168956  |grad|_K:  9.323e-08  alpha:  1.152e-01  linmin:  1.065e-04  t[s]:   2867.80
	Linear fluid (dielectric constant: 78.4, screening length: 8.12261 Bohr) occupying 0.553289 of unit cell:	Completed after 7 iterations at t[s]:   2880.14
	Linear fluid (dielectric constant: 78.4, screening length: 8.12261 Bohr) occupying 0.553289 of unit cell:	Completed after 0 iterations at t[s]:   2889.71
	FillingsUpdate:  mu: -0.208000000  nElectrons: 208.698969  magneticMoment: [ Abs: 0.00002  Tot: +0.00001 ]
	SubspaceRotationAdjust: set factor to 0.187
ElecMinimize: Iter:  13  G: -2176.907682940726318  |grad|_K:  5.132e-08  alpha:  1.332e-01  linmin: -2.805e-04  t[s]:   2905.63
	Linear fluid (dielectric constant: 78.4, screening length: 8.12261 Bohr) occupying 0.553290 of unit cell:	Completed after 7 iterations at t[s]:   2918.06
	Linear fluid (dielectric constant: 78.4, screening length: 8.12261 Bohr) occupying 0.553290 of unit cell:	Completed after 0 iterations at t[s]:   2927.68
	FillingsUpdate:  mu: -0.208000000  nElectrons: 208.698834  magneticMoment: [ Abs: 0.00002  Tot: +0.00001 ]
	SubspaceRotationAdjust: set factor to 0.177
ElecMinimize: Iter:  14  G: -2176.907682995063169  |grad|_K:  5.014e-08  alpha:  1.592e-01  linmin: -9.616e-04  t[s]:   2943.63
	Linear fluid (dielectric constant: 78.4, screening length: 8.12261 Bohr) occupying 0.553291 of unit cell:	Completed after 3 iterations at t[s]:   2955.74
	Linear fluid (dielectric constant: 78.4, screening length: 8.12261 Bohr) occupying 0.553291 of unit cell:	Completed after 0 iterations at t[s]:   2965.41
	FillingsUpdate:  mu: -0.208000000  nElectrons: 208.698909  magneticMoment: [ Abs: 0.00002  Tot: +0.00001 ]
	SubspaceRotationAdjust: set factor to 0.18
ElecMinimize: Iter:  15  G: -2176.907683055953839  |grad|_K:  3.424e-08  alpha:  1.820e-01  linmin: -4.120e-04  t[s]:   2981.35
ElecMinimize: Converged (|Delta G|<1.000000e-07 for 2 iters).
Setting wave functions to eigenvectors of Hamiltonian
Converging empty states (this may take a while): |deigs|: 1.168e-08

Computing DFT-D3 correction:
# coordination-number Cu 5.590 5.589 7.584 9.127 8.996 9.107 9.123 9.109 9.002 9.131 7.587
# diagonal-C6 Cu 175.00 175.00 175.00 175.00 175.00 175.00 175.00 175.00 175.00 175.00 175.00
EvdW_6 =   -0.066525
EvdW_8 =   -0.099030

# Ionic positions in cartesian coordinates:
ion Cu   0.001535651104680  -0.003432815031830  21.264755926630237 1
ion Cu  -0.002204061823129   4.315150547131438   1.090881854248020 1
ion Cu   2.381765799926539   0.715556069829922   2.944646074765088 1
ion Cu   2.382367141280072   5.058359692233871   5.052659210485540 1
ion Cu   0.002611007364969   1.434323222813166   7.106360383291368 1
ion Cu   0.000245272917925   5.739651679496993   9.135920560092607 1
ion Cu   2.383388035275550   2.155664733839849  11.180842280577913 1
ion Cu   2.382646880014799   6.475845071396460  13.220238744782531 1
ion Cu  -0.001894641945835   2.877259319461130  15.254221819936784 1
ion Cu   0.000990614964405   7.157453629635960  17.302867278408652 1
ion Cu   2.385102300920027   3.596913849193046  19.412802866781284 1

# Forces in Cartesian coordinates:
force Cu  -0.000000919667919  -0.000084725410189   0.000451377275347 1
force Cu   0.000001411683668   0.000088741501454  -0.000402352774713 1
force Cu  -0.000014266878646   0.000196021618250   0.001200939805937 1
force Cu  -0.000050534194717   0.000010918222349  -0.000394756992309 1
force Cu  -0.000021116939995   0.000188608730650   0.000424270379701 1
force Cu   0.000024760366938   0.000062064045204  -0.000104313526860 1
force Cu   0.000002740255143  -0.000001201000571  -0.000039749212106 1
force Cu  -0.000019625195106  -0.000056900862000   0.000062660724200 1
force Cu   0.000026017473385  -0.000183730308809  -0.000466863083985 1
force Cu   0.000054605796152  -0.000005037803561   0.000407626278192 1
force Cu   0.000020405483230  -0.000192242631690  -0.001161743162667 1

# Energy components:
   A_diel =        0.0332255334514757
   Eewald =    16812.4795484025235055
       EH =    18826.0057335943238286
     Eloc =   -38275.7290309896852705
      Enl =      402.8796016811716640
     EvdW =       -0.1655549018122722
      Exc =     -213.4246699600014949
 Exc_core =        0.5166805435209700
       KE =      227.0629967608077777
  MuShift =        0.0247065959011086
-------------------------------------
     Etot =    -2220.3167627397961041
       TS =        0.0002932866070895
-------------------------------------
        F =    -2220.3170560264034066
      muN =      -43.4093729704494677
-------------------------------------
        G =    -2176.9076830559538394


Dumping 'jdft.fillings' ... done
Dumping 'jdft.wfns' ... done
Dumping 'jdft.fluidState' ... done
Dumping 'jdft.ionpos' ... done
Dumping 'jdft.lattice' ... done
Dumping 'jdft.eigenvals' ... done
Dumping 'jdft.eigStats' ... 
	eMin: -4.348858 at state 0 ( [ +0.000000 +0.000000 +0.000000 ] spin 1 )
	HOMO: -0.208134 at state 65 ( [ +0.230769 +0.142857 +0.000000 ] spin -1 )
	mu  : -0.208000
	LUMO: -0.207436 at state 42 ( [ +0.461538 +0.428571 +0.000000 ] spin 1 )
	eMax: +0.212514 at state 88 ( [ +0.461538 +0.428571 +0.000000 ] spin -1 )
	HOMO-LUMO gap: +0.000698
	Optical gap  : +0.004810 at state 1 ( [ +0.000000 +0.142857 +0.000000 ] spin 1 )
Dumping 'jdft.Ecomponents' ... done
IonicMinimize: Iter:   2  G: -2176.907683055953839  |grad|_K:  3.511e-04  alpha:  1.000e+00  linmin: -9.010e-01  t[s]:   3018.51
IonicMinimize: Converged (|Delta G|<1.000000e-04 for 2 iters).

#--- Lowdin population analysis ---
# oxidation-state Cu +0.303 +0.304 +0.071 +0.042 +0.077 +0.074 +0.077 +0.074 +0.077 +0.042 +0.071
# magnetic-moments Cu +0.000 +0.000 +0.000 +0.000 +0.000 +0.000 +0.000 +0.000 +0.000 +0.000 +0.000


Dumping 'jdft.n_up' ... done
Dumping 'jdft.n_dn' ... done
Dumping 'jdft.tau_up' ... done
Dumping 'jdft.tau_dn' ... done
Dumping 'jdft.eigenvals' ... done
Dumping 'jdft.eigStats' ... 
	eMin: -4.348858 at state 0 ( [ +0.000000 +0.000000 +0.000000 ] spin 1 )
	HOMO: -0.208134 at state 65 ( [ +0.230769 +0.142857 +0.000000 ] spin -1 )
	mu  : -0.208000
	LUMO: -0.207436 at state 42 ( [ +0.461538 +0.428571 +0.000000 ] spin 1 )
	eMax: +0.212514 at state 88 ( [ +0.461538 +0.428571 +0.000000 ] spin -1 )
	HOMO-LUMO gap: +0.000698
	Optical gap  : +0.004810 at state 1 ( [ +0.000000 +0.142857 +0.000000 ] spin 1 )
Dumping 'jdft.kPts' ... done
Dumping 'jdft.kMap' ... done
Dumping 'jdft.dosUp' ... done.
Dumping 'jdft.dosDn' ... done.
End date and time: Mon Sep 12 14:47:40 2022  (Duration: 0-0:50:43.61)
Done!

PROFILER:             augmentDensityGrid     1.649694 +/-     0.034171 s,  145 calls,    239.205650 s total
PROFILER:         augmentDensityGridGrad     0.100692 +/-     0.028955 s,   76 calls,      7.652563 s total
PROFILER:        augmentDensitySpherical     0.001111 +/-     0.000060 s,  435 calls,      0.483141 s total
PROFILER:    augmentDensitySphericalGrad     0.001169 +/-     0.000204 s,  263 calls,      0.307536 s total
PROFILER:                 augmentOverlap     0.401389 +/-     0.036931 s,  937 calls,    376.101170 s total
PROFILER:                     diagouterI     1.365582 +/-     0.029084 s,  444 calls,    606.318624 s total
PROFILER:              EdensityAndVscloc     1.404168 +/-     0.460313 s,  145 calls,    203.604367 s total
PROFILER:                     EnlAndGrad     0.002681 +/-     0.000494 s,  479 calls,      1.284184 s total
PROFILER:            ExCorrCommunication     0.017673 +/-     0.044499 s,  905 calls,     15.994112 s total
PROFILER:               ExCorrFunctional     0.002794 +/-     0.000460 s,  155 calls,      0.433053 s total
PROFILER:                    ExCorrTotal     0.135371 +/-     0.089626 s,  155 calls,     20.982544 s total
PROFILER:                   Idag_DiagV_I     2.536758 +/-     0.552973 s,  254 calls,    644.336451 s total
PROFILER:                    initWeights     1.854552 +/-     0.000000 s,    1 calls,      1.854552 s total
PROFILER:                    inv(matrix)     0.001578 +/-     0.000095 s,  432 calls,      0.681841 s total
PROFILER:            matrix::diagonalize     0.005838 +/-     0.002707 s,  692 calls,      4.039982 s total
PROFILER:                    matrix::set     0.000006 +/-     0.000006 s, 8394 calls,      0.047369 s total
PROFILER:            orthoMatrix(matrix)     0.000903 +/-     0.000596 s,  461 calls,      0.416305 s total
PROFILER:     RadialFunctionR::transform     0.018606 +/-     0.124588 s,   57 calls,      1.060563 s total
PROFILER:                    reduceKmesh     0.000190 +/-     0.000000 s,    1 calls,      0.000190 s total
PROFILER:   VanDerWaalsD3::energyAndGrad     0.006125 +/-     0.000418 s,    7 calls,      0.042872 s total
PROFILER:               WavefunctionDrag     5.229365 +/-     1.431817 s,    3 calls,     15.688095 s total
PROFILER:                            Y*M     0.127188 +/-     0.032263 s, 3050 calls,    387.924760 s total
PROFILER:                          Y1^Y2     0.130224 +/-     0.036525 s, 1977 calls,    257.453252 s total

MEMUSAGE:                   ColumnBundle     0.295585 GB
MEMUSAGE:        complexScalarFieldTilde     0.006008 GB
MEMUSAGE:                    IndexArrays     0.014800 GB
MEMUSAGE:                         matrix     0.014776 GB
MEMUSAGE:                           misc     0.006050 GB
MEMUSAGE:                    ScalarField     0.043559 GB
MEMUSAGE:               ScalarFieldTilde     0.031768 GB
MEMUSAGE:                          Total     0.350872 GB
