
*************** JDFTx 1.7.0 (git hash 5f12716a) ***************

Start date and time: Fri Sep  9 08:26:53 2022
Executable /home/nisi6161/jdftx_alpine/build/jdftx with command-line: -i in
Running on hosts (process indices):  c3cpu-a2-u17-1.rc.int.colorado.edu (0-23)
Divided in process groups (process indices):  0 (0)  1 (1)  2 (2)  3 (3)  4 (4)  5 (5)  6 (6)  7 (7)  8 (8)  9 (9)  10 (10)  11 (11)  12 (12)  13 (13)  14 (14)  15 (15)  16 (16)  17 (17)  18 (18)  19 (19)  20 (20)  21 (21)  22 (22)  23 (23)
Resource initialization completed at t[s]:      0.00
Run totals: 24 processes, 64 threads, 0 GPUs


Input parsed successfully to the following command list (including defaults):

basis kpoint-dependent
converge-empty-states yes
coords-type Cartesian
core-overlap-check none
coulomb-interaction Periodic
davidson-band-ratio 1.1
density-of-states Etol 1.000000e-06 Esigma 1.000000e-03 \
		Complete \
	Total \
	OrthoOrbital Ag 1   s \
	OrthoOrbital Ag 1   p \
	OrthoOrbital Ag 1   px \
	OrthoOrbital Ag 1   py \
	OrthoOrbital Ag 1   pz \
	OrthoOrbital Ag 1   d \
	OrthoOrbital Ag 1   dxy \
	OrthoOrbital Ag 1   dyz \
	OrthoOrbital Ag 1   dz2 \
	OrthoOrbital Ag 1   dxz \
	OrthoOrbital Ag 1   dx2-y2 \
	OrthoOrbital Ag 2   s \
	OrthoOrbital Ag 2   p \
	OrthoOrbital Ag 2   px \
	OrthoOrbital Ag 2   py \
	OrthoOrbital Ag 2   pz \
	OrthoOrbital Ag 2   d \
	OrthoOrbital Ag 2   dxy \
	OrthoOrbital Ag 2   dyz \
	OrthoOrbital Ag 2   dz2 \
	OrthoOrbital Ag 2   dxz \
	OrthoOrbital Ag 2   dx2-y2 \
	OrthoOrbital Ag 3   s \
	OrthoOrbital Ag 3   p \
	OrthoOrbital Ag 3   px \
	OrthoOrbital Ag 3   py \
	OrthoOrbital Ag 3   pz \
	OrthoOrbital Ag 3   d \
	OrthoOrbital Ag 3   dxy \
	OrthoOrbital Ag 3   dyz \
	OrthoOrbital Ag 3   dz2 \
	OrthoOrbital Ag 3   dxz \
	OrthoOrbital Ag 3   dx2-y2 \
	OrthoOrbital Ag 4   s \
	OrthoOrbital Ag 4   p \
	OrthoOrbital Ag 4   px \
	OrthoOrbital Ag 4   py \
	OrthoOrbital Ag 4   pz \
	OrthoOrbital Ag 4   d \
	OrthoOrbital Ag 4   dxy \
	OrthoOrbital Ag 4   dyz \
	OrthoOrbital Ag 4   dz2 \
	OrthoOrbital Ag 4   dxz \
	OrthoOrbital Ag 4   dx2-y2 \
	OrthoOrbital Ag 5   s \
	OrthoOrbital Ag 5   p \
	OrthoOrbital Ag 5   px \
	OrthoOrbital Ag 5   py \
	OrthoOrbital Ag 5   pz \
	OrthoOrbital Ag 5   d \
	OrthoOrbital Ag 5   dxy \
	OrthoOrbital Ag 5   dyz \
	OrthoOrbital Ag 5   dz2 \
	OrthoOrbital Ag 5   dxz \
	OrthoOrbital Ag 5   dx2-y2 \
	OrthoOrbital Ag 6   s \
	OrthoOrbital Ag 6   p \
	OrthoOrbital Ag 6   px \
	OrthoOrbital Ag 6   py \
	OrthoOrbital Ag 6   pz \
	OrthoOrbital Ag 6   d \
	OrthoOrbital Ag 6   dxy \
	OrthoOrbital Ag 6   dyz \
	OrthoOrbital Ag 6   dz2 \
	OrthoOrbital Ag 6   dxz \
	OrthoOrbital Ag 6   dx2-y2 \
	OrthoOrbital Ag 7   s \
	OrthoOrbital Ag 7   p \
	OrthoOrbital Ag 7   px \
	OrthoOrbital Ag 7   py \
	OrthoOrbital Ag 7   pz \
	OrthoOrbital Ag 7   d \
	OrthoOrbital Ag 7   dxy \
	OrthoOrbital Ag 7   dyz \
	OrthoOrbital Ag 7   dz2 \
	OrthoOrbital Ag 7   dxz \
	OrthoOrbital Ag 7   dx2-y2 \
	OrthoOrbital Ag 8   s \
	OrthoOrbital Ag 8   p \
	OrthoOrbital Ag 8   px \
	OrthoOrbital Ag 8   py \
	OrthoOrbital Ag 8   pz \
	OrthoOrbital Ag 8   d \
	OrthoOrbital Ag 8   dxy \
	OrthoOrbital Ag 8   dyz \
	OrthoOrbital Ag 8   dz2 \
	OrthoOrbital Ag 8   dxz \
	OrthoOrbital Ag 8   dx2-y2 \
	OrthoOrbital Ag 9   s \
	OrthoOrbital Ag 9   p \
	OrthoOrbital Ag 9   px \
	OrthoOrbital Ag 9   py \
	OrthoOrbital Ag 9   pz \
	OrthoOrbital Ag 9   d \
	OrthoOrbital Ag 9   dxy \
	OrthoOrbital Ag 9   dyz \
	OrthoOrbital Ag 9   dz2 \
	OrthoOrbital Ag 9   dxz \
	OrthoOrbital Ag 9   dx2-y2 \
	OrthoOrbital Ag 10   s \
	OrthoOrbital Ag 10   p \
	OrthoOrbital Ag 10   px \
	OrthoOrbital Ag 10   py \
	OrthoOrbital Ag 10   pz \
	OrthoOrbital Ag 10   d \
	OrthoOrbital Ag 10   dxy \
	OrthoOrbital Ag 10   dyz \
	OrthoOrbital Ag 10   dz2 \
	OrthoOrbital Ag 10   dxz \
	OrthoOrbital Ag 10   dx2-y2 \
	OrthoOrbital Ag 11   s \
	OrthoOrbital Ag 11   p \
	OrthoOrbital Ag 11   px \
	OrthoOrbital Ag 11   py \
	OrthoOrbital Ag 11   pz \
	OrthoOrbital Ag 11   d \
	OrthoOrbital Ag 11   dxy \
	OrthoOrbital Ag 11   dyz \
	OrthoOrbital Ag 11   dz2 \
	OrthoOrbital Ag 11   dxz \
	OrthoOrbital Ag 11   dx2-y2 \
	OrthoOrbital Ag 12   s \
	OrthoOrbital Ag 12   p \
	OrthoOrbital Ag 12   px \
	OrthoOrbital Ag 12   py \
	OrthoOrbital Ag 12   pz \
	OrthoOrbital Ag 12   d \
	OrthoOrbital Ag 12   dxy \
	OrthoOrbital Ag 12   dyz \
	OrthoOrbital Ag 12   dz2 \
	OrthoOrbital Ag 12   dxz \
	OrthoOrbital Ag 12   dx2-y2 \
	OrthoOrbital Ag 13   s \
	OrthoOrbital Ag 13   p \
	OrthoOrbital Ag 13   px \
	OrthoOrbital Ag 13   py \
	OrthoOrbital Ag 13   pz \
	OrthoOrbital Ag 13   d \
	OrthoOrbital Ag 13   dxy \
	OrthoOrbital Ag 13   dyz \
	OrthoOrbital Ag 13   dz2 \
	OrthoOrbital Ag 13   dxz \
	OrthoOrbital Ag 13   dx2-y2 \
	OrthoOrbital Ag 14   s \
	OrthoOrbital Ag 14   p \
	OrthoOrbital Ag 14   px \
	OrthoOrbital Ag 14   py \
	OrthoOrbital Ag 14   pz \
	OrthoOrbital Ag 14   d \
	OrthoOrbital Ag 14   dxy \
	OrthoOrbital Ag 14   dyz \
	OrthoOrbital Ag 14   dz2 \
	OrthoOrbital Ag 14   dxz \
	OrthoOrbital Ag 14   dx2-y2 \
	OrthoOrbital Ag 15   s \
	OrthoOrbital Ag 15   p \
	OrthoOrbital Ag 15   px \
	OrthoOrbital Ag 15   py \
	OrthoOrbital Ag 15   pz \
	OrthoOrbital Ag 15   d \
	OrthoOrbital Ag 15   dxy \
	OrthoOrbital Ag 15   dyz \
	OrthoOrbital Ag 15   dz2 \
	OrthoOrbital Ag 15   dxz \
	OrthoOrbital Ag 15   dx2-y2 \
	OrthoOrbital Ag 16   s \
	OrthoOrbital Ag 16   p \
	OrthoOrbital Ag 16   px \
	OrthoOrbital Ag 16   py \
	OrthoOrbital Ag 16   pz \
	OrthoOrbital Ag 16   d \
	OrthoOrbital Ag 16   dxy \
	OrthoOrbital Ag 16   dyz \
	OrthoOrbital Ag 16   dz2 \
	OrthoOrbital Ag 16   dxz \
	OrthoOrbital Ag 16   dx2-y2 \
	OrthoOrbital Ag 17   s \
	OrthoOrbital Ag 17   p \
	OrthoOrbital Ag 17   px \
	OrthoOrbital Ag 17   py \
	OrthoOrbital Ag 17   pz \
	OrthoOrbital Ag 17   d \
	OrthoOrbital Ag 17   dxy \
	OrthoOrbital Ag 17   dyz \
	OrthoOrbital Ag 17   dz2 \
	OrthoOrbital Ag 17   dxz \
	OrthoOrbital Ag 17   dx2-y2 \
	OrthoOrbital Ag 18   s \
	OrthoOrbital Ag 18   p \
	OrthoOrbital Ag 18   px \
	OrthoOrbital Ag 18   py \
	OrthoOrbital Ag 18   pz \
	OrthoOrbital Ag 18   d \
	OrthoOrbital Ag 18   dxy \
	OrthoOrbital Ag 18   dyz \
	OrthoOrbital Ag 18   dz2 \
	OrthoOrbital Ag 18   dxz \
	OrthoOrbital Ag 18   dx2-y2 \
	OrthoOrbital Ag 19   s \
	OrthoOrbital Ag 19   p \
	OrthoOrbital Ag 19   px \
	OrthoOrbital Ag 19   py \
	OrthoOrbital Ag 19   pz \
	OrthoOrbital Ag 19   d \
	OrthoOrbital Ag 19   dxy \
	OrthoOrbital Ag 19   dyz \
	OrthoOrbital Ag 19   dz2 \
	OrthoOrbital Ag 19   dxz \
	OrthoOrbital Ag 19   dx2-y2 \
	OrthoOrbital Ag 20   s \
	OrthoOrbital Ag 20   p \
	OrthoOrbital Ag 20   px \
	OrthoOrbital Ag 20   py \
	OrthoOrbital Ag 20   pz \
	OrthoOrbital Ag 20   d \
	OrthoOrbital Ag 20   dxy \
	OrthoOrbital Ag 20   dyz \
	OrthoOrbital Ag 20   dz2 \
	OrthoOrbital Ag 20   dxz \
	OrthoOrbital Ag 20   dx2-y2
dump End ElecDensity KEdensity BandEigs EigStats RhoAtom DOS Kpoints
dump Ionic State IonicPositions Lattice EigStats Ecomponents
dump 
dump 
dump 
dump 
dump 
dump 
dump 
dump 
dump-name jdft.$VAR
elec-cutoff 20
elec-eigen-algo Davidson
elec-ex-corr gga-PBE
elec-initial-magnetization 0.000000 no
elec-n-bands 228
elec-smearing Fermi 0.001
electronic-minimize  \
	dirUpdateScheme      FletcherReeves \
	linminMethod         DirUpdateRecommended \
	nIterations          100 \
	history              15 \
	knormThreshold       0 \
	energyDiffThreshold  1e-07 \
	nEnergyDiff          2 \
	alphaTstart          1 \
	alphaTmin            1e-10 \
	updateTestStepSize   yes \
	alphaTreduceFactor   0.1 \
	alphaTincreaseFactor 3 \
	nAlphaAdjustMax      3 \
	wolfeEnergy          0.0001 \
	wolfeGradient        0.9 \
	fdTest               no
exchange-regularization WignerSeitzTruncated
fluid LinearPCM 298.000000 1.013250
fluid-anion F- 0.5 MeanFieldLJ \
	epsBulk 1 \
	pMol 0 \
	epsInf 1 \
	Pvap 0 \
	sigmaBulk 0 \
	Rvdw 2.24877 \
	Res 0 \
	tauNuc 343133
fluid-cation Na+ 0.5 MeanFieldLJ \
	epsBulk 1 \
	pMol 0 \
	epsInf 1 \
	Pvap 0 \
	sigmaBulk 0 \
	Rvdw 2.19208 \
	Res 0 \
	tauNuc 343133
fluid-ex-corr lda-TF lda-PZ
fluid-gummel-loop 10 1.000000e-05
fluid-minimize  \
	dirUpdateScheme      PolakRibiere \
	linminMethod         DirUpdateRecommended \
	nIterations          400 \
	history              15 \
	knormThreshold       1e-11 \
	energyDiffThreshold  0 \
	nEnergyDiff          2 \
	alphaTstart          1 \
	alphaTmin            1e-10 \
	updateTestStepSize   yes \
	alphaTreduceFactor   0.1 \
	alphaTincreaseFactor 3 \
	nAlphaAdjustMax      6 \
	wolfeEnergy          0.0001 \
	wolfeGradient        0.9 \
	fdTest               no
fluid-solvent H2O 55.338 ScalarEOS \
	epsBulk 78.4 \
	pMol 0.92466 \
	epsInf 1.77 \
	Pvap 1.06736e-10 \
	sigmaBulk 4.62e-05 \
	Rvdw 2.61727 \
	Res 1.42 \
	tauNuc 343133 \
	poleEl 15 7 1
forces-output-coords Positions
initial-state jdft.$VAR
ion Ag  -0.000244981866071   4.735410471213805  21.425836773930481 1
ion Ag  -0.000021731179722   9.596501090528426  18.890014927185462 1
ion Ag   0.000306132409127   2.353097255472782  16.426767258337367 1
ion Ag   0.000503121280031   7.259533991736713  13.981307741334113 1
ion Ag   0.000565178319905  12.122871512635376  11.495696527105949 1
ion Ag   0.000716957573886   4.889180587092260   9.050896260434760 1
ion Ag   0.000599589560721   9.794410158054950   6.593506350075311 1
ion Ag   0.000655832123043   2.460411537418972   4.042948311749411 1
ion Ag   0.000681086966273   7.470407838672489   1.684619524547214 1
ion Ag  -0.000681979016243  -0.195952246442362  23.681705418061600 1
ion Ag   3.832078386149580   1.174607948221593  20.197781013245955 1
ion Ag   3.832274452635323   5.965934943769135  17.648079761727804 1
ion Ag   3.832181987932616  10.870433012483183  15.189540523124169 1
ion Ag   3.832349564209840   3.633650979684984  12.744738338902367 1
ion Ag   3.832389272211532   8.497746477300755  10.258802357456270 1
ion Ag   3.832579449623955   1.286928803440306   7.813957383469313 1
ion Ag   3.832857264419172   6.162379341499511   5.351182307031780 1
ion Ag   3.833004679767568  11.018555126256247   2.814919179913714 1
ion Ag   3.833401240095512   3.826883059295839   0.559236782743137 1
ion Ag   3.832142496783943   8.281891111665029  22.558015259623840 1
ion-species /projects/musgravc/apps/jdftx-1.6.0/build/pseudopotentials/GBRV_v1.5/$ID_pbe_v1.uspp
ion-species /projects/musgravc/apps/jdftx-1.6.0/build/pseudopotentials/GBRV_v1.5/$ID_pbe_v1.2.uspp
ion-species /projects/musgravc/apps/jdftx-1.6.0/build/pseudopotentials/GBRV_v1.5/$ID_pbe_v1.4.uspp
ion-species /projects/musgravc/apps/jdftx-1.6.0/build/pseudopotentials/GBRV_v1.5/$ID_pbe_v1.5.uspp
ion-width Ecut
ionic-minimize  \
	dirUpdateScheme      L-BFGS \
	linminMethod         DirUpdateRecommended \
	nIterations          100 \
	history              15 \
	knormThreshold       0.0001 \
	energyDiffThreshold  0.0001 \
	nEnergyDiff          2 \
	alphaTstart          1 \
	alphaTmin            1e-10 \
	updateTestStepSize   yes \
	alphaTreduceFactor   0.1 \
	alphaTincreaseFactor 3 \
	nAlphaAdjustMax      3 \
	wolfeEnergy          0.0001 \
	wolfeGradient        0.9 \
	fdTest               no
kpoint   0.000000000000   0.000000000000   0.000000000000  1.00000000000000
kpoint-folding 9 5 1 
latt-move-scale 0 0 0
latt-scale 1 1 1 
lattice  \
	   7.665668000000000    0.000000000000000    0.000000000000000  \
	   0.000000000000000   12.120486000000000    0.000000000000000  \
	   0.000000000000000    0.000000000000000   72.722915999999998 
lattice-minimize  \
	dirUpdateScheme      L-BFGS \
	linminMethod         DirUpdateRecommended \
	nIterations          0 \
	history              15 \
	knormThreshold       0 \
	energyDiffThreshold  1e-06 \
	nEnergyDiff          2 \
	alphaTstart          1 \
	alphaTmin            1e-10 \
	updateTestStepSize   yes \
	alphaTreduceFactor   0.1 \
	alphaTincreaseFactor 3 \
	nAlphaAdjustMax      3 \
	wolfeEnergy          0.0001 \
	wolfeGradient        0.9 \
	fdTest               no
lcao-params 30 1e-06 0.001
pcm-variant CANDLE
spintype z-spin
subspace-rotation-factor 1 yes
symmetries automatic
symmetry-threshold 0.0001
target-mu -0.24475 no

van-der-waals D3



---------- Setting up symmetries ----------

Found 8 point-group symmetries of the bravais lattice
Found 1 space-group symmetries with basis
Applied RMS atom displacement 0 bohrs to make symmetries exact.

---------- Initializing the Grid ----------
R = 
[      7.66567            0            0  ]
[            0      12.1205            0  ]
[            0            0      72.7229  ]
unit cell volume = 6756.8
G =
[   0.819653          0          0  ]
[          0   0.518394          0  ]
[          0          0   0.086399  ]
Minimum fftbox size, Smin = [  32  52  296  ]
Chosen fftbox size, S = [  32  54  300  ]

---------- Exchange Correlation functional ----------
Initalized PBE GGA exchange.
Initalized PBE GGA correlation.

---------- Setting up pseudopotentials ----------
Width of ionic core gaussian charges (only for fluid interactions / plotting) set to 0.397384

Reading pseudopotential file '/projects/musgravc/apps/jdftx-1.6.0/build/pseudopotentials/GBRV_v1.5/ag_pbe_v1.4.uspp':
  Title: Ag.  Created by USPP 7.3.6 on 1-4-15
  Reference state energy: -147.606242.  19 valence electrons in orbitals:
    |400>  occupation: 2  eigenvalue: -3.637437
    |410>  occupation: 6  eigenvalue: -2.297267
    |420>  occupation: 10  eigenvalue: -0.417763
    |500>  occupation: 0.5  eigenvalue: -0.283525
    |510>  occupation: 0  eigenvalue: -0.122889
  lMax: 2  lLocal: 0  QijEcut: 5.5
  6 projectors sampled on a log grid with 717 points:
    l: 0  eig: -0.283528  rCut: 1.5
    l: 0  eig: -3.637440  rCut: 1.5
    l: 1  eig: -0.122892  rCut: 1.5
    l: 1  eig: -2.297267  rCut: 1.5
    l: 2  eig: -0.417762  rCut: 1.7
    l: 2  eig: -1.000000  rCut: 1.7
  Partial core density with radius 1.2
  Transforming core density to a uniform radial grid of dG=0.02 with 1163 points.
  Transforming local potential to a uniform radial grid of dG=0.02 with 1163 points.
  Transforming nonlocal projectors to a uniform radial grid of dG=0.02 with 432 points.
  Transforming density augmentations to a uniform radial grid of dG=0.02 with 1163 points.
  Transforming atomic orbitals to a uniform radial grid of dG=0.02 with 432 points.
  Core radius for overlap checks: 1.70 bohrs.

Initialized 1 species with 20 total atoms.

Folded 1 k-points by 9x5x1 to 45 k-points.

---------- Setting up k-points, bands, fillings ----------
Adding inversion symmetry to k-mesh for non-inversion-symmetric unit cell.
Reduced to 23 k-points under symmetry. 
Computing the number of bands and number of electrons
Reading initial fillings from file jdft.fillings.
nElectrons: 378.687097   nBands: 228   nStates: 46

----- Setting up reduced wavefunction bases (one per k-point) -----
average nbasis = 28863.000 , ideal nbasis = 28865.582

----- Initializing Supercell corresponding to k-point mesh -----
Lattice vector linear combinations in supercell:
[   9   0   0  ]
[   0   5   0  ]
[   0   0   1  ]
Supercell lattice vectors:
[  68.991  0  0  ]
[  0  60.6024  0  ]
[  0  0  72.7229  ]

Initializing DFT-D3 calculator:
	Parameters set for gga-PBE functional
	s6:  1.000  s_r6:  1.217
	s8:  0.722  s_r8:  1.000
	Per-atom parameters loaded for:
	Ag:  sqrtQ[a0]:  5.443  Rcov[a0]:  2.173  CN: [ 0.00 0.97 ]

Initializing DFT-D2 calculator for fluid / solvation:
	Ag:  C6:  427.91 Eh-a0^6  R0: 3.097 a0

---------- Setting up ewald sum ----------
Optimum gaussian width for ewald sums = 4.577751 bohr.
Real space sum over 825 unit cells with max indices [  7  5  2  ]
Reciprocal space sum over 5049 terms with max indices [  4  5  25  ]

Computing DFT-D3 correction:
# coordination-number Ag 6.810 8.939 8.910 8.992 8.998 8.925 8.963 8.185 6.107 4.770 8.183 8.961 8.924 8.998 8.993 8.910 8.941 6.811 4.770 6.105
# diagonal-C6 Ag 268.61 268.61 268.61 268.61 268.61 268.61 268.61 268.61 268.61 268.61 268.61 268.61 268.61 268.61 268.61 268.61 268.61 268.61 268.61 268.61
EvdW_6 =   -0.124076
EvdW_8 =   -0.170800

---------- Allocating electronic variables ----------
Initializing wave functions:  reading from 'jdft.wfns'
----- createFluidSolver() ----- (Fluid-side solver setup)
   Initializing fluid molecule 'H2O'
     Initializing site 'O'
       Electron density: proportional to exp(-r/0.36935)*erfc((r-0.51523)/0.36823) with norm 6.826
       Charge density: gaussian nuclear width 0.478731 with net site charge 0.826
       Polarizability: cuspless exponential with width 0.32 and norm 3.73
       Hard sphere radius: 2.57003 bohrs
       Positions in reference frame:
         [ +0.000000 +0.000000 +0.000000 ]
     Initializing site 'H'
       Electron density: proportional to exp(-r/0.34641)*erfc((r-0)/0.390882) with norm 0.587
       Charge density: gaussian nuclear width 0.377945 with net site charge -0.413
       Polarizability: cuspless exponential with width 0.39 and norm 3.3
       Positions in reference frame:
         [ +0.000000 -1.441945 +1.122523 ]
         [ +0.000000 +1.441945 +1.122523 ]
     Net charge: 0   dipole magnitude: 0.927204
     Initializing spherical shell mfKernel with radius 2.61727 Bohr
     deltaS corrections:
       site 'O': -7.54299
       site 'H': -6.83917
   Initializing fluid molecule 'Na+'
     Initializing site 'Na'
       Electron density: proportional to exp(-r/0.19682)*erfc((r-0.71491)/0.41314) with norm 8.1383
       Charge density: gaussian nuclear width 0.365347 with net site charge -1
       Hard sphere radius: 1.86327 bohrs
       Positions in reference frame:
         [ +0.000000 +0.000000 +0.000000 ]
     Net charge: -1   dipole magnitude: 0
     Initializing gaussian mfKernel with width: 1.55004 Bohr
     deltaS corrections:
       site 'Na': -22.3555
   Initializing fluid molecule 'F-'
     Initializing site 'F'
       Electron density: proportional to exp(-r/0.38886)*erfc((r-0)/0.438782) with norm 8
       Charge density: gaussian nuclear width 0.374796 with net site charge 1
       Hard sphere radius: 2.39995 bohrs
       Positions in reference frame:
         [ +0.000000 +0.000000 +0.000000 ]
     Net charge: 1   dipole magnitude: 0
     Initializing gaussian mfKernel with width: 1.59012 Bohr
     deltaS corrections:
       site 'F': -9.04335

Correction to mu due to finite nuclear width = -0.055801
   Cavity determined by nc: 0.00142 and sigma: 0.707107
   Nonlocal vdW cavity from gaussian model electron density with norm = 8 and sigma = 0.993594 bohr
   Charge asymmetry in cavity with sensitivity pCavity = 36.5 e-bohr/Eh
   Electrostatic cavity expanded by eta = 1.46 bohrs
   Weighted density cavitation model constrained by Nbulk: 0.0049383 bohr^-3, Pvap: 3.14029 kPa, Rvdw: 2.61727 bohr and sigmaBulk: 4.62e-05 Eh/bohr^2 at T: 298 K.
   Weighted density dispersion model using vdW pair potentials with single solvent site with sqrtC6eff: 0.77 SI.
Reading fluid state from 'jdft.fluidState'


---- Citations for features of the code used in this run ----

   Software package:
      R. Sundararaman, K. Letchworth-Weaver, K.A. Schwarz, D. Gunceler, Y. Ozhabes and T.A. Arias, 'JDFTx: software for joint density-functional theory', SoftwareX 6, 278 (2017)

   gga-PBE exchange-correlation functional:
      J.P. Perdew, K. Burke and M. Ernzerhof, Phys. Rev. Lett. 77, 3865 (1996)

   Pseudopotentials:
      KF Garrity, JW Bennett, KM Rabe and D Vanderbilt, Comput. Mater. Sci. 81, 446 (2014)

   DFT-D3 dispersion correction:
      S. Grimme, J. Antony, S. Ehrlich and H. Krieg, J. Chem. Phys. 132, 154104 (2010)

   DFT-D2 dispersion correction:
      S. Grimme, J. Comput. Chem. 27, 1787 (2006)

   Charge-asymmetric nonlocally-determined local-electric (CANDLE) solvation model:
      R. Sundararaman and W.A. Goddard III, J. Chem. Phys. 142, 064107 (2015)

   Total energy minimization with Auxiliary Hamiltonian:
      C. Freysoldt, S. Boeck, and J. Neugebauer, Phys. Rev. B 79, 241103(R) (2009)

   Grand-canonical (fixed-potential) DFT:
      R. Sundararaman, W. A. Goddard III and T. A. Arias, J. Chem. Phys. 146, 114104 (2017)

   Linear-tetrahedron sampling for density of states:
      G. Lehmann and M. Taut, Phys. status solidi (b) 54, 469 (1972)

This list may not be complete. Please suggest additional citations or
report any other bugs at https://github.com/shankar1729/jdftx/issues

Initialization completed successfully at t[s]:     20.71


Computing DFT-D3 correction:
# coordination-number Ag 6.810 8.939 8.910 8.992 8.998 8.925 8.963 8.185 6.107 4.770 8.183 8.961 8.924 8.998 8.993 8.910 8.941 6.811 4.770 6.105
# diagonal-C6 Ag 268.61 268.61 268.61 268.61 268.61 268.61 268.61 268.61 268.61 268.61 268.61 268.61 268.61 268.61 268.61 268.61 268.61 268.61 268.61 268.61
EvdW_6 =   -0.124076
EvdW_8 =   -0.170800
Shifting auxilliary hamiltonian by -0.000005 to set nElectrons=378.687097

-------- Electronic minimization -----------
	Linear fluid (dielectric constant: 78.4, screening length: 8.12261 Bohr) occupying 0.567199 of unit cell:	Completed after 2 iterations at t[s]:     38.74
	FillingsUpdate:  mu: -0.244750000  nElectrons: 378.687097  magneticMoment: [ Abs: 0.00000  Tot: -0.00000 ]
ElecMinimize: Iter:   0  G: -2859.288862117023200  |grad|_K:  2.391e-08  alpha:  1.000e+00
	Linear fluid (dielectric constant: 78.4, screening length: 8.12261 Bohr) occupying 0.567199 of unit cell:	Completed after 12 iterations at t[s]:    132.33
	Linear fluid (dielectric constant: 78.4, screening length: 8.12261 Bohr) occupying 0.567199 of unit cell:	Completed after 12 iterations at t[s]:    164.16
	FillingsUpdate:  mu: -0.244750000  nElectrons: 378.686982  magneticMoment: [ Abs: 0.00000  Tot: -0.00000 ]
	SubspaceRotationAdjust: set factor to 0.893
ElecMinimize: Iter:   1  G: -2859.288862125487867  |grad|_K:  1.306e-08  alpha:  2.690e-02  linmin: -8.314e-03  t[s]:    210.28
	Linear fluid (dielectric constant: 78.4, screening length: 8.12261 Bohr) occupying 0.567199 of unit cell:	Completed after 0 iterations at t[s]:    248.15
ElecMinimize: 	Predicted alpha/alphaT>3.000000, increasing alphaT to 8.069791e-02.
	Linear fluid (dielectric constant: 78.4, screening length: 8.12261 Bohr) occupying 0.567199 of unit cell:	Completed after 2 iterations at t[s]:    277.05
	Linear fluid (dielectric constant: 78.4, screening length: 8.12261 Bohr) occupying 0.567199 of unit cell:	Completed after 2 iterations at t[s]:    306.60
	FillingsUpdate:  mu: -0.244750000  nElectrons: 378.686895  magneticMoment: [ Abs: 0.00000  Tot: -0.00000 ]
	SubspaceRotationAdjust: set factor to 0.514
ElecMinimize: Iter:   2  G: -2859.288862127115863  |grad|_K:  2.205e-08  alpha:  2.807e-02  linmin:  5.555e-03  t[s]:    353.67
ElecMinimize: Converged (|Delta G|<1.000000e-07 for 2 iters).
Setting wave functions to eigenvectors of Hamiltonian
Converging empty states (this may take a while): |deigs|: 7.482e-09

Computing DFT-D3 correction:
# coordination-number Ag 6.810 8.939 8.910 8.992 8.998 8.925 8.963 8.185 6.107 4.770 8.183 8.961 8.924 8.998 8.993 8.910 8.941 6.811 4.770 6.105
# diagonal-C6 Ag 268.61 268.61 268.61 268.61 268.61 268.61 268.61 268.61 268.61 268.61 268.61 268.61 268.61 268.61 268.61 268.61 268.61 268.61 268.61 268.61
EvdW_6 =   -0.124076
EvdW_8 =   -0.170800

# Ionic positions in cartesian coordinates:
ion Ag  -0.000244981866071   4.735410471213805  21.425836773930481 1
ion Ag  -0.000021731179722   9.596501090528426  18.890014927185462 1
ion Ag   0.000306132409127   2.353097255472782  16.426767258337367 1
ion Ag   0.000503121280031   7.259533991736713  13.981307741334113 1
ion Ag   0.000565178319905  12.122871512635376  11.495696527105949 1
ion Ag   0.000716957573886   4.889180587092260   9.050896260434760 1
ion Ag   0.000599589560721   9.794410158054950   6.593506350075311 1
ion Ag   0.000655832123043   2.460411537418972   4.042948311749411 1
ion Ag   0.000681086966273   7.470407838672489   1.684619524547214 1
ion Ag  -0.000681979016243  -0.195952246442362  23.681705418061600 1
ion Ag   3.832078386149580   1.174607948221593  20.197781013245955 1
ion Ag   3.832274452635323   5.965934943769135  17.648079761727804 1
ion Ag   3.832181987932616  10.870433012483183  15.189540523124169 1
ion Ag   3.832349564209840   3.633650979684984  12.744738338902367 1
ion Ag   3.832389272211532   8.497746477300755  10.258802357456270 1
ion Ag   3.832579449623955   1.286928803440306   7.813957383469313 1
ion Ag   3.832857264419172   6.162379341499511   5.351182307031780 1
ion Ag   3.833004679767568  11.018555126256247   2.814919179913714 1
ion Ag   3.833401240095512   3.826883059295839   0.559236782743137 1
ion Ag   3.832142496783943   8.281891111665029  22.558015259623840 1

# Forces in Cartesian coordinates:
force Ag  -0.000019906872069  -0.000464021467024  -0.002543068161492 1
force Ag  -0.000031057272610   0.000829833741598   0.001334045108135 1
force Ag  -0.000049410944529   0.000013720036879   0.000511589209863 1
force Ag  -0.000057610912787   0.000312425035798   0.000024200837459 1
force Ag  -0.000059125977619   0.000244766919723   0.000073971049981 1
force Ag  -0.000058621152041   0.000220382341322   0.000847079445843 1
force Ag  -0.000040357398627  -0.000142048227021  -0.000546483648281 1
force Ag  -0.000030593413960   0.001178178037624   0.000753952066022 1
force Ag  -0.000017031249040  -0.000088855967608   0.001327685685570 1
force Ag  -0.000010240443932   0.000735504500152   0.002377533966505 1
force Ag   0.000032690408966  -0.001206490000822  -0.000735474113531 1
force Ag   0.000040212528753   0.000139056506353   0.000509133759763 1
force Ag   0.000057113645747  -0.000252075701034  -0.000845907607341 1
force Ag   0.000057607479482  -0.000234528378686  -0.000057617252059 1
force Ag   0.000058449308797  -0.000265822100656   0.000014993663269 1
force Ag   0.000048584022602  -0.000031962097692  -0.000510759275402 1
force Ag   0.000031067480043  -0.000859300388887  -0.001373290362279 1
force Ag   0.000020736264511   0.000415485840339   0.002552949620003 1
force Ag   0.000009628000252  -0.000795172521115  -0.002358007776292 1
force Ag   0.000015618928078   0.000080380942119  -0.001352539879676 1

# Energy components:
   A_diel =        0.1190326133688595
   Eewald =    23848.3002032219628745
       EH =    26442.4342520937389054
     Eloc =   -53706.8839949465327663
      Enl =       79.0867566276523917
     EvdW =       -0.2948756563121788
      Exc =     -289.5394347041278706
 Exc_core =        4.1634157297918373
       KE =      670.5693112736021249
  MuShift =        0.0732725594880799
-------------------------------------
     Etot =    -2951.9720611873713096
       TS =        0.0004184620884576
-------------------------------------
        F =    -2951.9724796494597285
      muN =      -92.6836175223439653
-------------------------------------
        G =    -2859.2888621271158627


Dumping 'jdft.fillings' ... done
Dumping 'jdft.wfns' ... done
Dumping 'jdft.fluidState' ... done
Dumping 'jdft.ionpos' ... done
Dumping 'jdft.lattice' ... done
Dumping 'jdft.eigenvals' ... done
Dumping 'jdft.eigStats' ... 
	eMin: -3.629194 at state 0 ( [ +0.000000 +0.000000 +0.000000 ] spin 1 )
	HOMO: -0.245133 at state 26 ( [ +0.111111 +0.000000 +0.000000 ] spin -1 )
	mu  : -0.244750
	LUMO: -0.244751 at state 27 ( [ +0.111111 +0.200000 +0.000000 ] spin -1 )
	eMax: +0.130723 at state 8 ( [ +0.222222 +0.000000 +0.000000 ] spin 1 )
	HOMO-LUMO gap: +0.000382
	Optical gap  : +0.002039 at state 26 ( [ +0.111111 +0.000000 +0.000000 ] spin -1 )
Dumping 'jdft.Ecomponents' ... done
IonicMinimize: Iter:   0  G: -2859.288862127115863  |grad|_K:  8.307e-04  t[s]:    462.78

#--- Lowdin population analysis ---
# oxidation-state Ag +0.121 -0.033 +0.004 -0.001 +0.005 +0.004 -0.020 -0.022 +0.227 +0.434 -0.022 -0.020 +0.004 +0.005 -0.001 +0.004 -0.033 +0.121 +0.434 +0.227
# magnetic-moments Ag -0.000 +0.000 +0.000 +0.000 +0.000 -0.000 -0.000 -0.000 +0.000 +0.000 +0.000 -0.000 -0.000 +0.000 +0.000 +0.000 +0.000 -0.000 +0.000 +0.000


Computing DFT-D3 correction:
# coordination-number Ag 6.814 8.940 8.911 8.991 8.998 8.924 8.964 8.187 6.109 4.766 8.185 8.962 8.924 8.998 8.992 8.912 8.942 6.815 4.766 6.107
# diagonal-C6 Ag 268.61 268.61 268.61 268.61 268.61 268.61 268.61 268.61 268.61 268.61 268.61 268.61 268.61 268.61 268.61 268.61 268.61 268.61 268.61 268.61
EvdW_6 =   -0.124078
EvdW_8 =   -0.170796
Shifting auxilliary hamiltonian by 0.000042 to set nElectrons=378.686895

-------- Electronic minimization -----------
	Linear fluid (dielectric constant: 78.4, screening length: 8.12261 Bohr) occupying 0.567188 of unit cell:	Completed after 11 iterations at t[s]:    504.79
	FillingsUpdate:  mu: -0.244750000  nElectrons: 378.686895  magneticMoment: [ Abs: 0.00000  Tot: +0.00000 ]
ElecMinimize: Iter:   0  G: -2859.288902440981474  |grad|_K:  1.624e-07  alpha:  1.000e+00
	Linear fluid (dielectric constant: 78.4, screening length: 8.12261 Bohr) occupying 0.567183 of unit cell:	Completed after 15 iterations at t[s]:    590.87
	Linear fluid (dielectric constant: 78.4, screening length: 8.12261 Bohr) occupying 0.567187 of unit cell:	Completed after 15 iterations at t[s]:    620.20
	FillingsUpdate:  mu: -0.244750000  nElectrons: 378.685911  magneticMoment: [ Abs: 0.00000  Tot: +0.00000 ]
	SubspaceRotationAdjust: set factor to 0.312
ElecMinimize: Iter:   1  G: -2859.288902790679458  |grad|_K:  8.666e-08  alpha:  4.296e-02  linmin: -5.723e-05  t[s]:    663.12
	Linear fluid (dielectric constant: 78.4, screening length: 8.12261 Bohr) occupying 0.567187 of unit cell:	Completed after 2 iterations at t[s]:    698.62
ElecMinimize: 	Predicted alpha/alphaT>3.000000, increasing alphaT to 1.288721e-01.
	Linear fluid (dielectric constant: 78.4, screening length: 8.12261 Bohr) occupying 0.567188 of unit cell:	Completed after 2 iterations at t[s]:    725.63
	Linear fluid (dielectric constant: 78.4, screening length: 8.12261 Bohr) occupying 0.567188 of unit cell:	Completed after 7 iterations at t[s]:    753.46
	FillingsUpdate:  mu: -0.244750000  nElectrons: 378.686714  magneticMoment: [ Abs: 0.00000  Tot: +0.00000 ]
	SubspaceRotationAdjust: set factor to 0.34
ElecMinimize: Iter:   2  G: -2859.288903402814412  |grad|_K:  4.770e-08  alpha:  2.790e-01  linmin:  1.004e-03  t[s]:    798.32
	Linear fluid (dielectric constant: 78.4, screening length: 8.12261 Bohr) occupying 0.567188 of unit cell:	Completed after 3 iterations at t[s]:    836.93
	Linear fluid (dielectric constant: 78.4, screening length: 8.12261 Bohr) occupying 0.567188 of unit cell:	Completed after 0 iterations at t[s]:    866.09
	FillingsUpdate:  mu: -0.244750000  nElectrons: 378.686939  magneticMoment: [ Abs: 0.00000  Tot: +0.00000 ]
	SubspaceRotationAdjust: set factor to 0.305
ElecMinimize: Iter:   3  G: -2859.288903616715743  |grad|_K:  3.462e-08  alpha:  3.201e-01  linmin: -2.379e-03  t[s]:    912.86
	Linear fluid (dielectric constant: 78.4, screening length: 8.12261 Bohr) occupying 0.567187 of unit cell:	Completed after 9 iterations at t[s]:    952.99
	Linear fluid (dielectric constant: 78.4, screening length: 8.12261 Bohr) occupying 0.567188 of unit cell:	Completed after 7 iterations at t[s]:    983.57
	FillingsUpdate:  mu: -0.244750000  nElectrons: 378.686388  magneticMoment: [ Abs: 0.00000  Tot: +0.00000 ]
	SubspaceRotationAdjust: set factor to 0.221
ElecMinimize: Iter:   4  G: -2859.288903698060949  |grad|_K:  3.640e-08  alpha:  1.771e-01  linmin:  1.042e-03  t[s]:   1030.62
	Linear fluid (dielectric constant: 78.4, screening length: 8.12261 Bohr) occupying 0.567187 of unit cell:	Completed after 2 iterations at t[s]:   1069.55
	Linear fluid (dielectric constant: 78.4, screening length: 8.12261 Bohr) occupying 0.567187 of unit cell:	Completed after 3 iterations at t[s]:   1099.43
	FillingsUpdate:  mu: -0.244750000  nElectrons: 378.686484  magneticMoment: [ Abs: 0.00000  Tot: +0.00000 ]
	SubspaceRotationAdjust: set factor to 0.257
ElecMinimize: Iter:   5  G: -2859.288903784932700  |grad|_K:  2.016e-08  alpha:  2.381e-01  linmin:  1.128e-03  t[s]:   1146.50
ElecMinimize: Converged (|Delta G|<1.000000e-07 for 2 iters).
Setting wave functions to eigenvectors of Hamiltonian
Converging empty states (this may take a while): |deigs|: 9.811e-09

Computing DFT-D3 correction:
# coordination-number Ag 6.814 8.940 8.911 8.991 8.998 8.924 8.964 8.187 6.109 4.766 8.185 8.962 8.924 8.998 8.992 8.912 8.942 6.815 4.766 6.107
# diagonal-C6 Ag 268.61 268.61 268.61 268.61 268.61 268.61 268.61 268.61 268.61 268.61 268.61 268.61 268.61 268.61 268.61 268.61 268.61 268.61 268.61 268.61
EvdW_6 =   -0.124078
EvdW_8 =   -0.170796
IonicMinimize: 	Wolfe criterion not satisfied: alpha: 1  (E-E0)/|gdotd0|: -1.00617  gdotd/gdotd0: 0.945846 (taking cubic step)

Computing DFT-D3 correction:
# coordination-number Ag 6.820 8.942 8.914 8.990 8.998 8.924 8.967 8.191 6.112 4.759 8.189 8.964 8.924 8.998 8.991 8.914 8.944 6.821 4.759 6.110
# diagonal-C6 Ag 268.61 268.61 268.61 268.61 268.61 268.61 268.61 268.61 268.61 268.61 268.61 268.61 268.61 268.61 268.61 268.61 268.61 268.61 268.61 268.61
EvdW_6 =   -0.124081
EvdW_8 =   -0.170790
Shifting auxilliary hamiltonian by 0.000004 to set nElectrons=378.686484

-------- Electronic minimization -----------
	Linear fluid (dielectric constant: 78.4, screening length: 8.12261 Bohr) occupying 0.567163 of unit cell:	Completed after 8 iterations at t[s]:   1303.65
	FillingsUpdate:  mu: -0.244750000  nElectrons: 378.686484  magneticMoment: [ Abs: 0.00000  Tot: -0.00000 ]
ElecMinimize: Iter:   0  G: -2859.288965455712059  |grad|_K:  1.439e-07  alpha:  1.000e+00
	Linear fluid (dielectric constant: 78.4, screening length: 8.12261 Bohr) occupying 0.567162 of unit cell:	Completed after 13 iterations at t[s]:   1397.43
	Linear fluid (dielectric constant: 78.4, screening length: 8.12261 Bohr) occupying 0.567163 of unit cell:	Completed after 13 iterations at t[s]:   1429.09
	FillingsUpdate:  mu: -0.244750000  nElectrons: 378.687672  magneticMoment: [ Abs: 0.00000  Tot: +0.00000 ]
	SubspaceRotationAdjust: set factor to 0.186
ElecMinimize: Iter:   1  G: -2859.288966484368757  |grad|_K:  1.330e-07  alpha:  1.545e-01  linmin: -9.612e-04  t[s]:   1476.18
	Linear fluid (dielectric constant: 78.4, screening length: 8.12261 Bohr) occupying 0.567162 of unit cell:	Completed after 9 iterations at t[s]:   1516.38
	Linear fluid (dielectric constant: 78.4, screening length: 8.12261 Bohr) occupying 0.567162 of unit cell:	Completed after 7 iterations at t[s]:   1546.99
	FillingsUpdate:  mu: -0.244750000  nElectrons: 378.686066  magneticMoment: [ Abs: 0.00000  Tot: +0.00000 ]
	SubspaceRotationAdjust: set factor to 0.127
ElecMinimize: Iter:   2  G: -2859.288967594392943  |grad|_K:  6.212e-08  alpha:  2.017e-01  linmin:  1.318e-04  t[s]:   1593.91
	Linear fluid (dielectric constant: 78.4, screening length: 8.12261 Bohr) occupying 0.567162 of unit cell:	Completed after 2 iterations at t[s]:   1632.73
	Linear fluid (dielectric constant: 78.4, screening length: 8.12261 Bohr) occupying 0.567162 of unit cell:	Completed after 2 iterations at t[s]:   1662.19
	FillingsUpdate:  mu: -0.244750000  nElectrons: 378.686150  magneticMoment: [ Abs: 0.00000  Tot: +0.00000 ]
	SubspaceRotationAdjust: set factor to 0.149
ElecMinimize: Iter:   3  G: -2859.288968024871338  |grad|_K:  4.460e-08  alpha:  3.683e-01  linmin: -1.234e-04  t[s]:   1709.16
	Linear fluid (dielectric constant: 78.4, screening length: 8.12261 Bohr) occupying 0.567162 of unit cell:	Completed after 2 iterations at t[s]:   1747.92
	Linear fluid (dielectric constant: 78.4, screening length: 8.12261 Bohr) occupying 0.567162 of unit cell:	Completed after 0 iterations at t[s]:   1776.92
	FillingsUpdate:  mu: -0.244750000  nElectrons: 378.686068  magneticMoment: [ Abs: 0.00000  Tot: +0.00000 ]
	SubspaceRotationAdjust: set factor to 0.191
ElecMinimize: Iter:   4  G: -2859.288968290849425  |grad|_K:  3.046e-08  alpha:  4.335e-01  linmin: -2.291e-03  t[s]:   1824.11
	Linear fluid (dielectric constant: 78.4, screening length: 8.12261 Bohr) occupying 0.567163 of unit cell:	Completed after 3 iterations at t[s]:   1863.20
	Linear fluid (dielectric constant: 78.4, screening length: 8.12261 Bohr) occupying 0.567163 of unit cell:	Completed after 0 iterations at t[s]:   1892.17
	FillingsUpdate:  mu: -0.244750000  nElectrons: 378.685639  magneticMoment: [ Abs: 0.00000  Tot: +0.00000 ]
	SubspaceRotationAdjust: set factor to 0.217
ElecMinimize: Iter:   5  G: -2859.288968457985447  |grad|_K:  2.779e-08  alpha:  5.577e-01  linmin: -1.355e-03  t[s]:   1939.33
	Linear fluid (dielectric constant: 78.4, screening length: 8.12261 Bohr) occupying 0.567164 of unit cell:	Completed after 2 iterations at t[s]:   1978.16
	Linear fluid (dielectric constant: 78.4, screening length: 8.12261 Bohr) occupying 0.567164 of unit cell:	Completed after 0 iterations at t[s]:   2007.11
	FillingsUpdate:  mu: -0.244750000  nElectrons: 378.685935  magneticMoment: [ Abs: 0.00000  Tot: +0.00000 ]
	SubspaceRotationAdjust: set factor to 0.222
ElecMinimize: Iter:   6  G: -2859.288968592116817  |grad|_K:  2.865e-08  alpha:  5.458e-01  linmin:  7.170e-04  t[s]:   2054.26
	Linear fluid (dielectric constant: 78.4, screening length: 8.12261 Bohr) occupying 0.567166 of unit cell:	Completed after 2 iterations at t[s]:   2093.10
	Linear fluid (dielectric constant: 78.4, screening length: 8.12261 Bohr) occupying 0.567166 of unit cell:	Completed after 0 iterations at t[s]:   2122.02
	FillingsUpdate:  mu: -0.244750000  nElectrons: 378.685700  magneticMoment: [ Abs: 0.00000  Tot: +0.00000 ]
	SubspaceRotationAdjust: set factor to 0.249
ElecMinimize: Iter:   7  G: -2859.288968688964360  |grad|_K:  2.599e-08  alpha:  4.062e-01  linmin:  5.087e-04  t[s]:   2169.27
	Linear fluid (dielectric constant: 78.4, screening length: 8.12261 Bohr) occupying 0.567167 of unit cell:	Completed after 2 iterations at t[s]:   2208.11
	Linear fluid (dielectric constant: 78.4, screening length: 8.12261 Bohr) occupying 0.567167 of unit cell:	Completed after 0 iterations at t[s]:   2237.06
	FillingsUpdate:  mu: -0.244750000  nElectrons: 378.685519  magneticMoment: [ Abs: 0.00000  Tot: +0.00000 ]
	SubspaceRotationAdjust: set factor to 0.254
ElecMinimize: Iter:   8  G: -2859.288968749434844  |grad|_K:  1.937e-08  alpha:  3.121e-01  linmin:  7.436e-05  t[s]:   2284.21
ElecMinimize: Converged (|Delta G|<1.000000e-07 for 2 iters).
Setting wave functions to eigenvectors of Hamiltonian
Converging empty states (this may take a while): |deigs|: 1.449e-08

Computing DFT-D3 correction:
# coordination-number Ag 6.820 8.942 8.914 8.990 8.998 8.924 8.967 8.191 6.112 4.759 8.189 8.964 8.924 8.998 8.991 8.914 8.944 6.821 4.759 6.110
# diagonal-C6 Ag 268.61 268.61 268.61 268.61 268.61 268.61 268.61 268.61 268.61 268.61 268.61 268.61 268.61 268.61 268.61 268.61 268.61 268.61 268.61 268.61
EvdW_6 =   -0.124081
EvdW_8 =   -0.170790
IonicMinimize: 	Wolfe criterion not satisfied: alpha: 2.63278  (E-E0)/|gdotd0|: -2.57526  gdotd/gdotd0: 0.970684 (taking cubic step)

Computing DFT-D3 correction:
# coordination-number Ag 6.831 8.946 8.918 8.988 8.997 8.923 8.971 8.198 6.118 4.745 8.196 8.968 8.923 8.997 8.988 8.918 8.948 6.833 4.744 6.116
# diagonal-C6 Ag 268.61 268.61 268.61 268.61 268.61 268.61 268.61 268.61 268.61 268.61 268.61 268.61 268.61 268.61 268.61 268.61 268.61 268.61 268.61 268.61
EvdW_6 =   -0.124086
EvdW_8 =   -0.170779
Shifting auxilliary hamiltonian by 0.000032 to set nElectrons=378.685519

-------- Electronic minimization -----------
	Linear fluid (dielectric constant: 78.4, screening length: 8.12261 Bohr) occupying 0.567120 of unit cell:	Completed after 9 iterations at t[s]:   2441.85
	FillingsUpdate:  mu: -0.244750000  nElectrons: 378.685519  magneticMoment: [ Abs: 0.00000  Tot: -0.00000 ]
ElecMinimize: Iter:   0  G: -2859.289074110504771  |grad|_K:  2.452e-07  alpha:  1.000e+00
	Linear fluid (dielectric constant: 78.4, screening length: 8.12261 Bohr) occupying 0.567117 of unit cell:	Completed after 14 iterations at t[s]:   2535.82
	Linear fluid (dielectric constant: 78.4, screening length: 8.12261 Bohr) occupying 0.567119 of unit cell:	Completed after 14 iterations at t[s]:   2567.82
	FillingsUpdate:  mu: -0.244750000  nElectrons: 378.683035  magneticMoment: [ Abs: 0.00000  Tot: -0.00000 ]
	SubspaceRotationAdjust: set factor to 0.159
ElecMinimize: Iter:   1  G: -2859.289079070126263  |grad|_K:  2.774e-07  alpha:  2.678e-01  linmin: -2.000e-04  t[s]:   2614.75
	Linear fluid (dielectric constant: 78.4, screening length: 8.12261 Bohr) occupying 0.567121 of unit cell:	Completed after 13 iterations at t[s]:   2655.75
	Linear fluid (dielectric constant: 78.4, screening length: 8.12261 Bohr) occupying 0.567120 of unit cell:	Completed after 12 iterations at t[s]:   2687.17
	FillingsUpdate:  mu: -0.244750000  nElectrons: 378.685309  magneticMoment: [ Abs: 0.00000  Tot: -0.00000 ]
	SubspaceRotationAdjust: set factor to 0.103
ElecMinimize: Iter:   2  G: -2859.289081930358407  |grad|_K:  1.132e-07  alpha:  1.215e-01  linmin: -1.791e-05  t[s]:   2734.29
	Linear fluid (dielectric constant: 78.4, screening length: 8.12261 Bohr) occupying 0.567120 of unit cell:	Completed after 2 iterations at t[s]:   2773.19
ElecMinimize: 	Predicted alpha/alphaT>3.000000, increasing alphaT to 3.645471e-01.
	Linear fluid (dielectric constant: 78.4, screening length: 8.12261 Bohr) occupying 0.567119 of unit cell:	Completed after 2 iterations at t[s]:   2802.84
	Linear fluid (dielectric constant: 78.4, screening length: 8.12261 Bohr) occupying 0.567119 of unit cell:	Completed after 2 iterations at t[s]:   2832.46
	FillingsUpdate:  mu: -0.244750000  nElectrons: 378.685184  magneticMoment: [ Abs: 0.00000  Tot: -0.00000 ]
	SubspaceRotationAdjust: set factor to 0.138
ElecMinimize: Iter:   3  G: -2859.289083566401587  |grad|_K:  8.802e-08  alpha:  4.195e-01  linmin: -1.569e-04  t[s]:   2879.60
	Linear fluid (dielectric constant: 78.4, screening length: 8.12261 Bohr) occupying 0.567117 of unit cell:	Completed after 10 iterations at t[s]:   2920.06
	Linear fluid (dielectric constant: 78.4, screening length: 8.12261 Bohr) occupying 0.567118 of unit cell:	Completed after 2 iterations at t[s]:   2949.74
	FillingsUpdate:  mu: -0.244750000  nElectrons: 378.684291  magneticMoment: [ Abs: 0.00000  Tot: -0.00000 ]
	SubspaceRotationAdjust: set factor to 0.12
ElecMinimize: Iter:   4  G: -2859.289084401867058  |grad|_K:  7.619e-08  alpha:  3.532e-01  linmin:  7.600e-04  t[s]:   2996.81
	Linear fluid (dielectric constant: 78.4, screening length: 8.12261 Bohr) occupying 0.567118 of unit cell:	Completed after 10 iterations at t[s]:   3037.16
	Linear fluid (dielectric constant: 78.4, screening length: 8.12261 Bohr) occupying 0.567118 of unit cell:	Completed after 6 iterations at t[s]:   3067.67
	FillingsUpdate:  mu: -0.244750000  nElectrons: 378.684957  magneticMoment: [ Abs: 0.00000  Tot: -0.00000 ]
	SubspaceRotationAdjust: set factor to 0.0947
ElecMinimize: Iter:   5  G: -2859.289084829750664  |grad|_K:  6.551e-08  alpha:  2.522e-01  linmin: -1.281e-04  t[s]:   3114.80
	Linear fluid (dielectric constant: 78.4, screening length: 8.12261 Bohr) occupying 0.567118 of unit cell:	Completed after 7 iterations at t[s]:   3154.57
	Linear fluid (dielectric constant: 78.4, screening length: 8.12261 Bohr) occupying 0.567117 of unit cell:	Completed after 2 iterations at t[s]:   3184.37
	FillingsUpdate:  mu: -0.244750000  nElectrons: 378.684452  magneticMoment: [ Abs: 0.00000  Tot: -0.00000 ]
	SubspaceRotationAdjust: set factor to 0.131
ElecMinimize: Iter:   6  G: -2859.289085362925107  |grad|_K:  4.980e-08  alpha:  3.995e-01  linmin: -9.649e-04  t[s]:   3231.53
	Linear fluid (dielectric constant: 78.4, screening length: 8.12261 Bohr) occupying 0.567118 of unit cell:	Completed after 9 iterations at t[s]:   3271.76
	Linear fluid (dielectric constant: 78.4, screening length: 8.12261 Bohr) occupying 0.567118 of unit cell:	Completed after 0 iterations at t[s]:   3300.97
	FillingsUpdate:  mu: -0.244750000  nElectrons: 378.683858  magneticMoment: [ Abs: 0.00000  Tot: -0.00000 ]
	SubspaceRotationAdjust: set factor to 0.102
ElecMinimize: Iter:   7  G: -2859.289085680840344  |grad|_K:  5.679e-08  alpha:  4.051e-01  linmin: -1.325e-03  t[s]:   3347.93
	Linear fluid (dielectric constant: 78.4, screening length: 8.12261 Bohr) occupying 0.567120 of unit cell:	Completed after 10 iterations at t[s]:   3388.48
	Linear fluid (dielectric constant: 78.4, screening length: 8.12261 Bohr) occupying 0.567120 of unit cell:	Completed after 7 iterations at t[s]:   3419.18
	FillingsUpdate:  mu: -0.244750000  nElectrons: 378.684362  magneticMoment: [ Abs: 0.00000  Tot: -0.00000 ]
	SubspaceRotationAdjust: set factor to 0.0818
ElecMinimize: Iter:   8  G: -2859.289085957657790  |grad|_K:  4.715e-08  alpha:  2.681e-01  linmin:  1.444e-04  t[s]:   3466.41
	Linear fluid (dielectric constant: 78.4, screening length: 8.12261 Bohr) occupying 0.567121 of unit cell:	Completed after 2 iterations at t[s]:   3505.29
	Linear fluid (dielectric constant: 78.4, screening length: 8.12261 Bohr) occupying 0.567122 of unit cell:	Completed after 2 iterations at t[s]:   3534.98
	FillingsUpdate:  mu: -0.244750000  nElectrons: 378.684353  magneticMoment: [ Abs: 0.00000  Tot: -0.00000 ]
	SubspaceRotationAdjust: set factor to 0.106
ElecMinimize: Iter:   9  G: -2859.289086222524929  |grad|_K:  4.008e-08  alpha:  3.952e-01  linmin: -2.149e-04  t[s]:   3582.15
	Linear fluid (dielectric constant: 78.4, screening length: 8.12261 Bohr) occupying 0.567124 of unit cell:	Completed after 7 iterations at t[s]:   3621.92
	Linear fluid (dielectric constant: 78.4, screening length: 8.12261 Bohr) occupying 0.567124 of unit cell:	Completed after 0 iterations at t[s]:   3650.95
	FillingsUpdate:  mu: -0.244750000  nElectrons: 378.683817  magneticMoment: [ Abs: 0.00000  Tot: -0.00000 ]
	SubspaceRotationAdjust: set factor to 0.0868
ElecMinimize: Iter:  10  G: -2859.289086427048005  |grad|_K:  3.256e-08  alpha:  4.138e-01  linmin:  1.014e-04  t[s]:   3698.14
	Linear fluid (dielectric constant: 78.4, screening length: 8.12261 Bohr) occupying 0.567126 of unit cell:	Completed after 3 iterations at t[s]:   3737.31
	Linear fluid (dielectric constant: 78.4, screening length: 8.12261 Bohr) occupying 0.567126 of unit cell:	Completed after 0 iterations at t[s]:   3766.57
	FillingsUpdate:  mu: -0.244750000  nElectrons: 378.683962  magneticMoment: [ Abs: 0.00000  Tot: -0.00000 ]
	SubspaceRotationAdjust: set factor to 0.0946
ElecMinimize: Iter:  11  G: -2859.289086536352443  |grad|_K:  2.624e-08  alpha:  3.426e-01  linmin:  4.743e-04  t[s]:   3813.63
	Linear fluid (dielectric constant: 78.4, screening length: 8.12261 Bohr) occupying 0.567127 of unit cell:	Completed after 2 iterations at t[s]:   3852.30
	Linear fluid (dielectric constant: 78.4, screening length: 8.12261 Bohr) occupying 0.567127 of unit cell:	Completed after 2 iterations at t[s]:   3881.99
	FillingsUpdate:  mu: -0.244750000  nElectrons: 378.684082  magneticMoment: [ Abs: 0.00000  Tot: -0.00000 ]
	SubspaceRotationAdjust: set factor to 0.0919
ElecMinimize: Iter:  12  G: -2859.289086583311928  |grad|_K:  1.713e-08  alpha:  2.639e-01  linmin: -1.949e-03  t[s]:   3928.91
	Linear fluid (dielectric constant: 78.4, screening length: 8.12261 Bohr) occupying 0.567128 of unit cell:	Completed after 2 iterations at t[s]:   3967.77
	Linear fluid (dielectric constant: 78.4, screening length: 8.12261 Bohr) occupying 0.567128 of unit cell:	Completed after 0 iterations at t[s]:   3996.86
	FillingsUpdate:  mu: -0.244750000  nElectrons: 378.683917  magneticMoment: [ Abs: 0.00000  Tot: -0.00000 ]
	SubspaceRotationAdjust: set factor to 0.12
ElecMinimize: Iter:  13  G: -2859.289086615657652  |grad|_K:  1.426e-08  alpha:  3.313e-01  linmin: -2.415e-03  t[s]:   4043.96
ElecMinimize: Converged (|Delta G|<1.000000e-07 for 2 iters).
Setting wave functions to eigenvectors of Hamiltonian
Converging empty states (this may take a while): |deigs|: 4.254e-08

Computing DFT-D3 correction:
# coordination-number Ag 6.831 8.946 8.918 8.988 8.997 8.923 8.971 8.198 6.118 4.745 8.196 8.968 8.923 8.997 8.988 8.918 8.948 6.833 4.744 6.116
# diagonal-C6 Ag 268.61 268.61 268.61 268.61 268.61 268.61 268.61 268.61 268.61 268.61 268.61 268.61 268.61 268.61 268.61 268.61 268.61 268.61 268.61 268.61
EvdW_6 =   -0.124086
EvdW_8 =   -0.170779

# Ionic positions in cartesian coordinates:
ion Ag  -0.000361736396681   4.732723813669860  21.410835733384129 1
ion Ag  -0.000204254494798   9.601446022902289  18.897882394909221 1
ion Ag   0.000015353010499   2.353228476792105  16.429783606631940 1
ion Ag   0.000163975731411   7.261427074849347  13.981449310314810 1
ion Ag   0.000217096413171  12.124365525594675  11.496131657413718 1
ion Ag   0.000371853296922   4.890530771668417   9.055891442129983 1
ion Ag   0.000362210997953   9.793622606157323   6.590281831460884 1
ion Ag   0.000476044801124   2.467411120730408   4.047394197071920 1
ion Ag   0.000581293820196   7.469934032476806   1.692449482273861 1
ion Ag  -0.000741717726979  -0.191563699422268  23.695727731395451 1
ion Ag   3.832271867939836   1.167541963424435  20.193441765781230 1
ion Ag   3.832512302399017   5.966805441423553  17.651081626958039 1
ion Ag   3.832519526126040  10.868996481815932  15.184549902049527 1
ion Ag   3.832690015199480   3.632317948982350  12.744397317479667 1
ion Ag   3.832734688591482   8.496228865779898  10.258889619450178 1
ion Ag   3.832866677252828   1.286790576280931   7.810943579131155 1
ion Ag   3.833041173632895   6.157361196927718   5.343081006424691 1
ion Ag   3.833127652023458  11.021056096396437   2.829976153326789 1
ion Ag   3.833458692100791   3.822243162294467   0.545327290123059 1
ion Ag   3.832235285281349   8.282415521255306  22.550036352289787 1

# Forces in Cartesian coordinates:
force Ag  -0.000008097835309  -0.000491213512669  -0.002219619939004 1
force Ag  -0.000012137941243   0.000710255350558   0.000887851618874 1
force Ag  -0.000019609765613  -0.000059932021853   0.000156680012425 1
force Ag  -0.000023164691861   0.000231520168534   0.000162744765664 1
force Ag  -0.000024229705551   0.000157880107947  -0.000041477621933 1
force Ag  -0.000024402675028   0.000184779189241   0.000613602795841 1
force Ag  -0.000016544504325  -0.000188480774401  -0.000127918555262 1
force Ag  -0.000013033999737   0.000996141905927   0.000591004127751 1
force Ag  -0.000008111145786  -0.000129003485329   0.001188984330396 1
force Ag  -0.000004890426132   0.000664222431201   0.001883251770382 1
force Ag   0.000015169224004  -0.001036284118176  -0.000579193128313 1
force Ag   0.000016416831504   0.000179049456498   0.000105047676912 1
force Ag   0.000023180813998  -0.000206247370923  -0.000609823584648 1
force Ag   0.000023195817120  -0.000150786868895   0.000053974929989 1
force Ag   0.000023053313063  -0.000197880195541  -0.000139441440940 1
force Ag   0.000019143017192   0.000043483988546  -0.000156112226492 1
force Ag   0.000012389630886  -0.000746717675158  -0.000913279242598 1
force Ag   0.000009276583102   0.000451503461215   0.002217276261709 1
force Ag   0.000004682515334  -0.000717399689033  -0.001866049124844 1
force Ag   0.000006672740756   0.000116147562322  -0.001210812579101 1

# Energy components:
   A_diel =        0.1189704700008299
   Eewald =    23850.2513446984703478
       EH =    26444.3365032567089656
     Eloc =   -53710.7373640423174948
      Enl =       79.0876132516316375
     EvdW =       -0.2948653442310569
      Exc =     -289.5392468398803203
 Exc_core =        4.1634160645690681
       KE =      670.5686305368561761
  MuShift =        0.0734387449024580
-------------------------------------
     Etot =    -2951.9715592032857785
       TS =        0.0004160250039476
-------------------------------------
        F =    -2951.9719752282899208
      muN =      -92.6828886126321123
-------------------------------------
        G =    -2859.2890866156576521


Dumping 'jdft.fillings' ... done
Dumping 'jdft.wfns' ... done
Dumping 'jdft.fluidState' ... done
Dumping 'jdft.ionpos' ... done
Dumping 'jdft.lattice' ... done
Dumping 'jdft.eigenvals' ... done
Dumping 'jdft.eigStats' ... 
	eMin: -3.629084 at state 23 ( [ +0.000000 +0.000000 +0.000000 ] spin -1 )
	HOMO: -0.245068 at state 3 ( [ +0.111111 +0.000000 +0.000000 ] spin 1 )
	mu  : -0.244750
	LUMO: -0.244681 at state 4 ( [ +0.111111 +0.200000 +0.000000 ] spin 1 )
	eMax: +0.130974 at state 8 ( [ +0.222222 +0.000000 +0.000000 ] spin 1 )
	HOMO-LUMO gap: +0.000387
	Optical gap  : +0.002005 at state 3 ( [ +0.111111 +0.000000 +0.000000 ] spin 1 )
Dumping 'jdft.Ecomponents' ... done
IonicMinimize: Iter:   1  G: -2859.289086615657652  |grad|_K:  6.805e-04  alpha:  5.898e+00  linmin: -9.884e-01  t[s]:   4157.98

#--- Lowdin population analysis ---
# oxidation-state Ag +0.120 -0.033 +0.004 -0.001 +0.005 +0.004 -0.020 -0.023 +0.226 +0.437 -0.022 -0.020 +0.004 +0.005 -0.001 +0.004 -0.033 +0.120 +0.437 +0.226
# magnetic-moments Ag -0.000 -0.000 -0.000 -0.000 -0.000 +0.000 +0.000 +0.000 +0.000 -0.000 +0.000 -0.000 +0.000 -0.000 -0.000 -0.000 -0.000 +0.000 -0.000 +0.000


Computing DFT-D3 correction:
# coordination-number Ag 6.905 9.004 8.983 8.992 9.023 8.951 9.029 8.251 6.143 4.602 8.248 9.028 8.953 9.022 8.992 8.984 9.003 6.908 4.603 6.144
# diagonal-C6 Ag 268.61 268.61 268.61 268.61 268.61 268.61 268.61 268.61 268.61 268.61 268.61 268.61 268.61 268.61 268.61 268.61 268.61 268.61 268.61 268.61
EvdW_6 =   -0.124300
EvdW_8 =   -0.170987
Shifting auxilliary hamiltonian by -0.000034 to set nElectrons=378.683917

-------- Electronic minimization -----------
	Linear fluid (dielectric constant: 78.4, screening length: 8.12261 Bohr) occupying 0.567036 of unit cell:	Completed after 22 iterations at t[s]:   4201.13
	FillingsUpdate:  mu: -0.244750000  nElectrons: 378.683917  magneticMoment: [ Abs: 0.00000  Tot: +0.00000 ]
ElecMinimize: Iter:   0  G: -2857.582478987173999  |grad|_K:  1.381e-04  alpha:  1.000e+00
	Linear fluid (dielectric constant: 78.4, screening length: 8.12261 Bohr) occupying 0.607709 of unit cell:	Completed after 43 iterations at t[s]:   4300.82
	Linear fluid (dielectric constant: 78.4, screening length: 8.12261 Bohr) occupying 0.567075 of unit cell:	Completed after 30 iterations at t[s]:   4335.88
	FillingsUpdate:  mu: -0.244750000  nElectrons: 379.471686  magneticMoment: [ Abs: 0.00000  Tot: +0.00000 ]
	SubspaceRotationAdjust: set factor to 0.0852
ElecMinimize: Iter:   1  G: -2858.943696202640240  |grad|_K:  7.826e-05  alpha:  2.517e-01  linmin:  1.236e-02  t[s]:   4382.92
	Linear fluid (dielectric constant: 78.4, screening length: 8.12261 Bohr) occupying 0.566446 of unit cell:	Completed after 23 iterations at t[s]:   4425.83
	Linear fluid (dielectric constant: 78.4, screening length: 8.12261 Bohr) occupying 0.566767 of unit cell:	Completed after 20 iterations at t[s]:   4458.92
	FillingsUpdate:  mu: -0.244750000  nElectrons: 378.629537  magneticMoment: [ Abs: 0.00000  Tot: -0.00000 ]
	SubspaceRotationAdjust: set factor to 0.0528
ElecMinimize: Iter:   2  G: -2859.176476985572663  |grad|_K:  2.858e-05  alpha:  1.575e-01  linmin:  1.809e-03  t[s]:   4506.14
	Linear fluid (dielectric constant: 78.4, screening length: 8.12261 Bohr) occupying 0.566719 of unit cell:	Completed after 17 iterations at t[s]:   4547.97
	Linear fluid (dielectric constant: 78.4, screening length: 8.12261 Bohr) occupying 0.566697 of unit cell:	Completed after 15 iterations at t[s]:   4580.29
	FillingsUpdate:  mu: -0.244750000  nElectrons: 378.624716  magneticMoment: [ Abs: 0.00000  Tot: -0.00000 ]
	SubspaceRotationAdjust: set factor to 0.0768
ElecMinimize: Iter:   3  G: -2859.231641586894511  |grad|_K:  1.112e-05  alpha:  2.292e-01  linmin:  7.339e-05  t[s]:   4627.53
	Linear fluid (dielectric constant: 78.4, screening length: 8.12261 Bohr) occupying 0.566733 of unit cell:	Completed after 17 iterations at t[s]:   4669.39
	Linear fluid (dielectric constant: 78.4, screening length: 8.12261 Bohr) occupying 0.566749 of unit cell:	Completed after 15 iterations at t[s]:   4701.49
	FillingsUpdate:  mu: -0.244750000  nElectrons: 378.702106  magneticMoment: [ Abs: 0.00000  Tot: -0.00000 ]
	SubspaceRotationAdjust: set factor to 0.0779
ElecMinimize: Iter:   4  G: -2859.244097968658934  |grad|_K:  6.610e-06  alpha:  3.314e-01  linmin: -3.009e-05  t[s]:   4748.63
	Linear fluid (dielectric constant: 78.4, screening length: 8.12261 Bohr) occupying 0.566716 of unit cell:	Completed after 15 iterations at t[s]:   4789.68
	Linear fluid (dielectric constant: 78.4, screening length: 8.12261 Bohr) occupying 0.566702 of unit cell:	Completed after 14 iterations at t[s]:   4821.79
	FillingsUpdate:  mu: -0.244750000  nElectrons: 378.675617  magneticMoment: [ Abs: 0.00000  Tot: -0.00000 ]
	SubspaceRotationAdjust: set factor to 0.0993
ElecMinimize: Iter:   5  G: -2859.250198517167519  |grad|_K:  6.144e-06  alpha:  4.593e-01  linmin:  1.083e-05  t[s]:   4869.13
	Linear fluid (dielectric constant: 78.4, screening length: 8.12261 Bohr) occupying 0.566670 of unit cell:	Completed after 16 iterations at t[s]:   4910.88
	Linear fluid (dielectric constant: 78.4, screening length: 8.12261 Bohr) occupying 0.566662 of unit cell:	Completed after 13 iterations at t[s]:   4942.84
	FillingsUpdate:  mu: -0.244750000  nElectrons: 378.665034  magneticMoment: [ Abs: 0.00000  Tot: -0.00000 ]
	SubspaceRotationAdjust: set factor to 0.126
ElecMinimize: Iter:   6  G: -2859.256565104843958  |grad|_K:  6.154e-06  alpha:  5.555e-01  linmin: -3.759e-06  t[s]:   4990.17
	Linear fluid (dielectric constant: 78.4, screening length: 8.12261 Bohr) occupying 0.566697 of unit cell:	Completed after 17 iterations at t[s]:   5032.11
	Linear fluid (dielectric constant: 78.4, screening length: 8.12261 Bohr) occupying 0.566696 of unit cell:	Completed after 10 iterations at t[s]:   5063.48
	FillingsUpdate:  mu: -0.244750000  nElectrons: 378.730032  magneticMoment: [ Abs: 0.00000  Tot: -0.00000 ]
	SubspaceRotationAdjust: set factor to 0.129
ElecMinimize: Iter:   7  G: -2859.262872702564437  |grad|_K:  8.018e-06  alpha:  5.477e-01  linmin: -1.304e-05  t[s]:   5110.82
	Linear fluid (dielectric constant: 78.4, screening length: 8.12261 Bohr) occupying 0.566637 of unit cell:	Completed after 18 iterations at t[s]:   5152.79
	Linear fluid (dielectric constant: 78.4, screening length: 8.12261 Bohr) occupying 0.566660 of unit cell:	Completed after 15 iterations at t[s]:   5185.19
	FillingsUpdate:  mu: -0.244750000  nElectrons: 378.637084  magneticMoment: [ Abs: 0.00000  Tot: -0.00000 ]
	SubspaceRotationAdjust: set factor to 0.11
ElecMinimize: Iter:   8  G: -2859.270866757608019  |grad|_K:  7.842e-06  alpha:  4.067e-01  linmin:  7.891e-06  t[s]:   5232.25
	Linear fluid (dielectric constant: 78.4, screening length: 8.12261 Bohr) occupying 0.566767 of unit cell:	Completed after 15 iterations at t[s]:   5273.65
	Linear fluid (dielectric constant: 78.4, screening length: 8.12261 Bohr) occupying 0.566780 of unit cell:	Completed after 13 iterations at t[s]:   5305.52
	FillingsUpdate:  mu: -0.244750000  nElectrons: 378.670905  magneticMoment: [ Abs: 0.00000  Tot: -0.00000 ]
	SubspaceRotationAdjust: set factor to 0.111
ElecMinimize: Iter:   9  G: -2859.279620200271893  |grad|_K:  6.637e-06  alpha:  4.695e-01  linmin: -7.408e-06  t[s]:   5352.80
	Linear fluid (dielectric constant: 78.4, screening length: 8.12261 Bohr) occupying 0.566958 of unit cell:	Completed after 13 iterations at t[s]:   5393.53
	Linear fluid (dielectric constant: 78.4, screening length: 8.12261 Bohr) occupying 0.566938 of unit cell:	Completed after 3 iterations at t[s]:   5423.44
	FillingsUpdate:  mu: -0.244750000  nElectrons: 378.668144  magneticMoment: [ Abs: 0.00000  Tot: -0.00000 ]
	SubspaceRotationAdjust: set factor to 0.114
ElecMinimize: Iter:  10  G: -2859.285158229219633  |grad|_K:  4.563e-06  alpha:  4.122e-01  linmin:  9.730e-07  t[s]:   5470.62
	Linear fluid (dielectric constant: 78.4, screening length: 8.12261 Bohr) occupying 0.567033 of unit cell:	Completed after 15 iterations at t[s]:   5511.96
	Linear fluid (dielectric constant: 78.4, screening length: 8.12261 Bohr) occupying 0.567034 of unit cell:	Completed after 3 iterations at t[s]:   5541.91
	FillingsUpdate:  mu: -0.244750000  nElectrons: 378.648404  magneticMoment: [ Abs: 0.00000  Tot: -0.00000 ]
	SubspaceRotationAdjust: set factor to 0.109
ElecMinimize: Iter:  11  G: -2859.287802868282142  |grad|_K:  3.096e-06  alpha:  4.181e-01  linmin:  1.069e-05  t[s]:   5589.13
	Linear fluid (dielectric constant: 78.4, screening length: 8.12261 Bohr) occupying 0.567094 of unit cell:	Completed after 15 iterations at t[s]:   5630.56
	Linear fluid (dielectric constant: 78.4, screening length: 8.12261 Bohr) occupying 0.567080 of unit cell:	Completed after 14 iterations at t[s]:   5662.54
	FillingsUpdate:  mu: -0.244750000  nElectrons: 378.666692  magneticMoment: [ Abs: 0.00000  Tot: -0.00000 ]
	SubspaceRotationAdjust: set factor to 0.0886
ElecMinimize: Iter:  12  G: -2859.288703950286163  |grad|_K:  2.046e-06  alpha:  3.098e-01  linmin:  4.157e-06  t[s]:   5709.64
	Linear fluid (dielectric constant: 78.4, screening length: 8.12261 Bohr) occupying 0.567073 of unit cell:	Completed after 15 iterations at t[s]:   5750.78
	Linear fluid (dielectric constant: 78.4, screening length: 8.12261 Bohr) occupying 0.567073 of unit cell:	Completed after 6 iterations at t[s]:   5781.36
	FillingsUpdate:  mu: -0.244750000  nElectrons: 378.650308  magneticMoment: [ Abs: 0.00000  Tot: -0.00000 ]
	SubspaceRotationAdjust: set factor to 0.0702
ElecMinimize: Iter:  13  G: -2859.289091828969049  |grad|_K:  1.284e-06  alpha:  3.049e-01  linmin: -6.307e-06  t[s]:   5828.49
	Linear fluid (dielectric constant: 78.4, screening length: 8.12261 Bohr) occupying 0.567063 of unit cell:	Completed after 13 iterations at t[s]:   5869.52
	Linear fluid (dielectric constant: 78.4, screening length: 8.12261 Bohr) occupying 0.567061 of unit cell:	Completed after 10 iterations at t[s]:   5900.71
	FillingsUpdate:  mu: -0.244750000  nElectrons: 378.655242  magneticMoment: [ Abs: 0.00000  Tot: -0.00000 ]
	SubspaceRotationAdjust: set factor to 0.0835
ElecMinimize: Iter:  14  G: -2859.289269974807667  |grad|_K:  8.173e-07  alpha:  3.553e-01  linmin: -2.421e-06  t[s]:   5947.85
	Linear fluid (dielectric constant: 78.4, screening length: 8.12261 Bohr) occupying 0.567043 of unit cell:	Completed after 12 iterations at t[s]:   5988.68
	Linear fluid (dielectric constant: 78.4, screening length: 8.12261 Bohr) occupying 0.567042 of unit cell:	Completed after 3 iterations at t[s]:   6018.43
	FillingsUpdate:  mu: -0.244750000  nElectrons: 378.660014  magneticMoment: [ Abs: 0.00000  Tot: -0.00000 ]
	SubspaceRotationAdjust: set factor to 0.0954
ElecMinimize: Iter:  15  G: -2859.289346953849872  |grad|_K:  5.879e-07  alpha:  3.791e-01  linmin: -5.169e-05  t[s]:   6065.61
	Linear fluid (dielectric constant: 78.4, screening length: 8.12261 Bohr) occupying 0.567017 of unit cell:	Completed after 12 iterations at t[s]:   6106.40
	Linear fluid (dielectric constant: 78.4, screening length: 8.12261 Bohr) occupying 0.567013 of unit cell:	Completed after 7 iterations at t[s]:   6137.01
	FillingsUpdate:  mu: -0.244750000  nElectrons: 378.657820  magneticMoment: [ Abs: 0.00000  Tot: -0.00000 ]
	SubspaceRotationAdjust: set factor to 0.108
ElecMinimize: Iter:  16  G: -2859.289392307452545  |grad|_K:  5.132e-07  alpha:  4.317e-01  linmin:  5.151e-05  t[s]:   6184.14
	Linear fluid (dielectric constant: 78.4, screening length: 8.12261 Bohr) occupying 0.566985 of unit cell:	Completed after 13 iterations at t[s]:   6225.02
	Linear fluid (dielectric constant: 78.4, screening length: 8.12261 Bohr) occupying 0.566985 of unit cell:	Completed after 0 iterations at t[s]:   6254.16
	FillingsUpdate:  mu: -0.244750000  nElectrons: 378.662926  magneticMoment: [ Abs: 0.00000  Tot: -0.00000 ]
	SubspaceRotationAdjust: set factor to 0.134
ElecMinimize: Iter:  17  G: -2859.289427026124940  |grad|_K:  4.650e-07  alpha:  4.350e-01  linmin: -5.365e-06  t[s]:   6300.98
	Linear fluid (dielectric constant: 78.4, screening length: 8.12261 Bohr) occupying 0.566955 of unit cell:	Completed after 5 iterations at t[s]:   6340.45
	Linear fluid (dielectric constant: 78.4, screening length: 8.12261 Bohr) occupying 0.566941 of unit cell:	Completed after 3 iterations at t[s]:   6370.17
	FillingsUpdate:  mu: -0.244750000  nElectrons: 378.665229  magneticMoment: [ Abs: 0.00000  Tot: -0.00000 ]
	SubspaceRotationAdjust: set factor to 0.166
ElecMinimize: Iter:  18  G: -2859.289468739249969  |grad|_K:  5.028e-07  alpha:  6.340e-01  linmin: -1.823e-06  t[s]:   6417.34
	Linear fluid (dielectric constant: 78.4, screening length: 8.12261 Bohr) occupying 0.566891 of unit cell:	Completed after 13 iterations at t[s]:   6458.45
	Linear fluid (dielectric constant: 78.4, screening length: 8.12261 Bohr) occupying 0.566903 of unit cell:	Completed after 11 iterations at t[s]:   6490.00
	FillingsUpdate:  mu: -0.244750000  nElectrons: 378.663942  magneticMoment: [ Abs: 0.00000  Tot: -0.00000 ]
	SubspaceRotationAdjust: set factor to 0.171
ElecMinimize: Iter:  19  G: -2859.289505880805336  |grad|_K:  5.846e-07  alpha:  4.842e-01  linmin: -6.430e-06  t[s]:   6537.22
	Linear fluid (dielectric constant: 78.4, screening length: 8.12261 Bohr) occupying 0.566867 of unit cell:	Completed after 15 iterations at t[s]:   6578.58
	Linear fluid (dielectric constant: 78.4, screening length: 8.12261 Bohr) occupying 0.566885 of unit cell:	Completed after 13 iterations at t[s]:   6610.52
	FillingsUpdate:  mu: -0.244750000  nElectrons: 378.671936  magneticMoment: [ Abs: 0.00000  Tot: -0.00000 ]
	SubspaceRotationAdjust: set factor to 0.132
ElecMinimize: Iter:  20  G: -2859.289531752486255  |grad|_K:  5.425e-07  alpha:  2.484e-01  linmin:  1.488e-07  t[s]:   6657.70
	Linear fluid (dielectric constant: 78.4, screening length: 8.12261 Bohr) occupying 0.566871 of unit cell:	Completed after 11 iterations at t[s]:   6698.30
	Linear fluid (dielectric constant: 78.4, screening length: 8.12261 Bohr) occupying 0.566867 of unit cell:	Completed after 11 iterations at t[s]:   6729.75
	FillingsUpdate:  mu: -0.244750000  nElectrons: 378.670522  magneticMoment: [ Abs: 0.00000  Tot: +0.00000 ]
	SubspaceRotationAdjust: set factor to 0.124
ElecMinimize: Iter:  21  G: -2859.289561072124343  |grad|_K:  3.976e-07  alpha:  3.279e-01  linmin:  6.747e-07  t[s]:   6777.02
	Linear fluid (dielectric constant: 78.4, screening length: 8.12261 Bohr) occupying 0.566867 of unit cell:	Completed after 3 iterations at t[s]:   6816.31
	Linear fluid (dielectric constant: 78.4, screening length: 8.12261 Bohr) occupying 0.566867 of unit cell:	Completed after 3 iterations at t[s]:   6846.13
	FillingsUpdate:  mu: -0.244750000  nElectrons: 378.671523  magneticMoment: [ Abs: 0.00000  Tot: +0.00000 ]
	SubspaceRotationAdjust: set factor to 0.136
ElecMinimize: Iter:  22  G: -2859.289580817109254  |grad|_K:  2.913e-07  alpha:  4.111e-01  linmin:  9.811e-07  t[s]:   6893.36
	Linear fluid (dielectric constant: 78.4, screening length: 8.12261 Bohr) occupying 0.566877 of unit cell:	Completed after 11 iterations at t[s]:   6934.16
	Linear fluid (dielectric constant: 78.4, screening length: 8.12261 Bohr) occupying 0.566876 of unit cell:	Completed after 6 iterations at t[s]:   6964.59
	FillingsUpdate:  mu: -0.244750000  nElectrons: 378.673384  magneticMoment: [ Abs: 0.00000  Tot: +0.00000 ]
	SubspaceRotationAdjust: set factor to 0.132
ElecMinimize: Iter:  23  G: -2859.289590156234681  |grad|_K:  2.527e-07  alpha:  3.627e-01  linmin: -1.797e-05  t[s]:   7011.64
	Linear fluid (dielectric constant: 78.4, screening length: 8.12261 Bohr) occupying 0.566885 of unit cell:	Completed after 12 iterations at t[s]:   7052.26
	Linear fluid (dielectric constant: 78.4, screening length: 8.12261 Bohr) occupying 0.566882 of unit cell:	Completed after 10 iterations at t[s]:   7083.54
	FillingsUpdate:  mu: -0.244750000  nElectrons: 378.670575  magneticMoment: [ Abs: 0.00000  Tot: +0.00000 ]
	SubspaceRotationAdjust: set factor to 0.109
ElecMinimize: Iter:  24  G: -2859.289594932758064  |grad|_K:  1.907e-07  alpha:  2.461e-01  linmin: -7.697e-06  t[s]:   7130.69
	Linear fluid (dielectric constant: 78.4, screening length: 8.12261 Bohr) occupying 0.566890 of unit cell:	Completed after 8 iterations at t[s]:   7170.69
	Linear fluid (dielectric constant: 78.4, screening length: 8.12261 Bohr) occupying 0.566894 of unit cell:	Completed after 7 iterations at t[s]:   7201.25
	FillingsUpdate:  mu: -0.244750000  nElectrons: 378.670698  magneticMoment: [ Abs: 0.00000  Tot: +0.00000 ]
	SubspaceRotationAdjust: set factor to 0.143
ElecMinimize: Iter:  25  G: -2859.289598900748388  |grad|_K:  1.376e-07  alpha:  3.589e-01  linmin:  5.503e-06  t[s]:   7248.15
	Linear fluid (dielectric constant: 78.4, screening length: 8.12261 Bohr) occupying 0.566903 of unit cell:	Completed after 8 iterations at t[s]:   7288.22
	Linear fluid (dielectric constant: 78.4, screening length: 8.12261 Bohr) occupying 0.566904 of unit cell:	Completed after 1 iterations at t[s]:   7317.63
	FillingsUpdate:  mu: -0.244750000  nElectrons: 378.670596  magneticMoment: [ Abs: 0.00000  Tot: +0.00000 ]
	SubspaceRotationAdjust: set factor to 0.178
ElecMinimize: Iter:  26  G: -2859.289601359557764  |grad|_K:  1.199e-07  alpha:  4.273e-01  linmin: -6.166e-05  t[s]:   7364.74
	Linear fluid (dielectric constant: 78.4, screening length: 8.12261 Bohr) occupying 0.566913 of unit cell:	Completed after 11 iterations at t[s]:   7405.19
	Linear fluid (dielectric constant: 78.4, screening length: 8.12261 Bohr) occupying 0.566912 of unit cell:	Completed after 4 iterations at t[s]:   7435.33
	FillingsUpdate:  mu: -0.244750000  nElectrons: 378.668778  magneticMoment: [ Abs: 0.00000  Tot: +0.00000 ]
	SubspaceRotationAdjust: set factor to 0.151
ElecMinimize: Iter:  27  G: -2859.289602966284292  |grad|_K:  1.359e-07  alpha:  3.636e-01  linmin:  2.527e-04  t[s]:   7482.34
	Linear fluid (dielectric constant: 78.4, screening length: 8.12261 Bohr) occupying 0.566924 of unit cell:	Completed after 10 iterations at t[s]:   7522.59
	Linear fluid (dielectric constant: 78.4, screening length: 8.12261 Bohr) occupying 0.566920 of unit cell:	Completed after 10 iterations at t[s]:   7553.71
	FillingsUpdate:  mu: -0.244750000  nElectrons: 378.669306  magneticMoment: [ Abs: 0.00000  Tot: +0.00000 ]
	SubspaceRotationAdjust: set factor to 0.136
ElecMinimize: Iter:  28  G: -2859.289604253557172  |grad|_K:  1.060e-07  alpha:  2.374e-01  linmin: -4.509e-05  t[s]:   7600.87
	Linear fluid (dielectric constant: 78.4, screening length: 8.12261 Bohr) occupying 0.566924 of unit cell:	Completed after 7 iterations at t[s]:   7640.68
	Linear fluid (dielectric constant: 78.4, screening length: 8.12261 Bohr) occupying 0.566927 of unit cell:	Completed after 3 iterations at t[s]:   7670.59
	FillingsUpdate:  mu: -0.244750000  nElectrons: 378.668147  magneticMoment: [ Abs: 0.00000  Tot: +0.00000 ]
	SubspaceRotationAdjust: set factor to 0.168
ElecMinimize: Iter:  29  G: -2859.289605559362371  |grad|_K:  8.261e-08  alpha:  3.807e-01  linmin: -3.823e-05  t[s]:   7717.70
	Linear fluid (dielectric constant: 78.4, screening length: 8.12261 Bohr) occupying 0.566930 of unit cell:	Completed after 9 iterations at t[s]:   7757.87
	Linear fluid (dielectric constant: 78.4, screening length: 8.12261 Bohr) occupying 0.566930 of unit cell:	Completed after 0 iterations at t[s]:   7787.05
	FillingsUpdate:  mu: -0.244750000  nElectrons: 378.667103  magneticMoment: [ Abs: 0.00000  Tot: +0.00000 ]
	SubspaceRotationAdjust: set factor to 0.168
ElecMinimize: Iter:  30  G: -2859.289606375387848  |grad|_K:  8.771e-08  alpha:  3.912e-01  linmin: -2.762e-04  t[s]:   7834.27
	Linear fluid (dielectric constant: 78.4, screening length: 8.12261 Bohr) occupying 0.566934 of unit cell:	Completed after 11 iterations at t[s]:   7874.90
	Linear fluid (dielectric constant: 78.4, screening length: 8.12261 Bohr) occupying 0.566932 of unit cell:	Completed after 9 iterations at t[s]:   7906.01
	FillingsUpdate:  mu: -0.244750000  nElectrons: 378.667686  magneticMoment: [ Abs: 0.00000  Tot: +0.00000 ]
	SubspaceRotationAdjust: set factor to 0.133
ElecMinimize: Iter:  31  G: -2859.289606848315998  |grad|_K:  7.170e-08  alpha:  1.962e-01  linmin:  1.645e-05  t[s]:   7953.23
	Linear fluid (dielectric constant: 78.4, screening length: 8.12261 Bohr) occupying 0.566932 of unit cell:	Completed after 2 iterations at t[s]:   7992.05
	Linear fluid (dielectric constant: 78.4, screening length: 8.12261 Bohr) occupying 0.566933 of unit cell:	Completed after 2 iterations at t[s]:   8021.79
	FillingsUpdate:  mu: -0.244750000  nElectrons: 378.667273  magneticMoment: [ Abs: 0.00000  Tot: +0.00000 ]
	SubspaceRotationAdjust: set factor to 0.189
ElecMinimize: Iter:  32  G: -2859.289607380866073  |grad|_K:  5.403e-08  alpha:  3.441e-01  linmin:  4.954e-05  t[s]:   8068.54
	Linear fluid (dielectric constant: 78.4, screening length: 8.12261 Bohr) occupying 0.566932 of unit cell:	Completed after 10 iterations at t[s]:   8109.14
	Linear fluid (dielectric constant: 78.4, screening length: 8.12261 Bohr) occupying 0.566933 of unit cell:	Completed after 2 iterations at t[s]:   8138.93
	FillingsUpdate:  mu: -0.244750000  nElectrons: 378.666771  magneticMoment: [ Abs: 0.00000  Tot: +0.00000 ]
	SubspaceRotationAdjust: set factor to 0.136
ElecMinimize: Iter:  33  G: -2859.289607595440430  |grad|_K:  6.710e-08  alpha:  2.507e-01  linmin:  4.570e-05  t[s]:   8186.34
	Linear fluid (dielectric constant: 78.4, screening length: 8.12261 Bohr) occupying 0.566932 of unit cell:	Completed after 9 iterations at t[s]:   8226.78
	Linear fluid (dielectric constant: 78.4, screening length: 8.12261 Bohr) occupying 0.566933 of unit cell:	Completed after 4 iterations at t[s]:   8256.95
	FillingsUpdate:  mu: -0.244750000  nElectrons: 378.667225  magneticMoment: [ Abs: 0.00000  Tot: +0.00000 ]
	SubspaceRotationAdjust: set factor to 0.142
ElecMinimize: Iter:  34  G: -2859.289607802445971  |grad|_K:  4.043e-08  alpha:  1.572e-01  linmin:  7.699e-05  t[s]:   8304.22
	Linear fluid (dielectric constant: 78.4, screening length: 8.12261 Bohr) occupying 0.566932 of unit cell:	Completed after 0 iterations at t[s]:   8342.81
	Linear fluid (dielectric constant: 78.4, screening length: 8.12261 Bohr) occupying 0.566931 of unit cell:	Completed after 2 iterations at t[s]:   8372.52
	FillingsUpdate:  mu: -0.244750000  nElectrons: 378.667455  magneticMoment: [ Abs: 0.00000  Tot: +0.00000 ]
	SubspaceRotationAdjust: set factor to 0.182
ElecMinimize: Iter:  35  G: -2859.289608007515199  |grad|_K:  3.728e-08  alpha:  4.261e-01  linmin:  5.143e-05  t[s]:   8419.64
	Linear fluid (dielectric constant: 78.4, screening length: 8.12261 Bohr) occupying 0.566930 of unit cell:	Completed after 7 iterations at t[s]:   8459.52
	Linear fluid (dielectric constant: 78.4, screening length: 8.12261 Bohr) occupying 0.566930 of unit cell:	Completed after 2 iterations at t[s]:   8489.24
	FillingsUpdate:  mu: -0.244750000  nElectrons: 378.667148  magneticMoment: [ Abs: 0.00000  Tot: -0.00000 ]
	SubspaceRotationAdjust: set factor to 0.164
ElecMinimize: Iter:  36  G: -2859.289608149615560  |grad|_K:  4.092e-08  alpha:  3.379e-01  linmin:  2.328e-04  t[s]:   8536.30
	Linear fluid (dielectric constant: 78.4, screening length: 8.12261 Bohr) occupying 0.566929 of unit cell:	Completed after 9 iterations at t[s]:   8576.48
	Linear fluid (dielectric constant: 78.4, screening length: 8.12261 Bohr) occupying 0.566929 of unit cell:	Completed after 2 iterations at t[s]:   8606.13
	FillingsUpdate:  mu: -0.244750000  nElectrons: 378.667569  magneticMoment: [ Abs: 0.00000  Tot: -0.00000 ]
	SubspaceRotationAdjust: set factor to 0.13
ElecMinimize: Iter:  37  G: -2859.289608257136479  |grad|_K:  3.414e-08  alpha:  2.230e-01  linmin:  1.877e-04  t[s]:   8653.23
	Linear fluid (dielectric constant: 78.4, screening length: 8.12261 Bohr) occupying 0.566928 of unit cell:	Completed after 7 iterations at t[s]:   8693.04
	Linear fluid (dielectric constant: 78.4, screening length: 8.12261 Bohr) occupying 0.566928 of unit cell:	Completed after 0 iterations at t[s]:   8722.15
	FillingsUpdate:  mu: -0.244750000  nElectrons: 378.667439  magneticMoment: [ Abs: 0.00000  Tot: +0.00000 ]
	SubspaceRotationAdjust: set factor to 0.125
ElecMinimize: Iter:  38  G: -2859.289608347458852  |grad|_K:  2.577e-08  alpha:  2.591e-01  linmin: -5.431e-04  t[s]:   8769.22
	Linear fluid (dielectric constant: 78.4, screening length: 8.12261 Bohr) occupying 0.566927 of unit cell:	Completed after 2 iterations at t[s]:   8808.05
	Linear fluid (dielectric constant: 78.4, screening length: 8.12261 Bohr) occupying 0.566927 of unit cell:	Completed after 0 iterations at t[s]:   8837.02
	FillingsUpdate:  mu: -0.244750000  nElectrons: 378.667608  magneticMoment: [ Abs: 0.00000  Tot: +0.00000 ]
	SubspaceRotationAdjust: set factor to 0.151
ElecMinimize: Iter:  39  G: -2859.289608444371879  |grad|_K:  2.235e-08  alpha:  4.103e-01  linmin: -3.108e-04  t[s]:   8883.88
ElecMinimize: Converged (|Delta G|<1.000000e-07 for 2 iters).
Setting wave functions to eigenvectors of Hamiltonian
Converging empty states (this may take a while): |deigs|: 3.349e-05

Computing DFT-D3 correction:
# coordination-number Ag 6.905 9.004 8.983 8.992 9.023 8.951 9.029 8.251 6.143 4.602 8.248 9.028 8.953 9.022 8.992 8.984 9.003 6.908 4.603 6.144
# diagonal-C6 Ag 268.61 268.61 268.61 268.61 268.61 268.61 268.61 268.61 268.61 268.61 268.61 268.61 268.61 268.61 268.61 268.61 268.61 268.61 268.61 268.61
EvdW_6 =   -0.124300
EvdW_8 =   -0.170987

# Ionic positions in cartesian coordinates:
ion Ag  -0.000148894733828   4.706630520069179  21.314300274989321 1
ion Ag   0.000179898610409   9.632022934424809  18.919675131954794 1
ion Ag   0.000595628696516   2.346769974298847  16.418954793681770 1
ion Ag   0.000809233587110   7.269522339456851  13.997192690955190 1
ion Ag   0.000831713450174  12.128367665350330  11.487889302882722 1
ion Ag   0.000941532070360   4.898641040226824   9.074946939616906 1
ion Ag   0.000780917759960   9.782023338653932   6.606028470809259 1
ion Ag   0.000741892122843   2.509318528982151   4.069044794128758 1
ion Ag   0.000639705668608   7.461718040150992   1.746042767672867 1
ion Ag  -0.000708210761644  -0.160776117588657  23.765985146083484 1
ion Ag   3.832116433568319   1.124013917053420  20.172097574351117 1
ion Ag   3.832086893792325   5.978645190318562  17.634988986931972 1
ion Ag   3.831901344399055  10.861396578961019  15.165882677712794 1
ion Ag   3.832047119414733   3.629578655448076  12.753130828999234 1
ion Ag   3.832032102383834   8.490234734835704  10.243550829518192 1
ion Ag   3.832280571828295   1.293568074478833   7.821843334059737 1
ion Ag   3.832681701034892   6.125609570664825   5.320776012366070 1
ion Ag   3.832992752561192  11.046650196432719   2.925796649012831 1
ion Ag   3.833434984123672   3.790141804191481   0.475883809244203 1
ion Ag   3.832100680423165   8.290806013590093  22.495540985028811 1

# Forces in Cartesian coordinates:
force Ag  -0.000029441542462   0.000064113001961  -0.000367768257574 1
force Ag  -0.000054743645192  -0.000224632485344   0.000114281861008 1
force Ag  -0.000082525906404  -0.000240784065428  -0.000588924882101 1
force Ag  -0.000100846528752   0.000162668961533  -0.000631903623544 1
force Ag  -0.000099424455895  -0.000209002577983   0.000256979729393 1
force Ag  -0.000095401578524  -0.000120641856970   0.000404512725828 1
force Ag  -0.000070027185261   0.000217301511152   0.000067988089605 1
force Ag  -0.000047237672026  -0.000713892982664  -0.000505521208190 1
force Ag  -0.000020137844350   0.000177538887650  -0.000329130882239 1
force Ag  -0.000009707478135   0.000134404522769   0.000193518910229 1
force Ag   0.000045468243717   0.000737178538042   0.000504618398932 1
force Ag   0.000069992648259  -0.000269470289251  -0.000080534303910 1
force Ag   0.000096269018067   0.000112289162888  -0.000402678659392 1
force Ag   0.000098629224632   0.000214842501903  -0.000269240979268 1
[...]
force Ag  -0.000293144704578   0.000198286797837  -0.001047221493321 1
force Ag  -0.000234639543868  -0.000018487390244  -0.000144019482879 1
force Ag  -0.000154534524583  -0.000438426491341   0.000255151745151 1
force Ag  -0.000096763551323  -0.000266565944375  -0.000176056662564 1
force Ag  -0.000033250911967   0.000057796846864   0.000163926340153 1
force Ag  -0.000063167042067   0.000118110153848   0.000160029302618 1

# Energy components:
   A_diel =        0.1187747825209133
   Eewald =    23900.0655750187543163
       EH =    26493.8613621480108122
     Eloc =   -53810.0846536803583149
      Enl =       79.0935682986132491
     EvdW =       -0.2953400612581371
      Exc =     -289.5428154633211193
 Exc_core =        4.1634159784505433
       KE =      670.5778414435879995
  MuShift =        0.0744040817130944
-------------------------------------
     Etot =    -2951.9678674532865443
       TS =        0.0004002636240092
-------------------------------------
        F =    -2951.9682677169107592
      muN =      -92.6786545263910710
-------------------------------------
        G =    -2859.2896131905195034


Dumping 'jdft.fillings' ... done
Dumping 'jdft.wfns' ... done
Dumping 'jdft.fluidState' ... done
Dumping 'jdft.ionpos' ... done
Dumping 'jdft.lattice' ... done
Dumping 'jdft.eigenvals' ... done
Dumping 'jdft.eigStats' ... 
	eMin: -3.629623 at state 23 ( [ +0.000000 +0.000000 +0.000000 ] spin -1 )
	HOMO: -0.244968 at state 3 ( [ +0.111111 +0.000000 +0.000000 ] spin 1 )
	mu  : -0.244750
	LUMO: -0.243313 at state 26 ( [ +0.111111 +0.000000 +0.000000 ] spin -1 )
	eMax: +0.130552 at state 8 ( [ +0.222222 +0.000000 +0.000000 ] spin 1 )
	HOMO-LUMO gap: +0.001655
	Optical gap  : +0.001655 at state 3 ( [ +0.111111 +0.000000 +0.000000 ] spin 1 )
Dumping 'jdft.Ecomponents' ... done
IonicMinimize: Iter:   3  G: -2859.289613190519503  |grad|_K:  3.812e-04  alpha:  1.000e+00  linmin:  6.329e-01  t[s]:  12691.86

#--- Lowdin population analysis ---
# oxidation-state Ag +0.109 -0.035 +0.003 +0.000 +0.003 +0.004 -0.021 -0.023 +0.228 +0.458 -0.023 -0.021 +0.004 +0.003 +0.000 +0.003 -0.035 +0.109 +0.458 +0.228
# magnetic-moments Ag +0.000 +0.000 +0.000 +0.000 +0.000 +0.000 +0.000 +0.000 +0.000 +0.000 +0.000 +0.000 +0.000 +0.000 +0.000 +0.000 +0.000 +0.000 +0.000 +0.000


Computing DFT-D3 correction:
# coordination-number Ag 6.928 8.969 8.979 9.013 9.056 8.953 9.023 8.217 6.118 4.580 8.213 9.021 8.954 9.056 9.013 8.981 8.971 6.930 4.582 6.117
# diagonal-C6 Ag 268.61 268.61 268.61 268.61 268.61 268.61 268.61 268.61 268.61 268.61 268.61 268.61 268.61 268.61 268.61 268.61 268.61 268.61 268.61 268.61
EvdW_6 =   -0.124311
EvdW_8 =   -0.170999
Shifting auxilliary hamiltonian by 0.000056 to set nElectrons=378.666617

-------- Electronic minimization -----------
	Linear fluid (dielectric constant: 78.4, screening length: 8.12261 Bohr) occupying 0.566768 of unit cell:	Completed after 15 iterations at t[s]:  12738.14
	FillingsUpdate:  mu: -0.244750000  nElectrons: 378.666617  magneticMoment: [ Abs: 0.00002  Tot: -0.00000 ]
ElecMinimize: Iter:   0  G: -2859.289618615988729  |grad|_K:  4.236e-07  alpha:  1.000e+00
	Linear fluid (dielectric constant: 78.4, screening length: 8.12261 Bohr) occupying 0.566769 of unit cell:	Completed after 14 iterations at t[s]:  12832.04
	Linear fluid (dielectric constant: 78.4, screening length: 8.12261 Bohr) occupying 0.566768 of unit cell:	Completed after 12 iterations at t[s]:  12863.46
	FillingsUpdate:  mu: -0.244750000  nElectrons: 378.664294  magneticMoment: [ Abs: 0.00001  Tot: -0.00000 ]
	SubspaceRotationAdjust: set factor to 0.0808
ElecMinimize: Iter:   1  G: -2859.289638965234190  |grad|_K:  2.426e-07  alpha:  3.728e-01  linmin: -1.903e-05  t[s]:  12910.66
	Linear fluid (dielectric constant: 78.4, screening length: 8.12261 Bohr) occupying 0.566772 of unit cell:	Completed after 12 iterations at t[s]:  12951.35
	Linear fluid (dielectric constant: 78.4, screening length: 8.12261 Bohr) occupying 0.566772 of unit cell:	Completed after 7 iterations at t[s]:  12981.94
	FillingsUpdate:  mu: -0.244750000  nElectrons: 378.666937  magneticMoment: [ Abs: 0.00000  Tot: -0.00000 ]
	SubspaceRotationAdjust: set factor to 0.0638
ElecMinimize: Iter:   2  G: -2859.289644852883157  |grad|_K:  1.588e-07  alpha:  3.288e-01  linmin:  3.063e-04  t[s]:  13028.90
	Linear fluid (dielectric constant: 78.4, screening length: 8.12261 Bohr) occupying 0.566772 of unit cell:	Completed after 10 iterations at t[s]:  13069.26
	Linear fluid (dielectric constant: 78.4, screening length: 8.12261 Bohr) occupying 0.566773 of unit cell:	Completed after 7 iterations at t[s]:  13099.79
	FillingsUpdate:  mu: -0.244750000  nElectrons: 378.665994  magneticMoment: [ Abs: 0.00000  Tot: -0.00000 ]
	SubspaceRotationAdjust: set factor to 0.074
ElecMinimize: Iter:   3  G: -2859.289648603934893  |grad|_K:  1.069e-07  alpha:  4.912e-01  linmin: -2.405e-04  t[s]:  13146.80
	Linear fluid (dielectric constant: 78.4, screening length: 8.12261 Bohr) occupying 0.566773 of unit cell:	Completed after 2 iterations at t[s]:  13185.50
	Linear fluid (dielectric constant: 78.4, screening length: 8.12261 Bohr) occupying 0.566773 of unit cell:	Completed after 2 iterations at t[s]:  13215.06
	FillingsUpdate:  mu: -0.244750000  nElectrons: 378.666224  magneticMoment: [ Abs: 0.00000  Tot: -0.00000 ]
	SubspaceRotationAdjust: set factor to 0.0918
ElecMinimize: Iter:   4  G: -2859.289650614520269  |grad|_K:  1.043e-07  alpha:  5.767e-01  linmin:  1.197e-06  t[s]:  13262.05
	Linear fluid (dielectric constant: 78.4, screening length: 8.12261 Bohr) occupying 0.566774 of unit cell:	Completed after 8 iterations at t[s]:  13302.01
	Linear fluid (dielectric constant: 78.4, screening length: 8.12261 Bohr) occupying 0.566774 of unit cell:	Completed after 0 iterations at t[s]:  13330.89
	FillingsUpdate:  mu: -0.244750000  nElectrons: 378.666963  magneticMoment: [ Abs: 0.00000  Tot: -0.00000 ]
	SubspaceRotationAdjust: set factor to 0.105
ElecMinimize: Iter:   5  G: -2859.289652440058035  |grad|_K:  1.096e-07  alpha:  5.522e-01  linmin:  4.828e-05  t[s]:  13377.80
	Linear fluid (dielectric constant: 78.4, screening length: 8.12261 Bohr) occupying 0.566772 of unit cell:	Completed after 11 iterations at t[s]:  13417.98
	Linear fluid (dielectric constant: 78.4, screening length: 8.12261 Bohr) occupying 0.566772 of unit cell:	Completed after 0 iterations at t[s]:  13447.05
	FillingsUpdate:  mu: -0.244750000  nElectrons: 378.666204  magneticMoment: [ Abs: 0.00000  Tot: -0.00000 ]
	SubspaceRotationAdjust: set factor to 0.103
ElecMinimize: Iter:   6  G: -2859.289654588950725  |grad|_K:  1.206e-07  alpha:  5.881e-01  linmin: -4.734e-04  t[s]:  13493.99
	Linear fluid (dielectric constant: 78.4, screening length: 8.12261 Bohr) occupying 0.566769 of unit cell:	Completed after 11 iterations at t[s]:  13534.68
	Linear fluid (dielectric constant: 78.4, screening length: 8.12261 Bohr) occupying 0.566770 of unit cell:	Completed after 6 iterations at t[s]:  13565.04
	FillingsUpdate:  mu: -0.244750000  nElectrons: 378.667552  magneticMoment: [ Abs: 0.00000  Tot: -0.00000 ]
	SubspaceRotationAdjust: set factor to 0.094
ElecMinimize: Iter:   7  G: -2859.289656707491758  |grad|_K:  1.136e-07  alpha:  4.641e-01  linmin:  1.547e-04  t[s]:  13612.09
	Linear fluid (dielectric constant: 78.4, screening length: 8.12261 Bohr) occupying 0.566766 of unit cell:	Completed after 9 iterations at t[s]:  13652.28
	Linear fluid (dielectric constant: 78.4, screening length: 8.12261 Bohr) occupying 0.566766 of unit cell:	Completed after 0 iterations at t[s]:  13681.26
	FillingsUpdate:  mu: -0.244750000  nElectrons: 378.667156  magneticMoment: [ Abs: 0.00000  Tot: -0.00000 ]
	SubspaceRotationAdjust: set factor to 0.0939
ElecMinimize: Iter:   8  G: -2859.289658535339186  |grad|_K:  9.171e-08  alpha:  4.715e-01  linmin: -8.892e-05  t[s]:  13728.35
	Linear fluid (dielectric constant: 78.4, screening length: 8.12261 Bohr) occupying 0.566762 of unit cell:	Completed after 2 iterations at t[s]:  13767.15
	Linear fluid (dielectric constant: 78.4, screening length: 8.12261 Bohr) occupying 0.566763 of unit cell:	Completed after 1 iterations at t[s]:  13796.67
	FillingsUpdate:  mu: -0.244750000  nElectrons: 378.667186  magneticMoment: [ Abs: 0.00000  Tot: -0.00000 ]
	SubspaceRotationAdjust: set factor to 0.0986
ElecMinimize: Iter:   9  G: -2859.289659545466293  |grad|_K:  6.245e-08  alpha:  3.925e-01  linmin:  1.269e-04  t[s]:  13843.60
	Linear fluid (dielectric constant: 78.4, screening length: 8.12261 Bohr) occupying 0.566762 of unit cell:	Completed after 2 iterations at t[s]:  13882.31
	Linear fluid (dielectric constant: 78.4, screening length: 8.12261 Bohr) occupying 0.566762 of unit cell:	Completed after 0 iterations at t[s]:  13911.54
	FillingsUpdate:  mu: -0.244750000  nElectrons: 378.667388  magneticMoment: [ Abs: 0.00000  Tot: -0.00000 ]
	SubspaceRotationAdjust: set factor to 0.104
ElecMinimize: Iter:  10  G: -2859.289660069863658  |grad|_K:  3.911e-08  alpha:  4.450e-01  linmin: -2.988e-04  t[s]:  13958.86
	Linear fluid (dielectric constant: 78.4, screening length: 8.12261 Bohr) occupying 0.566762 of unit cell:	Completed after 2 iterations at t[s]:  13997.73
	Linear fluid (dielectric constant: 78.4, screening length: 8.12261 Bohr) occupying 0.566762 of unit cell:	Completed after 0 iterations at t[s]:  14026.73
	FillingsUpdate:  mu: -0.244750000  nElectrons: 378.667387  magneticMoment: [ Abs: 0.00000  Tot: -0.00000 ]
	SubspaceRotationAdjust: set factor to 0.116
ElecMinimize: Iter:  11  G: -2859.289660275564074  |grad|_K:  2.738e-08  alpha:  4.386e-01  linmin: -2.932e-04  t[s]:  14073.67
	Linear fluid (dielectric constant: 78.4, screening length: 8.12261 Bohr) occupying 0.566762 of unit cell:	Completed after 2 iterations at t[s]:  14112.49
	Linear fluid (dielectric constant: 78.4, screening length: 8.12261 Bohr) occupying 0.566762 of unit cell:	Completed after 0 iterations at t[s]:  14141.50
	FillingsUpdate:  mu: -0.244750000  nElectrons: 378.667254  magneticMoment: [ Abs: 0.00000  Tot: -0.00000 ]
	SubspaceRotationAdjust: set factor to 0.136
ElecMinimize: Iter:  12  G: -2859.289660363668190  |grad|_K:  2.059e-08  alpha:  3.832e-01  linmin:  9.195e-04  t[s]:  14188.48
	Linear fluid (dielectric constant: 78.4, screening length: 8.12261 Bohr) occupying 0.566762 of unit cell:	Completed after 2 iterations at t[s]:  14227.28
	Linear fluid (dielectric constant: 78.4, screening length: 8.12261 Bohr) occupying 0.566762 of unit cell:	Completed after 0 iterations at t[s]:  14256.21
	FillingsUpdate:  mu: -0.244750000  nElectrons: 378.667144  magneticMoment: [ Abs: 0.00000  Tot: -0.00000 ]
	SubspaceRotationAdjust: set factor to 0.173
ElecMinimize: Iter:  13  G: -2859.289660412112880  |grad|_K:  1.514e-08  alpha:  3.858e-01  linmin: -1.591e-03  t[s]:  14303.15
ElecMinimize: Converged (|Delta G|<1.000000e-07 for 2 iters).
Setting wave functions to eigenvectors of Hamiltonian
Converging empty states (this may take a while): |deigs|: 2.628e-08

Computing DFT-D3 correction:
# coordination-number Ag 6.928 8.969 8.979 9.013 9.056 8.953 9.023 8.217 6.118 4.580 8.213 9.021 8.954 9.056 9.013 8.981 8.971 6.930 4.582 6.117
# diagonal-C6 Ag 268.61 268.61 268.61 268.61 268.61 268.61 268.61 268.61 268.61 268.61 268.61 268.61 268.61 268.61 268.61 268.61 268.61 268.61 268.61 268.61
EvdW_6 =   -0.124311
EvdW_8 =   -0.170999

# Ionic positions in cartesian coordinates:
ion Ag  -0.000254361558663   4.708570950214962  21.297459880693388 1
ion Ag  -0.000195913731679   9.632067254360203  18.923562972468307 1
ion Ag   0.000002028673856   2.339893804290733  16.403690448023358 1
ion Ag   0.000126545991579   7.273843472018181  13.988552711283528 1
ion Ag   0.000155161376310  12.124466285310993  11.491434139234181 1
ion Ag   0.000294100471645   4.896666329683021   9.079989388326789 1
ion Ag   0.000266589076964   9.784699769141607   6.612916960207088 1
ion Ag   0.000393846277328   2.497883928255471   4.057604662601417 1
ion Ag   0.000517120400662   7.465662856148914   1.740547251538149 1
ion Ag  -0.000756098542019  -0.154566138247670  23.776257195768459 1
ion Ag   3.832416576742828   1.135848075247908  20.183539914153588 1
ion Ag   3.832576467678012   5.975248325492211  17.627639700305583 1
ion Ag   3.832555706937994  10.863614800837167  15.160874574149345 1
ion Ag   3.832694788912557   3.634190296146303  12.749201151137411 1
ion Ag   3.832716401585121   8.486214938288102  10.251714814564327 1
ion Ag   3.832846465669163   1.299790914106690   7.837077172115840 1
ion Ag   3.833017068219545   6.124495171639852   5.317429093260407 1
ion Ag   3.833086878810001  11.044351632192612   2.943545761186974 1
ion Ag   3.833560607551916   3.785837503391762   0.465432946311505 1
ion Ag   3.832318019456871   8.286102831480967  22.501081262670393 1

# Forces in Cartesian coordinates:
force Ag   0.000006681987877   0.000130496499198   0.000007516723006 1
force Ag   0.000012502388171   0.000150268694220   0.000030030296220 1
force Ag   0.000016031428726  -0.000024580278441   0.000071085693004 1
force Ag   0.000017304133581  -0.000029100698698   0.000240101056378 1
force Ag   0.000017438667935   0.000006194350879  -0.000063676813227 1
force Ag   0.000016252794586   0.000001096413766  -0.000360681663590 1
force Ag   0.000012530189739  -0.000129380640695   0.000123778715385 1
force Ag   0.000008836222201   0.000064523847627  -0.000087778156576 1
force Ag   0.000004539945903  -0.000001141893803  -0.000095287306002 1
force Ag   0.000005552170835   0.000006180026570  -0.000078680130225 1
force Ag  -0.000008327288544  -0.000112637151409   0.000080346285913 1
force Ag  -0.000013157821265   0.000108677805266  -0.000120889978055 1
force Ag  -0.000017055008568  -0.000020463055779   0.000360001251239 1
force Ag  -0.000017607680214  -0.000026025279173   0.000059081193911 1
force Ag  -0.000017533058547   0.000023217471142  -0.000235738646339 1
force Ag  -0.000016589373594  -0.000008759113076  -0.000070706100270 1
force Ag  -0.000011882706279  -0.000174593905639  -0.000020873782054 1
force Ag  -0.000005741615495  -0.000144259111578  -0.000006954506033 1
force Ag  -0.000005417086642  -0.000000589815557   0.000076274009474 1
force Ag  -0.000004251929990   0.000004210406424   0.000105130152971 1

# Energy components:
   A_diel =        0.1187655784100472
   Eewald =    23896.7516189227681025
       EH =    26490.5163273470461718
     Eloc =   -53803.4240452340018237
      Enl =       79.0924105067819880
     EvdW =       -0.2953090702868946
      Exc =     -289.5424298804324508
 Exc_core =        4.1634163104844957
       KE =      670.5768306308091269
  MuShift =        0.0743746862048002
-------------------------------------
     Etot =    -2951.9680402022172530
       TS =        0.0004036686094846
-------------------------------------
        F =    -2951.9684438708268317
      muN =      -92.6787834587137951
-------------------------------------
        G =    -2859.2896604121128803


Dumping 'jdft.fillings' ... done
Dumping 'jdft.wfns' ... done
Dumping 'jdft.fluidState' ... done
Dumping 'jdft.ionpos' ... done
Dumping 'jdft.lattice' ... done
Dumping 'jdft.eigenvals' ... done
Dumping 'jdft.eigStats' ... 
	eMin: -3.629499 at state 0 ( [ +0.000000 +0.000000 +0.000000 ] spin 1 )
	HOMO: -0.244873 at state 26 ( [ +0.111111 +0.000000 +0.000000 ] spin -1 )
	mu  : -0.244750
	LUMO: -0.243192 at state 3 ( [ +0.111111 +0.000000 +0.000000 ] spin 1 )
	eMax: +0.130614 at state 31 ( [ +0.222222 +0.000000 +0.000000 ] spin -1 )
	HOMO-LUMO gap: +0.001681
	Optical gap  : +0.001681 at state 26 ( [ +0.111111 +0.000000 +0.000000 ] spin -1 )
Dumping 'jdft.Ecomponents' ... done
IonicMinimize: Iter:   4  G: -2859.289660412112880  |grad|_K:  1.008e-04  alpha:  1.000e+00  linmin: -7.791e-01  t[s]:  14416.74
IonicMinimize: Converged (|Delta G|<1.000000e-04 for 2 iters).

#--- Lowdin population analysis ---
# oxidation-state Ag +0.110 -0.035 +0.003 +0.000 +0.004 +0.004 -0.021 -0.023 +0.228 +0.457 -0.023 -0.021 +0.004 +0.004 +0.000 +0.003 -0.035 +0.111 +0.457 +0.228
# magnetic-moments Ag -0.000 -0.000 -0.000 -0.000 -0.000 -0.000 -0.000 -0.000 +0.000 -0.000 -0.000 -0.000 -0.000 -0.000 -0.000 -0.000 -0.000 -0.000 -0.000 +0.000


Dumping 'jdft.n_up' ... done
Dumping 'jdft.n_dn' ... done
Dumping 'jdft.tau_up' ... done
Dumping 'jdft.tau_dn' ... done
Dumping 'jdft.eigenvals' ... done
Dumping 'jdft.eigStats' ... 
	eMin: -3.629499 at state 0 ( [ +0.000000 +0.000000 +0.000000 ] spin 1 )
	HOMO: -0.244873 at state 26 ( [ +0.111111 +0.000000 +0.000000 ] spin -1 )
	mu  : -0.244750
	LUMO: -0.243192 at state 3 ( [ +0.111111 +0.000000 +0.000000 ] spin 1 )
	eMax: +0.130614 at state 31 ( [ +0.222222 +0.000000 +0.000000 ] spin -1 )
	HOMO-LUMO gap: +0.001681
	Optical gap  : +0.001681 at state 26 ( [ +0.111111 +0.000000 +0.000000 ] spin -1 )
Dumping 'jdft.kPts' ... done
Dumping 'jdft.kMap' ... done
Dumping 'jdft.dosUp' ... done.
Dumping 'jdft.dosDn' ... done.
End date and time: Fri Sep  9 12:28:20 2022  (Duration: 0-4:01:27.06)
Done!

PROFILER:             augmentDensityGrid     7.644754 +/-     0.117348 s,  226 calls,   1727.714444 s total
PROFILER:         augmentDensityGridGrad     0.423477 +/-     0.135614 s,  122 calls,     51.664145 s total
PROFILER:        augmentDensitySpherical     0.002853 +/-     0.000113 s,  226 calls,      0.644835 s total
PROFILER:    augmentDensitySphericalGrad     0.003168 +/-     0.000549 s,  138 calls,      0.437251 s total
PROFILER:                 augmentOverlap     3.135705 +/-     0.171977 s,  482 calls,   1511.409861 s total
PROFILER:                     diagouterI     6.957793 +/-     0.122933 s,  229 calls,   1593.334660 s total
PROFILER:              EdensityAndVscloc     3.529417 +/-     1.308662 s,  226 calls,    797.648210 s total
PROFILER:                     EnlAndGrad     0.013265 +/-     0.001349 s,  249 calls,      3.302924 s total
PROFILER:            ExCorrCommunication     0.045323 +/-     0.327337 s, 1435 calls,     65.038438 s total
PROFILER:               ExCorrFunctional     0.006543 +/-     0.001181 s,  248 calls,      1.622579 s total
PROFILER:                    ExCorrTotal     0.346046 +/-     0.752990 s,  248 calls,     85.819529 s total
PROFILER:                   Idag_DiagV_I    13.626715 +/-     1.503586 s,  131 calls,   1785.099694 s total
PROFILER:                    initWeights     2.112335 +/-     0.000000 s,    1 calls,      2.112335 s total
PROFILER:                    inv(matrix)     0.008067 +/-     0.000543 s,  223 calls,      1.798861 s total
PROFILER:            matrix::diagonalize     0.025591 +/-     0.015659 s,  356 calls,      9.110536 s total
PROFILER:                    matrix::set     0.000019 +/-     0.000013 s, 7836 calls,      0.145967 s total
PROFILER:            orthoMatrix(matrix)     0.004624 +/-     0.003666 s,  235 calls,      1.086749 s total
PROFILER:     RadialFunctionR::transform     0.117771 +/-     0.864412 s,   57 calls,      6.712927 s total
PROFILER:                    reduceKmesh     0.000034 +/-     0.000000 s,    1 calls,      0.000034 s total
PROFILER:   VanDerWaalsD3::energyAndGrad     0.009123 +/-     0.000366 s,   15 calls,      0.136846 s total
PROFILER:               WavefunctionDrag    19.273040 +/-     3.280167 s,    7 calls,    134.911280 s total
PROFILER:                            Y*M     1.083730 +/-     0.252039 s, 1562 calls,   1692.786544 s total
PROFILER:                          Y1^Y2     1.138082 +/-     0.272197 s, 1019 calls,   1159.705842 s total

MEMUSAGE:                   ColumnBundle     0.646882 GB
MEMUSAGE:        complexScalarFieldTilde     0.015450 GB
MEMUSAGE:                    IndexArrays     0.019785 GB
MEMUSAGE:                         matrix     0.036300 GB
MEMUSAGE:                           misc     0.015540 GB
MEMUSAGE:                    ScalarField     0.112009 GB
MEMUSAGE:               ScalarFieldTilde     0.081651 GB
MEMUSAGE:                          Total     0.758469 GB
