
*************** JDFTx 1.6.0  ***************

Start date and time: Wed Feb 16 14:13:05 2022
Executable /projects/musgravc/apps/jdftx-1.6.1/build/jdftx with command-line: -i in
Running on hosts (process indices):  shas0903.rc.int.colorado.edu (0-23)
Divided in process groups (process indices):  0 (0)  1 (1)  2 (2)  3 (3)  4 (4)  5 (5)  6 (6)  7 (7)  8 (8)  9 (9)  10 (10)  11 (11)  12 (12)  13 (13)  14 (14)  15 (15)  16 (16)  17 (17)  18 (18)  19 (19)  20 (20)  21 (21)  22 (22)  23 (23)
Resource initialization completed at t[s]:      0.00
Run totals: 24 processes, 24 threads, 0 GPUs


Input parsed successfully to the following command list (including defaults):

basis kpoint-dependent
converge-empty-states yes
coords-type Cartesian
core-overlap-check none
coulomb-interaction Periodic
davidson-band-ratio 1.1
density-of-states Etol 1.000000e-06 Esigma 1.000000e-03 \
		Complete \
	Total \
	OrthoOrbital Cu 1   s \
	OrthoOrbital Cu 1   p \
	OrthoOrbital Cu 1   px \
	OrthoOrbital Cu 1   py \
	OrthoOrbital Cu 1   pz \
	OrthoOrbital Cu 1   d \
	OrthoOrbital Cu 1   dxy \
	OrthoOrbital Cu 1   dyz \
	OrthoOrbital Cu 1   dz2 \
	OrthoOrbital Cu 1   dxz \
	OrthoOrbital Cu 1   dx2-y2 \
	OrthoOrbital Cu 2   s \
	OrthoOrbital Cu 2   p \
	OrthoOrbital Cu 2   px \
	OrthoOrbital Cu 2   py \
	OrthoOrbital Cu 2   pz \
	OrthoOrbital Cu 2   d \
	OrthoOrbital Cu 2   dxy \
	OrthoOrbital Cu 2   dyz \
	OrthoOrbital Cu 2   dz2 \
	OrthoOrbital Cu 2   dxz \
	OrthoOrbital Cu 2   dx2-y2 \
	OrthoOrbital Cu 3   s \
	OrthoOrbital Cu 3   p \
	OrthoOrbital Cu 3   px \
	OrthoOrbital Cu 3   py \
	OrthoOrbital Cu 3   pz \
	OrthoOrbital Cu 3   d \
	OrthoOrbital Cu 3   dxy \
	OrthoOrbital Cu 3   dyz \
	OrthoOrbital Cu 3   dz2 \
	OrthoOrbital Cu 3   dxz \
	OrthoOrbital Cu 3   dx2-y2 \
	OrthoOrbital Cu 4   s \
	OrthoOrbital Cu 4   p \
	OrthoOrbital Cu 4   px \
	OrthoOrbital Cu 4   py \
	OrthoOrbital Cu 4   pz \
	OrthoOrbital Cu 4   d \
	OrthoOrbital Cu 4   dxy \
	OrthoOrbital Cu 4   dyz \
	OrthoOrbital Cu 4   dz2 \
	OrthoOrbital Cu 4   dxz \
	OrthoOrbital Cu 4   dx2-y2 \
	OrthoOrbital Cu 5   s \
	OrthoOrbital Cu 5   p \
	OrthoOrbital Cu 5   px \
	OrthoOrbital Cu 5   py \
	OrthoOrbital Cu 5   pz \
	OrthoOrbital Cu 5   d \
	OrthoOrbital Cu 5   dxy \
	OrthoOrbital Cu 5   dyz \
	OrthoOrbital Cu 5   dz2 \
	OrthoOrbital Cu 5   dxz \
	OrthoOrbital Cu 5   dx2-y2 \
	OrthoOrbital Cu 6   s \
	OrthoOrbital Cu 6   p \
	OrthoOrbital Cu 6   px \
	OrthoOrbital Cu 6   py \
	OrthoOrbital Cu 6   pz \
	OrthoOrbital Cu 6   d \
	OrthoOrbital Cu 6   dxy \
	OrthoOrbital Cu 6   dyz \
	OrthoOrbital Cu 6   dz2 \
	OrthoOrbital Cu 6   dxz \
	OrthoOrbital Cu 6   dx2-y2 \
	OrthoOrbital Cu 7   s \
	OrthoOrbital Cu 7   p \
	OrthoOrbital Cu 7   px \
	OrthoOrbital Cu 7   py \
	OrthoOrbital Cu 7   pz \
	OrthoOrbital Cu 7   d \
	OrthoOrbital Cu 7   dxy \
	OrthoOrbital Cu 7   dyz \
	OrthoOrbital Cu 7   dz2 \
	OrthoOrbital Cu 7   dxz \
	OrthoOrbital Cu 7   dx2-y2 \
	OrthoOrbital Cu 8   s \
	OrthoOrbital Cu 8   p \
	OrthoOrbital Cu 8   px \
	OrthoOrbital Cu 8   py \
	OrthoOrbital Cu 8   pz \
	OrthoOrbital Cu 8   d \
	OrthoOrbital Cu 8   dxy \
	OrthoOrbital Cu 8   dyz \
	OrthoOrbital Cu 8   dz2 \
	OrthoOrbital Cu 8   dxz \
	OrthoOrbital Cu 8   dx2-y2 \
	OrthoOrbital Cu 9   s \
	OrthoOrbital Cu 9   p \
	OrthoOrbital Cu 9   px \
	OrthoOrbital Cu 9   py \
	OrthoOrbital Cu 9   pz \
	OrthoOrbital Cu 9   d \
	OrthoOrbital Cu 9   dxy \
	OrthoOrbital Cu 9   dyz \
	OrthoOrbital Cu 9   dz2 \
	OrthoOrbital Cu 9   dxz \
	OrthoOrbital Cu 9   dx2-y2 \
	OrthoOrbital Cu 10   s \
	OrthoOrbital Cu 10   p \
	OrthoOrbital Cu 10   px \
	OrthoOrbital Cu 10   py \
	OrthoOrbital Cu 10   pz \
	OrthoOrbital Cu 10   d \
	OrthoOrbital Cu 10   dxy \
	OrthoOrbital Cu 10   dyz \
	OrthoOrbital Cu 10   dz2 \
	OrthoOrbital Cu 10   dxz \
	OrthoOrbital Cu 10   dx2-y2 \
	OrthoOrbital Cu 11   s \
	OrthoOrbital Cu 11   p \
	OrthoOrbital Cu 11   px \
	OrthoOrbital Cu 11   py \
	OrthoOrbital Cu 11   pz \
	OrthoOrbital Cu 11   d \
	OrthoOrbital Cu 11   dxy \
	OrthoOrbital Cu 11   dyz \
	OrthoOrbital Cu 11   dz2 \
	OrthoOrbital Cu 11   dxz \
	OrthoOrbital Cu 11   dx2-y2 \
	OrthoOrbital Cu 12   s \
	OrthoOrbital Cu 12   p \
	OrthoOrbital Cu 12   px \
	OrthoOrbital Cu 12   py \
	OrthoOrbital Cu 12   pz \
	OrthoOrbital Cu 12   d \
	OrthoOrbital Cu 12   dxy \
	OrthoOrbital Cu 12   dyz \
	OrthoOrbital Cu 12   dz2 \
	OrthoOrbital Cu 12   dxz \
	OrthoOrbital Cu 12   dx2-y2 \
	OrthoOrbital Cu 13   s \
	OrthoOrbital Cu 13   p \
	OrthoOrbital Cu 13   px \
	OrthoOrbital Cu 13   py \
	OrthoOrbital Cu 13   pz \
	OrthoOrbital Cu 13   d \
	OrthoOrbital Cu 13   dxy \
	OrthoOrbital Cu 13   dyz \
	OrthoOrbital Cu 13   dz2 \
	OrthoOrbital Cu 13   dxz \
	OrthoOrbital Cu 13   dx2-y2 \
	OrthoOrbital Cu 14   s \
	OrthoOrbital Cu 14   p \
	OrthoOrbital Cu 14   px \
	OrthoOrbital Cu 14   py \
	OrthoOrbital Cu 14   pz \
	OrthoOrbital Cu 14   d \
	OrthoOrbital Cu 14   dxy \
	OrthoOrbital Cu 14   dyz \
	OrthoOrbital Cu 14   dz2 \
	OrthoOrbital Cu 14   dxz \
	OrthoOrbital Cu 14   dx2-y2 \
	OrthoOrbital Cu 15   s \
	OrthoOrbital Cu 15   p \
	OrthoOrbital Cu 15   px \
	OrthoOrbital Cu 15   py \
	OrthoOrbital Cu 15   pz \
	OrthoOrbital Cu 15   d \
	OrthoOrbital Cu 15   dxy \
	OrthoOrbital Cu 15   dyz \
	OrthoOrbital Cu 15   dz2 \
	OrthoOrbital Cu 15   dxz \
	OrthoOrbital Cu 15   dx2-y2 \
	OrthoOrbital Cu 16   s \
	OrthoOrbital Cu 16   p \
	OrthoOrbital Cu 16   px \
	OrthoOrbital Cu 16   py \
	OrthoOrbital Cu 16   pz \
	OrthoOrbital Cu 16   d \
	OrthoOrbital Cu 16   dxy \
	OrthoOrbital Cu 16   dyz \
	OrthoOrbital Cu 16   dz2 \
	OrthoOrbital Cu 16   dxz \
	OrthoOrbital Cu 16   dx2-y2 \
	OrthoOrbital Cu 17   s \
	OrthoOrbital Cu 17   p \
	OrthoOrbital Cu 17   px \
	OrthoOrbital Cu 17   py \
	OrthoOrbital Cu 17   pz \
	OrthoOrbital Cu 17   d \
	OrthoOrbital Cu 17   dxy \
	OrthoOrbital Cu 17   dyz \
	OrthoOrbital Cu 17   dz2 \
	OrthoOrbital Cu 17   dxz \
	OrthoOrbital Cu 17   dx2-y2 \
	OrthoOrbital Cu 18   s \
	OrthoOrbital Cu 18   p \
	OrthoOrbital Cu 18   px \
	OrthoOrbital Cu 18   py \
	OrthoOrbital Cu 18   pz \
	OrthoOrbital Cu 18   d \
	OrthoOrbital Cu 18   dxy \
	OrthoOrbital Cu 18   dyz \
	OrthoOrbital Cu 18   dz2 \
	OrthoOrbital Cu 18   dxz \
	OrthoOrbital Cu 18   dx2-y2 \
	OrthoOrbital Cu 19   s \
	OrthoOrbital Cu 19   p \
	OrthoOrbital Cu 19   px \
	OrthoOrbital Cu 19   py \
	OrthoOrbital Cu 19   pz \
	OrthoOrbital Cu 19   d \
	OrthoOrbital Cu 19   dxy \
	OrthoOrbital Cu 19   dyz \
	OrthoOrbital Cu 19   dz2 \
	OrthoOrbital Cu 19   dxz \
	OrthoOrbital Cu 19   dx2-y2 \
	OrthoOrbital Cu 20   s \
	OrthoOrbital Cu 20   p \
	OrthoOrbital Cu 20   px \
	OrthoOrbital Cu 20   py \
	OrthoOrbital Cu 20   pz \
	OrthoOrbital Cu 20   d \
	OrthoOrbital Cu 20   dxy \
	OrthoOrbital Cu 20   dyz \
	OrthoOrbital Cu 20   dz2 \
	OrthoOrbital Cu 20   dxz \
	OrthoOrbital Cu 20   dx2-y2 \
	OrthoOrbital Cu 21   s \
	OrthoOrbital Cu 21   p \
	OrthoOrbital Cu 21   px \
	OrthoOrbital Cu 21   py \
	OrthoOrbital Cu 21   pz \
	OrthoOrbital Cu 21   d \
	OrthoOrbital Cu 21   dxy \
	OrthoOrbital Cu 21   dyz \
	OrthoOrbital Cu 21   dz2 \
	OrthoOrbital Cu 21   dxz \
	OrthoOrbital Cu 21   dx2-y2 \
	OrthoOrbital Cu 22   s \
	OrthoOrbital Cu 22   p \
	OrthoOrbital Cu 22   px \
	OrthoOrbital Cu 22   py \
	OrthoOrbital Cu 22   pz \
	OrthoOrbital Cu 22   d \
	OrthoOrbital Cu 22   dxy \
	OrthoOrbital Cu 22   dyz \
	OrthoOrbital Cu 22   dz2 \
	OrthoOrbital Cu 22   dxz \
	OrthoOrbital Cu 22   dx2-y2 \
	OrthoOrbital Cu 23   s \
	OrthoOrbital Cu 23   p \
	OrthoOrbital Cu 23   px \
	OrthoOrbital Cu 23   py \
	OrthoOrbital Cu 23   pz \
	OrthoOrbital Cu 23   d \
	OrthoOrbital Cu 23   dxy \
	OrthoOrbital Cu 23   dyz \
	OrthoOrbital Cu 23   dz2 \
	OrthoOrbital Cu 23   dxz \
	OrthoOrbital Cu 23   dx2-y2 \
	OrthoOrbital Cu 24   s \
	OrthoOrbital Cu 24   p \
	OrthoOrbital Cu 24   px \
	OrthoOrbital Cu 24   py \
	OrthoOrbital Cu 24   pz \
	OrthoOrbital Cu 24   d \
	OrthoOrbital Cu 24   dxy \
	OrthoOrbital Cu 24   dyz \
	OrthoOrbital Cu 24   dz2 \
	OrthoOrbital Cu 24   dxz \
	OrthoOrbital Cu 24   dx2-y2 \
	OrthoOrbital Cu 25   s \
	OrthoOrbital Cu 25   p \
	OrthoOrbital Cu 25   px \
	OrthoOrbital Cu 25   py \
	OrthoOrbital Cu 25   pz \
	OrthoOrbital Cu 25   d \
	OrthoOrbital Cu 25   dxy \
	OrthoOrbital Cu 25   dyz \
	OrthoOrbital Cu 25   dz2 \
	OrthoOrbital Cu 25   dxz \
	OrthoOrbital Cu 25   dx2-y2 \
	OrthoOrbital Cu 26   s \
	OrthoOrbital Cu 26   p \
	OrthoOrbital Cu 26   px \
	OrthoOrbital Cu 26   py \
	OrthoOrbital Cu 26   pz \
	OrthoOrbital Cu 26   d \
	OrthoOrbital Cu 26   dxy \
	OrthoOrbital Cu 26   dyz \
	OrthoOrbital Cu 26   dz2 \
	OrthoOrbital Cu 26   dxz \
	OrthoOrbital Cu 26   dx2-y2 \
	OrthoOrbital Cu 27   s \
	OrthoOrbital Cu 27   p \
	OrthoOrbital Cu 27   px \
	OrthoOrbital Cu 27   py \
	OrthoOrbital Cu 27   pz \
	OrthoOrbital Cu 27   d \
	OrthoOrbital Cu 27   dxy \
	OrthoOrbital Cu 27   dyz \
	OrthoOrbital Cu 27   dz2 \
	OrthoOrbital Cu 27   dxz \
	OrthoOrbital Cu 27   dx2-y2 \
	OrthoOrbital Cu 28   s \
	OrthoOrbital Cu 28   p \
	OrthoOrbital Cu 28   px \
	OrthoOrbital Cu 28   py \
	OrthoOrbital Cu 28   pz \
	OrthoOrbital Cu 28   d \
	OrthoOrbital Cu 28   dxy \
	OrthoOrbital Cu 28   dyz \
	OrthoOrbital Cu 28   dz2 \
	OrthoOrbital Cu 28   dxz \
	OrthoOrbital Cu 28   dx2-y2 \
	OrthoOrbital Cu 29   s \
	OrthoOrbital Cu 29   p \
	OrthoOrbital Cu 29   px \
	OrthoOrbital Cu 29   py \
	OrthoOrbital Cu 29   pz \
	OrthoOrbital Cu 29   d \
	OrthoOrbital Cu 29   dxy \
	OrthoOrbital Cu 29   dyz \
	OrthoOrbital Cu 29   dz2 \
	OrthoOrbital Cu 29   dxz \
	OrthoOrbital Cu 29   dx2-y2 \
	OrthoOrbital Cu 30   s \
	OrthoOrbital Cu 30   p \
	OrthoOrbital Cu 30   px \
	OrthoOrbital Cu 30   py \
	OrthoOrbital Cu 30   pz \
	OrthoOrbital Cu 30   d \
	OrthoOrbital Cu 30   dxy \
	OrthoOrbital Cu 30   dyz \
	OrthoOrbital Cu 30   dz2 \
	OrthoOrbital Cu 30   dxz \
	OrthoOrbital Cu 30   dx2-y2 \
	OrthoOrbital Cu 31   s \
	OrthoOrbital Cu 31   p \
	OrthoOrbital Cu 31   px \
	OrthoOrbital Cu 31   py \
	OrthoOrbital Cu 31   pz \
	OrthoOrbital Cu 31   d \
	OrthoOrbital Cu 31   dxy \
	OrthoOrbital Cu 31   dyz \
	OrthoOrbital Cu 31   dz2 \
	OrthoOrbital Cu 31   dxz \
	OrthoOrbital Cu 31   dx2-y2 \
	OrthoOrbital Cu 32   s \
	OrthoOrbital Cu 32   p \
	OrthoOrbital Cu 32   px \
	OrthoOrbital Cu 32   py \
	OrthoOrbital Cu 32   pz \
	OrthoOrbital Cu 32   d \
	OrthoOrbital Cu 32   dxy \
	OrthoOrbital Cu 32   dyz \
	OrthoOrbital Cu 32   dz2 \
	OrthoOrbital Cu 32   dxz \
	OrthoOrbital Cu 32   dx2-y2 \
	OrthoOrbital Cu 33   s \
	OrthoOrbital Cu 33   p \
	OrthoOrbital Cu 33   px \
	OrthoOrbital Cu 33   py \
	OrthoOrbital Cu 33   pz \
	OrthoOrbital Cu 33   d \
	OrthoOrbital Cu 33   dxy \
	OrthoOrbital Cu 33   dyz \
	OrthoOrbital Cu 33   dz2 \
	OrthoOrbital Cu 33   dxz \
	OrthoOrbital Cu 33   dx2-y2 \
	OrthoOrbital Cu 34   s \
	OrthoOrbital Cu 34   p \
	OrthoOrbital Cu 34   px \
	OrthoOrbital Cu 34   py \
	OrthoOrbital Cu 34   pz \
	OrthoOrbital Cu 34   d \
	OrthoOrbital Cu 34   dxy \
	OrthoOrbital Cu 34   dyz \
	OrthoOrbital Cu 34   dz2 \
	OrthoOrbital Cu 34   dxz \
	OrthoOrbital Cu 34   dx2-y2 \
	OrthoOrbital Cu 35   s \
	OrthoOrbital Cu 35   p \
	OrthoOrbital Cu 35   px \
	OrthoOrbital Cu 35   py \
	OrthoOrbital Cu 35   pz \
	OrthoOrbital Cu 35   d \
	OrthoOrbital Cu 35   dxy \
	OrthoOrbital Cu 35   dyz \
	OrthoOrbital Cu 35   dz2 \
	OrthoOrbital Cu 35   dxz \
	OrthoOrbital Cu 35   dx2-y2 \
	OrthoOrbital Cu 36   s \
	OrthoOrbital Cu 36   p \
	OrthoOrbital Cu 36   px \
	OrthoOrbital Cu 36   py \
	OrthoOrbital Cu 36   pz \
	OrthoOrbital Cu 36   d \
	OrthoOrbital Cu 36   dxy \
	OrthoOrbital Cu 36   dyz \
	OrthoOrbital Cu 36   dz2 \
	OrthoOrbital Cu 36   dxz \
	OrthoOrbital Cu 36   dx2-y2 \
	OrthoOrbital Cu 37   s \
	OrthoOrbital Cu 37   p \
	OrthoOrbital Cu 37   px \
	OrthoOrbital Cu 37   py \
	OrthoOrbital Cu 37   pz \
	OrthoOrbital Cu 37   d \
	OrthoOrbital Cu 37   dxy \
	OrthoOrbital Cu 37   dyz \
	OrthoOrbital Cu 37   dz2 \
	OrthoOrbital Cu 37   dxz \
	OrthoOrbital Cu 37   dx2-y2 \
	OrthoOrbital Cu 38   s \
	OrthoOrbital Cu 38   p \
	OrthoOrbital Cu 38   px \
	OrthoOrbital Cu 38   py \
	OrthoOrbital Cu 38   pz \
	OrthoOrbital Cu 38   d \
	OrthoOrbital Cu 38   dxy \
	OrthoOrbital Cu 38   dyz \
	OrthoOrbital Cu 38   dz2 \
	OrthoOrbital Cu 38   dxz \
	OrthoOrbital Cu 38   dx2-y2 \
	OrthoOrbital Cu 39   s \
	OrthoOrbital Cu 39   p \
	OrthoOrbital Cu 39   px \
	OrthoOrbital Cu 39   py \
	OrthoOrbital Cu 39   pz \
	OrthoOrbital Cu 39   d \
	OrthoOrbital Cu 39   dxy \
	OrthoOrbital Cu 39   dyz \
	OrthoOrbital Cu 39   dz2 \
	OrthoOrbital Cu 39   dxz \
	OrthoOrbital Cu 39   dx2-y2 \
	OrthoOrbital Cu 40   s \
	OrthoOrbital Cu 40   p \
	OrthoOrbital Cu 40   px \
	OrthoOrbital Cu 40   py \
	OrthoOrbital Cu 40   pz \
	OrthoOrbital Cu 40   d \
	OrthoOrbital Cu 40   dxy \
	OrthoOrbital Cu 40   dyz \
	OrthoOrbital Cu 40   dz2 \
	OrthoOrbital Cu 40   dxz \
	OrthoOrbital Cu 40   dx2-y2 \
	OrthoOrbital Cu 41   s \
	OrthoOrbital Cu 41   p \
	OrthoOrbital Cu 41   px \
	OrthoOrbital Cu 41   py \
	OrthoOrbital Cu 41   pz \
	OrthoOrbital Cu 41   d \
	OrthoOrbital Cu 41   dxy \
	OrthoOrbital Cu 41   dyz \
	OrthoOrbital Cu 41   dz2 \
	OrthoOrbital Cu 41   dxz \
	OrthoOrbital Cu 41   dx2-y2 \
	OrthoOrbital Cu 42   s \
	OrthoOrbital Cu 42   p \
	OrthoOrbital Cu 42   px \
	OrthoOrbital Cu 42   py \
	OrthoOrbital Cu 42   pz \
	OrthoOrbital Cu 42   d \
	OrthoOrbital Cu 42   dxy \
	OrthoOrbital Cu 42   dyz \
	OrthoOrbital Cu 42   dz2 \
	OrthoOrbital Cu 42   dxz \
	OrthoOrbital Cu 42   dx2-y2 \
	OrthoOrbital Cu 43   s \
	OrthoOrbital Cu 43   p \
	OrthoOrbital Cu 43   px \
	OrthoOrbital Cu 43   py \
	OrthoOrbital Cu 43   pz \
	OrthoOrbital Cu 43   d \
	OrthoOrbital Cu 43   dxy \
	OrthoOrbital Cu 43   dyz \
	OrthoOrbital Cu 43   dz2 \
	OrthoOrbital Cu 43   dxz \
	OrthoOrbital Cu 43   dx2-y2 \
	OrthoOrbital Cu 44   s \
	OrthoOrbital Cu 44   p \
	OrthoOrbital Cu 44   px \
	OrthoOrbital Cu 44   py \
	OrthoOrbital Cu 44   pz \
	OrthoOrbital Cu 44   d \
	OrthoOrbital Cu 44   dxy \
	OrthoOrbital Cu 44   dyz \
	OrthoOrbital Cu 44   dz2 \
	OrthoOrbital Cu 44   dxz \
	OrthoOrbital Cu 44   dx2-y2 \
	OrthoOrbital Cu 45   s \
	OrthoOrbital Cu 45   p \
	OrthoOrbital Cu 45   px \
	OrthoOrbital Cu 45   py \
	OrthoOrbital Cu 45   pz \
	OrthoOrbital Cu 45   d \
	OrthoOrbital Cu 45   dxy \
	OrthoOrbital Cu 45   dyz \
	OrthoOrbital Cu 45   dz2 \
	OrthoOrbital Cu 45   dxz \
	OrthoOrbital Cu 45   dx2-y2 \
	OrthoOrbital Cu 46   s \
	OrthoOrbital Cu 46   p \
	OrthoOrbital Cu 46   px \
	OrthoOrbital Cu 46   py \
	OrthoOrbital Cu 46   pz \
	OrthoOrbital Cu 46   d \
	OrthoOrbital Cu 46   dxy \
	OrthoOrbital Cu 46   dyz \
	OrthoOrbital Cu 46   dz2 \
	OrthoOrbital Cu 46   dxz \
	OrthoOrbital Cu 46   dx2-y2 \
	OrthoOrbital Cu 47   s \
	OrthoOrbital Cu 47   p \
	OrthoOrbital Cu 47   px \
	OrthoOrbital Cu 47   py \
	OrthoOrbital Cu 47   pz \
	OrthoOrbital Cu 47   d \
	OrthoOrbital Cu 47   dxy \
	OrthoOrbital Cu 47   dyz \
	OrthoOrbital Cu 47   dz2 \
	OrthoOrbital Cu 47   dxz \
	OrthoOrbital Cu 47   dx2-y2 \
	OrthoOrbital Cu 48   s \
	OrthoOrbital Cu 48   p \
	OrthoOrbital Cu 48   px \
	OrthoOrbital Cu 48   py \
	OrthoOrbital Cu 48   pz \
	OrthoOrbital Cu 48   d \
	OrthoOrbital Cu 48   dxy \
	OrthoOrbital Cu 48   dyz \
	OrthoOrbital Cu 48   dz2 \
	OrthoOrbital Cu 48   dxz \
	OrthoOrbital Cu 48   dx2-y2 \
	OrthoOrbital C 1   s \
	OrthoOrbital C 1   p \
	OrthoOrbital C 1   px \
	OrthoOrbital C 1   py \
	OrthoOrbital C 1   pz \
	OrthoOrbital O 1   s \
	OrthoOrbital O 1   p \
	OrthoOrbital O 1   px \
	OrthoOrbital O 1   py \
	OrthoOrbital O 1   pz
dump End ElecDensity KEdensity BandEigs EigStats RhoAtom DOS Kpoints
dump Ionic State IonicPositions Lattice EigStats Ecomponents
dump 
dump 
dump 
dump 
dump 
dump 
dump 
dump 
dump-name jdft.$VAR
elec-cutoff 20
elec-eigen-algo Davidson
elec-ex-corr gga-PBE
elec-initial-magnetization 0.000000 no
elec-n-bands 554
elec-smearing Fermi 0.001
electronic-minimize  \
	dirUpdateScheme      FletcherReeves \
	linminMethod         DirUpdateRecommended \
	nIterations          100 \
	history              15 \
	knormThreshold       0 \
	energyDiffThreshold  1e-07 \
	nEnergyDiff          2 \
	alphaTstart          1 \
	alphaTmin            1e-10 \
	updateTestStepSize   yes \
	alphaTreduceFactor   0.1 \
	alphaTincreaseFactor 3 \
	nAlphaAdjustMax      3 \
	wolfeEnergy          0.0001 \
	wolfeGradient        0.9 \
	fdTest               no
exchange-regularization WignerSeitzTruncated
fluid LinearPCM 298.000000 1.013250
fluid-anion F- 0.5 MeanFieldLJ \
	epsBulk 1 \
	pMol 0 \
	epsInf 1 \
	Pvap 0 \
	sigmaBulk 0 \
	Rvdw 2.24877 \
	Res 0 \
	tauNuc 343133
fluid-cation Na+ 0.5 MeanFieldLJ \
	epsBulk 1 \
	pMol 0 \
	epsInf 1 \
	Pvap 0 \
	sigmaBulk 0 \
	Rvdw 2.19208 \
	Res 0 \
	tauNuc 343133
fluid-ex-corr lda-TF lda-PZ
fluid-gummel-loop 10 1.000000e-05
fluid-minimize  \
	dirUpdateScheme      PolakRibiere \
	linminMethod         DirUpdateRecommended \
	nIterations          400 \
	history              15 \
	knormThreshold       1e-11 \
	energyDiffThreshold  0 \
	nEnergyDiff          2 \
	alphaTstart          1 \
	alphaTmin            1e-10 \
	updateTestStepSize   yes \
	alphaTreduceFactor   0.1 \
	alphaTincreaseFactor 3 \
	nAlphaAdjustMax      6 \
	wolfeEnergy          0.0001 \
	wolfeGradient        0.9 \
	fdTest               no
fluid-solvent H2O 55.338 ScalarEOS \
	epsBulk 78.4 \
	pMol 0.92466 \
	epsInf 1.77 \
	Pvap 1.06736e-10 \
	sigmaBulk 4.62e-05 \
	Rvdw 2.61727 \
	Res 1.42 \
	tauNuc 343133 \
	poleEl 15 7 1
forces-output-coords Positions
ion Cu   9.533169000000001   0.029049000000000  15.714320000000001 0
ion Cu   9.533169000000001  11.704867999999999  15.714320000000001 0
ion Cu   4.766546000000001   0.029049000000000  15.714320000000001 0
ion Cu   4.766546000000001  11.704867999999999  15.714320000000001 0
ion Cu   0.000000000000000   3.882763000000000   2.011863000000000 0
ion Cu   0.000000000000000  15.558558000000000   2.011863000000000 0
ion Cu   4.766623000000001   3.882763000000000   2.011863000000000 0
ion Cu   4.766623000000001  15.558558000000000   2.011863000000000 0
ion Cu   0.000048000000000   7.846205000000000   4.822845000000000 0
ion Cu   0.000048000000000  19.521999999999998   4.822845000000000 0
ion Cu   4.766661000000001   7.846205000000000   4.822845000000000 0
ion Cu   4.766661000000001  19.521999999999998   4.822845000000000 0
ion Cu   0.000019000000000   0.010648000000000   7.572401000000000 0
ion Cu   0.000019000000000  11.686444000000000   7.572401000000000 0
ion Cu   4.766642000000000   0.010648000000000   7.572401000000000 0
ion Cu   4.766642000000000  11.686444000000000   7.572401000000000 0
ion Cu   0.000048000000000   3.891052000000000  10.322502999999999 0
ion Cu   0.000048000000000  15.566848000000002  10.322502999999999 0
ion Cu   4.766661000000001   3.891052000000000  10.322502999999999 0
ion Cu   4.766661000000001  15.566848000000002  10.322502999999999 0
ion Cu   9.533188000000003   7.731151000000000  13.180692000000001 0
ion Cu   9.533188000000003  19.406946999999999  13.180692000000001 0
ion Cu   4.766565000000001   7.731151000000000  13.180692000000001 0
ion Cu   4.766565000000001  19.406946999999999  13.180692000000001 0
ion Cu   2.383292000000000   0.052658000000000   3.331310000000000 0
ion Cu   2.383292000000000  11.728453999999999   3.331310000000000 0
ion Cu   7.149905000000001   0.052658000000000   3.331310000000000 0
ion Cu   7.149905000000001  11.728453999999999   3.331310000000000 0
ion Cu   2.383321000000000   3.893061000000000   6.189945000000000 0
ion Cu   2.383321000000000  15.568833000000000   6.189945000000000 0
ion Cu   7.149943000000000   3.893061000000000   6.189945000000000 0
ion Cu   7.149943000000000  15.568833000000000   6.189945000000000 0
ion Cu   2.383359000000000   7.773301000000000   8.939650000000000 0
ion Cu   2.383359000000000  19.449120000000001   8.939650000000000 0
ion Cu   7.149981000000001   7.773301000000000   8.939650000000000 0
ion Cu   7.149981000000001  19.449120000000001   8.939650000000000 0
ion Cu   2.383292000000000  23.288868999999998  11.688513000000000 0
ion Cu   2.383292000000000  11.613097000000000  11.688513000000000 0
ion Cu   7.149905000000001  23.288868999999998  11.688513000000000 0
ion Cu   7.149905000000001  11.613097000000000  11.688513000000000 0
ion Cu   2.383302000000000   3.900837000000000  14.500237000000000 0
ion Cu   2.383302000000000  15.576631999999998  14.500237000000000 0
ion Cu   7.149924000000001   3.900837000000000  14.500237000000000 0
ion Cu   7.149924000000001  15.576631999999998  14.500237000000000 0
ion Cu   2.383321000000000   7.755134000000001   0.798177000000000 0
ion Cu   2.383321000000000  19.430952999999999   0.798177000000000 0
ion Cu   7.149943000000000   7.755134000000001   0.798177000000000 0
ion Cu   7.149943000000000  19.430952999999999   0.798177000000000 0
ion C   4.766594000000001   6.502180999999999  16.702914000000000 1  Linear 0 0 1
ion O   4.826682000000001   6.502180999999999  18.858284000000001 1  Linear 0 0 1
ion-species /projects/musgravc/apps/jdftx-1.6.0/build/pseudopotentials/GBRV_v1.5/$ID_pbe_v1.uspp
ion-species /projects/musgravc/apps/jdftx-1.6.0/build/pseudopotentials/GBRV_v1.5/$ID_pbe_v1.2.uspp
ion-species /projects/musgravc/apps/jdftx-1.6.0/build/pseudopotentials/GBRV_v1.5/$ID_pbe_v1.4.uspp
ion-species /projects/musgravc/apps/jdftx-1.6.0/build/pseudopotentials/GBRV_v1.5/$ID_pbe_v1.5.uspp
ion-width Ecut
ionic-minimize  \
	dirUpdateScheme      L-BFGS \
	linminMethod         DirUpdateRecommended \
	nIterations          100 \
	history              15 \
	knormThreshold       0.0001 \
	energyDiffThreshold  1e-06 \
	nEnergyDiff          2 \
	alphaTstart          1 \
	alphaTmin            1e-10 \
	updateTestStepSize   yes \
	alphaTreduceFactor   0.1 \
	alphaTincreaseFactor 3 \
	nAlphaAdjustMax      3 \
	wolfeEnergy          0.0001 \
	wolfeGradient        0.9 \
	fdTest               no
kpoint   0.000000000000   0.000000000000   0.000000000000  1.00000000000000
kpoint-folding 6 2 1 
latt-move-scale 0 0 0
latt-scale 1 1 1 
lattice  \
	   9.533245000000001    0.000000000000000    0.000000000000000  \
	   0.000000000000000   23.351590999999999    0.000000000000000  \
	   0.000000000000000    0.000000000000000   49.536203999999998 
lattice-minimize  \
	dirUpdateScheme      L-BFGS \
	linminMethod         DirUpdateRecommended \
	nIterations          0 \
	history              15 \
	knormThreshold       0 \
	energyDiffThreshold  1e-06 \
	nEnergyDiff          2 \
	alphaTstart          1 \
	alphaTmin            1e-10 \
	updateTestStepSize   yes \
	alphaTreduceFactor   0.1 \
	alphaTincreaseFactor 3 \
	nAlphaAdjustMax      3 \
	wolfeEnergy          0.0001 \
	wolfeGradient        0.9 \
	fdTest               no
lcao-params 30 1e-06 0.001
pcm-variant CANDLE
spintype z-spin
subspace-rotation-factor 1 yes
symmetries automatic
symmetry-threshold 0.0001
van-der-waals D3



---------- Setting up symmetries ----------

Found 8 point-group symmetries of the bravais lattice
Found 1 space-group symmetries with basis
Applied RMS atom displacement 0 bohrs to make symmetries exact.

---------- Initializing the Grid ----------
R = 
[      9.53325            0            0  ]
[            0      23.3516            0  ]
[            0            0      49.5362  ]
unit cell volume = 11027.6
G =
[   0.659081          0          0  ]
[          0   0.269069          0  ]
[          0          0    0.12684  ]
Minimum fftbox size, Smin = [  40  96  200  ]
Chosen fftbox size, S = [  40  96  200  ]

---------- Exchange Correlation functional ----------
Initalized PBE GGA exchange.
Initalized PBE GGA correlation.

---------- Setting up pseudopotentials ----------
Width of ionic core gaussian charges (only for fluid interactions / plotting) set to 0.397384

Reading pseudopotential file '/projects/musgravc/apps/jdftx-1.6.0/build/pseudopotentials/GBRV_v1.5/cu_pbe_v1.2.uspp':
  Title: Cu.  Created by USPP 7.3.6 on 3-2-2014
  Reference state energy: -201.059491.  19 valence electrons in orbitals:
    |300>  occupation: 2  eigenvalue: -5.020764
    |310>  occupation: 6  eigenvalue: -3.445588
    |320>  occupation: 8  eigenvalue: -0.925168
    |400>  occupation: 2  eigenvalue: -0.567638
    |410>  occupation: 0  eigenvalue: -0.326154
  lMax: 2  lLocal: 3  QijEcut: 6
  6 projectors sampled on a log grid with 613 points:
    l: 0  eig: -5.020767  rCut: 1.4
    l: 0  eig: -0.567640  rCut: 1.4
    l: 1  eig: -3.445589  rCut: 1.55
    l: 1  eig: -0.326157  rCut: 1.55
    l: 2  eig: -0.925170  rCut: 1.5
    l: 2  eig: 1.500000  rCut: 1.5
  Partial core density with radius 0.8
  Transforming core density to a uniform radial grid of dG=0.02 with 1125 points.
  Transforming local potential to a uniform radial grid of dG=0.02 with 1125 points.
  Transforming nonlocal projectors to a uniform radial grid of dG=0.02 with 432 points.
  Transforming density augmentations to a uniform radial grid of dG=0.02 with 1125 points.
  Transforming atomic orbitals to a uniform radial grid of dG=0.02 with 432 points.
  Core radius for overlap checks: 1.55 bohrs.

Reading pseudopotential file '/projects/musgravc/apps/jdftx-1.6.0/build/pseudopotentials/GBRV_v1.5/c_pbe_v1.2.uspp':
  Title: C.  Created by USPP 7.3.6 on 3-2-2014
  Reference state energy: -5.406344.  4 valence electrons in orbitals:
    |200>  occupation: 2  eigenvalue: -0.504890
    |210>  occupation: 2  eigenvalue: -0.194356
  lMax: 1  lLocal: 2  QijEcut: 5
  4 projectors sampled on a log grid with 503 points:
    l: 0  eig: -0.504890  rCut: 1.3
    l: 0  eig: 0.000000  rCut: 1.3
    l: 1  eig: -0.194357  rCut: 1.3
    l: 1  eig: 0.000000  rCut: 1.3
  Partial core density with radius 1.1
  Transforming core density to a uniform radial grid of dG=0.02 with 1125 points.
  Transforming local potential to a uniform radial grid of dG=0.02 with 1125 points.
  Transforming nonlocal projectors to a uniform radial grid of dG=0.02 with 432 points.
  Transforming density augmentations to a uniform radial grid of dG=0.02 with 1125 points.
  Transforming atomic orbitals to a uniform radial grid of dG=0.02 with 432 points.
  Core radius for overlap checks: 1.30 bohrs.

Reading pseudopotential file '/projects/musgravc/apps/jdftx-1.6.0/build/pseudopotentials/GBRV_v1.5/o_pbe_v1.2.uspp':
  Title: O.  Created by USPP 7.3.6 on 3-2-2014
  Reference state energy: -15.894388.  6 valence electrons in orbitals:
    |200>  occupation: 2  eigenvalue: -0.878823
    |210>  occupation: 4  eigenvalue: -0.332131
  lMax: 2  lLocal: 2  QijEcut: 6
  5 projectors sampled on a log grid with 511 points:
    l: 0  eig: -0.878823  rCut: 1.25
    l: 0  eig: 0.000000  rCut: 1.25
    l: 1  eig: -0.332132  rCut: 1.25
    l: 1  eig: 0.000000  rCut: 1.25
    l: 2  eig: 1.000000  rCut: 1.25
  Partial core density with radius 0.7
  Transforming core density to a uniform radial grid of dG=0.02 with 1125 points.
  Transforming local potential to a uniform radial grid of dG=0.02 with 1125 points.
  Transforming nonlocal projectors to a uniform radial grid of dG=0.02 with 432 points.
  Transforming density augmentations to a uniform radial grid of dG=0.02 with 1125 points.
  Transforming atomic orbitals to a uniform radial grid of dG=0.02 with 432 points.
  Core radius for overlap checks: 1.25 bohrs.

Initialized 3 species with 50 total atoms.

Folded 1 k-points by 6x2x1 to 12 k-points.

---------- Setting up k-points, bands, fillings ----------
Adding inversion symmetry to k-mesh for non-inversion-symmetric unit cell.
Reduced to 8 k-points under symmetry. 
Computing the number of bands and number of electrons
Calculating initial fillings.
nElectrons: 922.000000   nBands: 554   nStates: 16

----- Setting up reduced wavefunction bases (one per k-point) -----
average nbasis = 47121.583 , ideal nbasis = 47110.633

----- Initializing Supercell corresponding to k-point mesh -----
Lattice vector linear combinations in supercell:
[   6   0   0  ]
[   0   2   0  ]
[   0   0   1  ]
Supercell lattice vectors:
[  57.1995  0  0  ]
[  0  46.7032  0  ]
[  0  0  49.5362  ]

Initializing DFT-D3 calculator:
	Parameters set for gga-PBE functional
	s6:  1.000  s_r6:  1.217
	s8:  0.722  s_r8:  1.000
	Per-atom parameters loaded for:
	Cu:  sqrtQ[a0]:  5.226  Rcov[a0]:  1.909  CN: [ 0.00 0.96 ]
	 C:  sqrtQ[a0]:  3.105  Rcov[a0]:  1.417  CN: [ 0.00 0.99 2.00 3.00 3.98 ]
	 O:  sqrtQ[a0]:  2.594  Rcov[a0]:  1.191  CN: [ 0.00 0.99 1.99 ]

Initializing DFT-D2 calculator for fluid / solvation:
	Cu:  C6:  187.33 Eh-a0^6  R0: 2.952 a0
	 C:  C6:   30.35 Eh-a0^6  R0: 2.744 a0
	 O:  C6:   12.14 Eh-a0^6  R0: 2.536 a0

---------- Setting up ewald sum ----------
Optimum gaussian width for ewald sums = 4.626384 bohr.
Real space sum over 455 unit cells with max indices [  6  3  2  ]
Reciprocal space sum over 7733 terms with max indices [  5  9  18  ]

Computing DFT-D3 correction:
# coordination-number Cu 5.566 5.570 5.571 5.639 6.865 6.865 6.865 6.865 9.103 9.103 9.103 9.103 9.045 9.045 9.045 9.045 9.020 9.019 9.023 9.019 7.578 7.549 8.512 7.549 7.549 7.549 7.549 7.549 9.019 9.019 9.019 9.019 9.046 9.045 9.046 9.045 9.104 9.105 9.104 9.105 7.623 6.866 7.625 6.866 5.565 5.565 5.565 5.565
# coordination-number C 3.564
# coordination-number O 1.054
# diagonal-C6 Cu 175.00 175.00 175.00 175.00 175.00 175.00 175.00 175.00 175.00 175.00 175.00 175.00 175.00 175.00 175.00 175.00 175.00 175.00 175.00 175.00 175.00 175.00 175.00 175.00 175.00 175.00 175.00 175.00 175.00 175.00 175.00 175.00 175.00 175.00 175.00 175.00 175.00 175.00 175.00 175.00 175.00 175.00 175.00 175.00 175.00 175.00 175.00 175.00
# diagonal-C6 C 20.74
# diagonal-C6 O 12.77
EvdW_6 =   -0.261228
EvdW_8 =   -0.399977

---------- Allocating electronic variables ----------
Initializing wave functions:  linear combination of atomic orbitals
Cu pseudo-atom occupations:   s ( 2 1 )  p ( 6 0 )  d ( 10 )
C pseudo-atom occupations:   s ( 2 )  p ( 2 )
O pseudo-atom occupations:   s ( 2 )  p ( 4 )
	FillingsUpdate:  mu: -2.602204375  nElectrons: 922.000000  magneticMoment: [ Abs: 0.44642  Tot: -0.00310 ]
LCAOMinimize: Iter:   0  F: -9473.2994412340667623  |grad|_K:  3.302e-02  alpha:  1.000e+00
LCAOMinimize: 	Step increased F by 1.461329e+03, reducing alpha to 4.056522e-02.
LCAOMinimize: 	Step increased F by 8.365606e+01, reducing alpha to 4.056522e-03.
	FillingsUpdate:  mu: -2.393383950  nElectrons: 922.000000  magneticMoment: [ Abs: 0.44993  Tot: +0.00305 ]
LCAOMinimize: Iter:   1  F: -9497.3164771710617060  |grad|_K:  2.272e-02  alpha:  4.057e-03  linmin: -1.570e-01  cgtest:  9.243e-01  t[s]:    302.90
LCAOMinimize: Encountered beta<0, resetting CG.
LCAOMinimize: 	Predicted alpha/alphaT>3.000000, increasing alphaT to 1.216957e-02.
	FillingsUpdate:  mu: -1.313416379  nElectrons: 922.000000  magneticMoment: [ Abs: 0.45996  Tot: -0.00604 ]
LCAOMinimize: Iter:   2  F: -9524.6423820653617440  |grad|_K:  1.615e-02  alpha:  1.621e-02  linmin: -1.691e-02  cgtest: -8.121e-03  t[s]:    393.93
LCAOMinimize: 	Predicted alpha/alphaT>3.000000, increasing alphaT to 4.862478e-02.
LCAOMinimize: 	Predicted alpha/alphaT>3.000000, increasing alphaT to 1.458744e-01.
	FillingsUpdate:  mu: +1.989631595  nElectrons: 922.000000  magneticMoment: [ Abs: 0.00811  Tot: -0.00029 ]
LCAOMinimize: Iter:   3  F: -9661.5001188017631648  |grad|_K:  1.649e-02  alpha:  1.541e-01  linmin:  1.013e-03  cgtest:  4.087e-01  t[s]:    502.97
	FillingsUpdate:  mu: +1.430443965  nElectrons: 922.000000  magneticMoment: [ Abs: 0.00431  Tot: -0.00028 ]
LCAOMinimize: Iter:   4  F: -9674.0674075057977461  |grad|_K:  4.940e-03  alpha:  7.884e-02  linmin:  1.860e-02  cgtest:  2.757e-01  t[s]:    575.02
LCAOMinimize: 	Wrong curvature in test step, increasing alphaT to 2.365261e-01.
	FillingsUpdate:  mu: +0.656534187  nElectrons: 922.000000  magneticMoment: [ Abs: 0.00554  Tot: -0.00004 ]
LCAOMinimize: Iter:   5  F: -9689.8925097970568459  |grad|_K:  9.195e-03  alpha: -1.376e-01  linmin:  3.557e-02  cgtest: -2.912e-01  t[s]:    641.60
LCAOMinimize: 	Bad step direction: g.d > 0.
LCAOMinimize: 	Undoing step.
LCAOMinimize: 	Step failed: resetting search direction.
	FillingsUpdate:  mu: +0.656534187  nElectrons: 922.000000  magneticMoment: [ Abs: 0.00554  Tot: -0.00004 ]
LCAOMinimize: Iter:   6  F: -9689.8925097970568459  |grad|_K:  9.195e-03  alpha:  0.000e+00
	FillingsUpdate:  mu: +0.790177165  nElectrons: 922.000000  magneticMoment: [ Abs: 0.00553  Tot: -0.00019 ]
LCAOMinimize: Iter:   7  F: -9695.1346753321777214  |grad|_K:  6.507e-03  alpha:  4.805e-02  linmin:  6.740e-02  cgtest: -7.923e-01  t[s]:    766.04
LCAOMinimize: 	Bad step direction: g.d > 0.
LCAOMinimize: 	Undoing step.
LCAOMinimize: 	Step failed: resetting search direction.
	FillingsUpdate:  mu: +0.790177165  nElectrons: 922.000000  magneticMoment: [ Abs: 0.00553  Tot: -0.00019 ]
LCAOMinimize: Iter:   8  F: -9695.1346753321777214  |grad|_K:  6.507e-03  alpha:  0.000e+00
	FillingsUpdate:  mu: +0.586436507  nElectrons: 922.000000  magneticMoment: [ Abs: 0.00557  Tot: +0.00003 ]
LCAOMinimize: Iter:   9  F: -9698.8232909648522764  |grad|_K:  2.059e-03  alpha:  2.835e-02  linmin: -1.335e-02  cgtest: -6.413e-02  t[s]:    890.17
LCAOMinimize: 	Predicted alpha/alphaT>3.000000, increasing alphaT to 8.504734e-02.
LCAOMinimize: 	Step increased F by 2.390383e+01, reducing alpha to 2.498293e-02.
	FillingsUpdate:  mu: +0.556673746  nElectrons: 922.000000  magneticMoment: [ Abs: 0.00574  Tot: -0.00006 ]
LCAOMinimize: Iter:  10  F: -9699.4895292716882977  |grad|_K:  1.915e-03  alpha:  2.498e-02  linmin: -1.590e-01  cgtest:  9.179e-01  t[s]:   1033.50
LCAOMinimize: 	Predicted alpha/alphaT>3.000000, increasing alphaT to 7.494880e-02.
	FillingsUpdate:  mu: +0.643499414  nElectrons: 922.000000  magneticMoment: [ Abs: 0.00664  Tot: -0.00043 ]
LCAOMinimize: Iter:  11  F: -9700.2877136256629456  |grad|_K:  5.170e-03  alpha:  1.203e-01  linmin:  4.484e-02  cgtest: -1.848e-01  t[s]:   1123.64
LCAOMinimize: 	Bad step direction: g.d > 0.
LCAOMinimize: 	Undoing step.
LCAOMinimize: 	Step failed: resetting search direction.
	FillingsUpdate:  mu: +0.643499414  nElectrons: 922.000000  magneticMoment: [ Abs: 0.00664  Tot: -0.00043 ]
LCAOMinimize: Iter:  12  F: -9700.2877136256629456  |grad|_K:  5.170e-03  alpha:  0.000e+00
	FillingsUpdate:  mu: +0.484505892  nElectrons: 922.000000  magneticMoment: [ Abs: 0.00663  Tot: -0.00036 ]
LCAOMinimize: Iter:  13  F: -9701.6242667825299577  |grad|_K:  2.385e-03  alpha:  1.065e-02  linmin: -1.283e-01  cgtest:  9.474e-01  t[s]:   1248.41
LCAOMinimize: Encountered beta<0, resetting CG.
	FillingsUpdate:  mu: +0.374253541  nElectrons: 922.000000  magneticMoment: [ Abs: 0.00671  Tot: -0.00029 ]
LCAOMinimize: Iter:  14  F: -9702.0613595270988299  |grad|_K:  1.214e-03  alpha:  2.373e-02  linmin: -1.278e-03  cgtest: -1.681e-02  t[s]:   1320.09
LCAOMinimize: 	Predicted alpha/alphaT>3.000000, increasing alphaT to 7.119407e-02.
LCAOMinimize: 	Step increased F by 3.845067e-01, reducing alpha to 1.608540e-02.
	FillingsUpdate:  mu: +0.355563630  nElectrons: 922.000000  magneticMoment: [ Abs: 0.00678  Tot: -0.00029 ]
LCAOMinimize: Iter:  15  F: -9702.2074017006380018  |grad|_K:  1.110e-03  alpha:  1.609e-02  linmin: -1.643e-01  cgtest:  9.764e-01  t[s]:   1463.32
LCAOMinimize: Encountered beta<0, resetting CG.
LCAOMinimize: 	Predicted alpha/alphaT>3.000000, increasing alphaT to 4.825621e-02.
	FillingsUpdate:  mu: +0.371665721  nElectrons: 922.000000  magneticMoment: [ Abs: 0.00698  Tot: -0.00029 ]
LCAOMinimize: Iter:  16  F: -9702.4210175103835354  |grad|_K:  1.504e-03  alpha:  5.506e-02  linmin:  9.849e-03  cgtest: -5.947e-02  t[s]:   1553.80
	FillingsUpdate:  mu: +0.298636685  nElectrons: 922.000000  magneticMoment: [ Abs: 0.00736  Tot: -0.00032 ]
LCAOMinimize: Iter:  17  F: -9702.6965588146304071  |grad|_K:  1.397e-03  alpha:  3.181e-02  linmin: -1.475e-02  cgtest:  8.189e-01  t[s]:   1625.71
	FillingsUpdate:  mu: +0.206714732  nElectrons: 922.000000  magneticMoment: [ Abs: 0.00741  Tot: -0.00032 ]
LCAOMinimize: Iter:  18  F: -9702.8028308540724538  |grad|_K:  4.379e-04  alpha:  1.662e-02  linmin: -1.443e-03  cgtest: -5.320e-02  t[s]:   1697.40
LCAOMinimize: 	Predicted alpha/alphaT>3.000000, increasing alphaT to 4.987471e-02.
	FillingsUpdate:  mu: +0.178529444  nElectrons: 922.000000  magneticMoment: [ Abs: 0.00754  Tot: -0.00028 ]
LCAOMinimize: Iter:  19  F: -9702.8449462199041591  |grad|_K:  3.488e-04  alpha:  6.824e-02  linmin: -7.302e-04  cgtest: -8.547e-02  t[s]:   1787.58
	FillingsUpdate:  mu: +0.150637553  nElectrons: 922.000000  magneticMoment: [ Abs: 0.00775  Tot: -0.00013 ]
LCAOMinimize: Iter:  20  F: -9702.8762026234053337  |grad|_K:  2.391e-04  alpha:  8.099e-02  linmin:  1.358e-02  cgtest: -9.980e-03  t[s]:   1859.67
	FillingsUpdate:  mu: +0.134784713  nElectrons: 922.000000  magneticMoment: [ Abs: 0.00785  Tot: -0.00007 ]
LCAOMinimize: Iter:  21  F: -9702.8866438778914016  |grad|_K:  1.144e-04  alpha:  5.983e-02  linmin:  1.150e-03  cgtest:  2.405e-01  t[s]:   1931.21
	FillingsUpdate:  mu: +0.132381819  nElectrons: 922.000000  magneticMoment: [ Abs: 0.00784  Tot: -0.00005 ]
LCAOMinimize: Iter:  22  F: -9702.8887273895470571  |grad|_K:  7.695e-05  alpha:  4.979e-02  linmin: -6.962e-04  cgtest: -4.132e-03  t[s]:   2002.79
	FillingsUpdate:  mu: +0.139092833  nElectrons: 922.000000  magneticMoment: [ Abs: 0.00783  Tot: -0.00003 ]
LCAOMinimize: Iter:  23  F: -9702.8905172971008142  |grad|_K:  9.013e-05  alpha:  9.403e-02  linmin: -5.276e-05  cgtest: -7.743e-03  t[s]:   2074.10
	FillingsUpdate:  mu: +0.140350566  nElectrons: 922.000000  magneticMoment: [ Abs: 0.00784  Tot: -0.00001 ]
LCAOMinimize: Iter:  24  F: -9702.8912080478276039  |grad|_K:  6.183e-05  alpha:  2.668e-02  linmin:  6.158e-04  cgtest: -3.092e-03  t[s]:   2147.27
	FillingsUpdate:  mu: +0.140526027  nElectrons: 922.000000  magneticMoment: [ Abs: 0.00785  Tot: +0.00004 ]
LCAOMinimize: Iter:  25  F: -9702.8919019458298862  |grad|_K:  4.261e-05  alpha:  5.678e-02  linmin: -5.755e-04  cgtest:  1.637e-02  t[s]:   2218.70
	FillingsUpdate:  mu: +0.140035828  nElectrons: 922.000000  magneticMoment: [ Abs: 0.00788  Tot: +0.00007 ]
LCAOMinimize: Iter:  26  F: -9702.8923338029271690  |grad|_K:  3.206e-05  alpha:  7.396e-02  linmin:  2.939e-04  cgtest: -1.506e-02  t[s]:   2290.19
	FillingsUpdate:  mu: +0.138681765  nElectrons: 922.000000  magneticMoment: [ Abs: 0.00794  Tot: +0.00012 ]
LCAOMinimize: Iter:  27  F: -9702.8926242020243080  |grad|_K:  2.349e-05  alpha:  8.843e-02  linmin:  4.931e-04  cgtest:  1.234e-02  t[s]:   2361.85
	FillingsUpdate:  mu: +0.137614712  nElectrons: 922.000000  magneticMoment: [ Abs: 0.00797  Tot: +0.00014 ]
LCAOMinimize: Iter:  28  F: -9702.8927098921249126  |grad|_K:  2.056e-05  alpha:  4.863e-02  linmin: -7.459e-06  cgtest:  7.420e-03  t[s]:   2433.36
	FillingsUpdate:  mu: +0.137167473  nElectrons: 922.000000  magneticMoment: [ Abs: 0.00799  Tot: +0.00016 ]
LCAOMinimize: Iter:  29  F: -9702.8927529089069139  |grad|_K:  1.684e-05  alpha:  3.172e-02  linmin: -3.038e-06  cgtest: -2.358e-03  t[s]:   2504.68
	FillingsUpdate:  mu: +0.137152281  nElectrons: 922.000000  magneticMoment: [ Abs: 0.00802  Tot: +0.00019 ]
LCAOMinimize: Iter:  30  F: -9702.8928083071841684  |grad|_K:  1.213e-05  alpha:  6.106e-02  linmin:  3.540e-04  cgtest: -3.776e-03  t[s]:   2576.47
LCAOMinimize: None of the convergence criteria satisfied after 30 iterations.
----- createFluidSolver() ----- (Fluid-side solver setup)
   Initializing fluid molecule 'H2O'
     Initializing site 'O'
       Electron density: proportional to exp(-r/0.36935)*erfc((r-0.51523)/0.36823) with norm 6.826
       Charge density: gaussian nuclear width 0.478731 with net site charge 0.826
       Polarizability: cuspless exponential with width 0.32 and norm 3.73
       Hard sphere radius: 2.57003 bohrs
       Positions in reference frame:
         [ +0.000000 +0.000000 +0.000000 ]
     Initializing site 'H'
       Electron density: proportional to exp(-r/0.34641)*erfc((r-0)/0.390882) with norm 0.587
       Charge density: gaussian nuclear width 0.377945 with net site charge -0.413
       Polarizability: cuspless exponential with width 0.39 and norm 3.3
       Positions in reference frame:
         [ +0.000000 -1.441945 +1.122523 ]
         [ +0.000000 +1.441945 +1.122523 ]
     Net charge: 0   dipole magnitude: 0.927204
     Initializing spherical shell mfKernel with radius 2.61727 Bohr
     deltaS corrections:
       site 'O': -7.54299
       site 'H': -6.83917
   Initializing fluid molecule 'Na+'
     Initializing site 'Na'
       Electron density: proportional to exp(-r/0.19682)*erfc((r-0.71491)/0.41314) with norm 8.1383
       Charge density: gaussian nuclear width 0.365347 with net site charge -1
       Hard sphere radius: 1.86327 bohrs
       Positions in reference frame:
         [ +0.000000 +0.000000 +0.000000 ]
     Net charge: -1   dipole magnitude: 0
     Initializing gaussian mfKernel with width: 1.55004 Bohr
     deltaS corrections:
       site 'Na': -22.3555
   Initializing fluid molecule 'F-'
     Initializing site 'F'
       Electron density: proportional to exp(-r/0.38886)*erfc((r-0)/0.438782) with norm 8
       Charge density: gaussian nuclear width 0.374796 with net site charge 1
       Hard sphere radius: 2.39995 bohrs
       Positions in reference frame:
         [ +0.000000 +0.000000 +0.000000 ]
     Net charge: 1   dipole magnitude: 0
     Initializing gaussian mfKernel with width: 1.59012 Bohr
     deltaS corrections:
       site 'F': -9.04335

Correction to mu due to finite nuclear width = -0.0829565
   Cavity determined by nc: 0.00142 and sigma: 0.707107
   Nonlocal vdW cavity from gaussian model electron density with norm = 8 and sigma = 0.993594 bohr
   Charge asymmetry in cavity with sensitivity pCavity = 36.5 e-bohr/Eh
   Electrostatic cavity expanded by eta = 1.46 bohrs
   Weighted density cavitation model constrained by Nbulk: 0.0049383 bohr^-3, Pvap: 3.14029 kPa, Rvdw: 2.61727 bohr and sigmaBulk: 4.62e-05 Eh/bohr^2 at T: 298 K.
   Weighted density dispersion model using vdW pair potentials with single solvent site with sqrtC6eff: 0.77 SI.


---- Citations for features of the code used in this run ----

   Software package:
      R. Sundararaman, K. Letchworth-Weaver, K.A. Schwarz, D. Gunceler, Y. Ozhabes and T.A. Arias, 'JDFTx: software for joint density-functional theory', SoftwareX 6, 278 (2017)

   gga-PBE exchange-correlation functional:
      J.P. Perdew, K. Burke and M. Ernzerhof, Phys. Rev. Lett. 77, 3865 (1996)

   Pseudopotentials:
      KF Garrity, JW Bennett, KM Rabe and D Vanderbilt, Comput. Mater. Sci. 81, 446 (2014)

   DFT-D3 dispersion correction:
      S. Grimme, J. Antony, S. Ehrlich and H. Krieg, J. Chem. Phys. 132, 154104 (2010)

   DFT-D2 dispersion correction:
      S. Grimme, J. Comput. Chem. 27, 1787 (2006)

   Charge-asymmetric nonlocally-determined local-electric (CANDLE) solvation model:
      R. Sundararaman and W.A. Goddard III, J. Chem. Phys. 142, 064107 (2015)

   Total energy minimization with Auxiliary Hamiltonian:
      C. Freysoldt, S. Boeck, and J. Neugebauer, Phys. Rev. B 79, 241103(R) (2009)

   Linear-tetrahedron sampling for density of states:
      G. Lehmann and M. Taut, Phys. status solidi (b) 54, 469 (1972)

This list may not be complete. Please suggest additional citations or
report any other bugs at https://github.com/shankar1729/jdftx/issues

Initialization completed successfully at t[s]:   2606.61


Computing DFT-D3 correction:
# coordination-number Cu 5.566 5.570 5.571 5.639 6.865 6.865 6.865 6.865 9.103 9.103 9.103 9.103 9.045 9.045 9.045 9.045 9.020 9.019 9.023 9.019 7.578 7.549 8.512 7.549 7.549 7.549 7.549 7.549 9.019 9.019 9.019 9.019 9.046 9.045 9.046 9.045 9.104 9.105 9.104 9.105 7.623 6.866 7.625 6.866 5.565 5.565 5.565 5.565
# coordination-number C 3.564
# coordination-number O 1.054
# diagonal-C6 Cu 175.00 175.00 175.00 175.00 175.00 175.00 175.00 175.00 175.00 175.00 175.00 175.00 175.00 175.00 175.00 175.00 175.00 175.00 175.00 175.00 175.00 175.00 175.00 175.00 175.00 175.00 175.00 175.00 175.00 175.00 175.00 175.00 175.00 175.00 175.00 175.00 175.00 175.00 175.00 175.00 175.00 175.00 175.00 175.00 175.00 175.00 175.00 175.00
# diagonal-C6 C 20.74
# diagonal-C6 O 12.77
EvdW_6 =   -0.261228
EvdW_8 =   -0.399977
Fluid solver invoked on fresh (random / LCAO) wavefunctions
Running a vacuum solve first:

-------- Initial electronic minimization -----------
	FillingsUpdate:  mu: +0.137152340  nElectrons: 922.000000  magneticMoment: [ Abs: 0.00802  Tot: +0.00019 ]
ElecMinimize: Iter:   0  F: -9702.892808307216910  |grad|_K:  2.798e-04  alpha:  1.000e+00
	FillingsUpdate:  mu: +0.022854705  nElectrons: 922.000000  magneticMoment: [ Abs: 0.00768  Tot: +0.00020 ]
	SubspaceRotationAdjust: set factor to 0.966
ElecMinimize: Iter:   1  F: -9706.056991352983459  |grad|_K:  1.424e-04  alpha:  1.002e-01  linmin:  1.698e-04  t[s]:   2835.51
ElecMinimize: 	Predicted alpha/alphaT>3.000000, increasing alphaT to 3.005854e-01.
	FillingsUpdate:  mu: +0.256368387  nElectrons: 922.000000  magneticMoment: [ Abs: 0.00481  Tot: +0.00006 ]
	SubspaceRotationAdjust: set factor to 0.905
ElecMinimize: Iter:   2  F: -9709.077764822894096  |grad|_K:  1.194e-04  alpha:  3.667e-01  linmin: -3.793e-05  t[s]:   3025.01
	FillingsUpdate:  mu: +0.185248658  nElectrons: 922.000000  magneticMoment: [ Abs: 0.00416  Tot: +0.00008 ]
	SubspaceRotationAdjust: set factor to 0.65
ElecMinimize: Iter:   3  F: -9709.822101790892702  |grad|_K:  8.599e-05  alpha:  1.195e-01  linmin: -6.081e-06  t[s]:   3176.99
	FillingsUpdate:  mu: +0.170707558  nElectrons: 922.000000  magneticMoment: [ Abs: 0.00382  Tot: +0.00002 ]
	SubspaceRotationAdjust: set factor to 0.446
ElecMinimize: Iter:   4  F: -9710.053544487413092  |grad|_K:  7.308e-05  alpha:  7.524e-02  linmin:  5.398e-06  t[s]:   3328.90
	FillingsUpdate:  mu: +0.129809212  nElectrons: 922.000000  magneticMoment: [ Abs: 0.00334  Tot: +0.00005 ]
	SubspaceRotationAdjust: set factor to 0.381
ElecMinimize: Iter:   5  F: -9710.299254213112363  |grad|_K:  4.144e-05  alpha:  1.092e-01  linmin: -1.744e-05  t[s]:   3481.14
	FillingsUpdate:  mu: +0.115037406  nElectrons: 922.000000  magneticMoment: [ Abs: 0.00303  Tot: +0.00005 ]
	SubspaceRotationAdjust: set factor to 0.434
ElecMinimize: Iter:   6  F: -9710.376724687488604  |grad|_K:  2.458e-05  alpha:  1.046e-01  linmin:  1.053e-06  t[s]:   3633.08
	FillingsUpdate:  mu: +0.107333781  nElectrons: 922.000000  magneticMoment: [ Abs: 0.00249  Tot: +0.00004 ]
	SubspaceRotationAdjust: set factor to 0.382
ElecMinimize: Iter:   7  F: -9710.422432206150916  |grad|_K:  2.294e-05  alpha:  1.800e-01  linmin: -2.153e-06  t[s]:   3784.77
	FillingsUpdate:  mu: +0.104405940  nElectrons: 922.000000  magneticMoment: [ Abs: 0.00211  Tot: +0.00006 ]
	SubspaceRotationAdjust: set factor to 0.37
ElecMinimize: Iter:   8  F: -9710.448199304226364  |grad|_K:  1.418e-05  alpha:  1.165e-01  linmin:  1.162e-07  t[s]:   3936.20
	FillingsUpdate:  mu: +0.102364579  nElectrons: 922.000000  magneticMoment: [ Abs: 0.00183  Tot: +0.00007 ]
	SubspaceRotationAdjust: set factor to 0.404
ElecMinimize: Iter:   9  F: -9710.462161872221259  |grad|_K:  1.183e-05  alpha:  1.653e-01  linmin: -6.656e-07  t[s]:   4088.04
	FillingsUpdate:  mu: +0.102723006  nElectrons: 922.000000  magneticMoment: [ Abs: 0.00160  Tot: +0.00006 ]
	SubspaceRotationAdjust: set factor to 0.398
ElecMinimize: Iter:  10  F: -9710.470835266281938  |grad|_K:  8.487e-06  alpha:  1.473e-01  linmin: -1.650e-08  t[s]:   4239.68
	FillingsUpdate:  mu: +0.105309655  nElectrons: 922.000000  magneticMoment: [ Abs: 0.00138  Tot: +0.00006 ]
	SubspaceRotationAdjust: set factor to 0.405
ElecMinimize: Iter:  11  F: -9710.475298857723828  |grad|_K:  7.197e-06  alpha:  1.475e-01  linmin: -4.950e-07  t[s]:   4391.60
	FillingsUpdate:  mu: +0.104855084  nElectrons: 922.000000  magneticMoment: [ Abs: 0.00113  Tot: +0.00005 ]
	SubspaceRotationAdjust: set factor to 0.441
ElecMinimize: Iter:  12  F: -9710.478859895965797  |grad|_K:  5.267e-06  alpha:  1.635e-01  linmin: -8.013e-07  t[s]:   4543.70
	FillingsUpdate:  mu: +0.103741600  nElectrons: 922.000000  magneticMoment: [ Abs: 0.00098  Tot: +0.00005 ]
	SubspaceRotationAdjust: set factor to 0.506
ElecMinimize: Iter:  13  F: -9710.480632242835782  |grad|_K:  4.581e-06  alpha:  1.519e-01  linmin:  4.784e-07  t[s]:   4695.55
	FillingsUpdate:  mu: +0.103859966  nElectrons: 922.000000  magneticMoment: [ Abs: 0.00079  Tot: +0.00005 ]
	SubspaceRotationAdjust: set factor to 0.47
ElecMinimize: Iter:  14  F: -9710.482286486740122  |grad|_K:  4.497e-06  alpha:  1.877e-01  linmin: -4.718e-09  t[s]:   4847.31
	FillingsUpdate:  mu: +0.103395487  nElectrons: 922.000000  magneticMoment: [ Abs: 0.00066  Tot: +0.00004 ]
	SubspaceRotationAdjust: set factor to 0.451
ElecMinimize: Iter:  15  F: -9710.483312718435627  |grad|_K:  2.921e-06  alpha:  1.209e-01  linmin:  3.517e-08  t[s]:   4998.91
	FillingsUpdate:  mu: +0.103063570  nElectrons: 922.000000  magneticMoment: [ Abs: 0.00056  Tot: +0.00003 ]
	SubspaceRotationAdjust: set factor to 0.47
ElecMinimize: Iter:  16  F: -9710.483879476316361  |grad|_K:  2.245e-06  alpha:  1.582e-01  linmin:  9.515e-07  t[s]:   5151.04
	FillingsUpdate:  mu: +0.103578683  nElectrons: 922.000000  magneticMoment: [ Abs: 0.00046  Tot: +0.00003 ]
	SubspaceRotationAdjust: set factor to 0.506
ElecMinimize: Iter:  17  F: -9710.484233855253478  |grad|_K:  2.009e-06  alpha:  1.676e-01  linmin:  3.672e-07  t[s]:   5303.65
	FillingsUpdate:  mu: +0.103388319  nElectrons: 922.000000  magneticMoment: [ Abs: 0.00038  Tot: +0.00003 ]
	SubspaceRotationAdjust: set factor to 0.398
ElecMinimize: Iter:  18  F: -9710.484469181577879  |grad|_K:  1.436e-06  alpha:  1.389e-01  linmin:  2.846e-08  t[s]:   5455.30
	FillingsUpdate:  mu: +0.103030805  nElectrons: 922.000000  magneticMoment: [ Abs: 0.00033  Tot: +0.00002 ]
	SubspaceRotationAdjust: set factor to 0.333
ElecMinimize: Iter:  19  F: -9710.484575444119400  |grad|_K:  1.015e-06  alpha:  1.227e-01  linmin:  3.095e-07  t[s]:   5607.17
	FillingsUpdate:  mu: +0.102984415  nElectrons: 922.000000  magneticMoment: [ Abs: 0.00026  Tot: +0.00002 ]
	SubspaceRotationAdjust: set factor to 0.38
ElecMinimize: Iter:  20  F: -9710.484658208135443  |grad|_K:  9.079e-07  alpha:  1.912e-01  linmin:  7.093e-07  t[s]:   5758.95
	FillingsUpdate:  mu: +0.102994413  nElectrons: 922.000000  magneticMoment: [ Abs: 0.00021  Tot: +0.00002 ]
	SubspaceRotationAdjust: set factor to 0.341
ElecMinimize: Iter:  21  F: -9710.484707963563778  |grad|_K:  5.975e-07  alpha:  1.438e-01  linmin: -1.027e-07  t[s]:   5910.63
	FillingsUpdate:  mu: +0.102953512  nElectrons: 922.000000  magneticMoment: [ Abs: 0.00017  Tot: +0.00002 ]
	SubspaceRotationAdjust: set factor to 0.35
ElecMinimize: Iter:  22  F: -9710.484734677487722  |grad|_K:  5.114e-07  alpha:  1.781e-01  linmin: -8.373e-09  t[s]:   6062.40
	FillingsUpdate:  mu: +0.103032852  nElectrons: 922.000000  magneticMoment: [ Abs: 0.00014  Tot: +0.00002 ]
	SubspaceRotationAdjust: set factor to 0.369
ElecMinimize: Iter:  23  F: -9710.484750360688849  |grad|_K:  3.363e-07  alpha:  1.428e-01  linmin:  2.751e-08  t[s]:   6214.50
	FillingsUpdate:  mu: +0.103048094  nElectrons: 922.000000  magneticMoment: [ Abs: 0.00012  Tot: +0.00001 ]
	SubspaceRotationAdjust: set factor to 0.384
ElecMinimize: Iter:  24  F: -9710.484759888304325  |grad|_K:  3.346e-07  alpha:  2.006e-01  linmin: -5.223e-08  t[s]:   6367.68
	FillingsUpdate:  mu: +0.102962983  nElectrons: 922.000000  magneticMoment: [ Abs: 0.00009  Tot: +0.00001 ]
	SubspaceRotationAdjust: set factor to 0.427
ElecMinimize: Iter:  25  F: -9710.484767455545807  |grad|_K:  2.335e-07  alpha:  1.609e-01  linmin:  7.228e-08  t[s]:   6519.41
	FillingsUpdate:  mu: +0.102965029  nElectrons: 922.000000  magneticMoment: [ Abs: 0.00008  Tot: +0.00001 ]
	SubspaceRotationAdjust: set factor to 0.464
ElecMinimize: Iter:  26  F: -9710.484771333451135  |grad|_K:  2.116e-07  alpha:  1.694e-01  linmin:  1.566e-07  t[s]:   6671.28
	FillingsUpdate:  mu: +0.102982857  nElectrons: 922.000000  magneticMoment: [ Abs: 0.00006  Tot: +0.00001 ]
	SubspaceRotationAdjust: set factor to 0.523
ElecMinimize: Iter:  27  F: -9710.484774822114559  |grad|_K:  1.671e-07  alpha:  1.856e-01  linmin:  6.403e-08  t[s]:   6823.29
	FillingsUpdate:  mu: +0.102964321  nElectrons: 922.000000  magneticMoment: [ Abs: 0.00005  Tot: +0.00001 ]
	SubspaceRotationAdjust: set factor to 0.583
ElecMinimize: Iter:  28  F: -9710.484776640581913  |grad|_K:  1.425e-07  alpha:  1.550e-01  linmin:  2.092e-07  t[s]:   6975.58
	FillingsUpdate:  mu: +0.102970639  nElectrons: 922.000000  magneticMoment: [ Abs: 0.00004  Tot: +0.00001 ]
	SubspaceRotationAdjust: set factor to 0.623
ElecMinimize: Iter:  29  F: -9710.484778453188483  |grad|_K:  1.343e-07  alpha:  2.123e-01  linmin: -4.623e-08  t[s]:   7127.80
	FillingsUpdate:  mu: +0.102954928  nElectrons: 922.000000  magneticMoment: [ Abs: 0.00003  Tot: +0.00000 ]
	SubspaceRotationAdjust: set factor to 0.66
ElecMinimize: Iter:  30  F: -9710.484779558611990  |grad|_K:  1.006e-07  alpha:  1.456e-01  linmin: -3.811e-09  t[s]:   7279.94
	FillingsUpdate:  mu: +0.102930321  nElectrons: 922.000000  magneticMoment: [ Abs: 0.00003  Tot: +0.00000 ]
	SubspaceRotationAdjust: set factor to 0.623
ElecMinimize: Iter:  31  F: -9710.484780235259677  |grad|_K:  8.757e-08  alpha:  1.592e-01  linmin: -8.907e-08  t[s]:   7431.67
	FillingsUpdate:  mu: +0.102935928  nElectrons: 922.000000  magneticMoment: [ Abs: 0.00002  Tot: +0.00000 ]
	SubspaceRotationAdjust: set factor to 0.51
ElecMinimize: Iter:  32  F: -9710.484780684806537  |grad|_K:  7.693e-08  alpha:  1.391e-01  linmin:  2.225e-07  t[s]:   7583.57
	FillingsUpdate:  mu: +0.102940915  nElectrons: 922.000000  magneticMoment: [ Abs: 0.00002  Tot: +0.00000 ]
	SubspaceRotationAdjust: set factor to 0.402
ElecMinimize: Iter:  33  F: -9710.484780947535910  |grad|_K:  5.565e-08  alpha:  1.062e-01  linmin:  1.441e-07  t[s]:   7735.44
	FillingsUpdate:  mu: +0.102942378  nElectrons: 922.000000  magneticMoment: [ Abs: 0.00002  Tot: +0.00000 ]
	SubspaceRotationAdjust: set factor to 0.427
ElecMinimize: Iter:  34  F: -9710.484781148308684  |grad|_K:  4.874e-08  alpha:  1.551e-01  linmin:  4.943e-07  t[s]:   7887.05
	FillingsUpdate:  mu: +0.102937667  nElectrons: 922.000000  magneticMoment: [ Abs: 0.00001  Tot: +0.00000 ]
	SubspaceRotationAdjust: set factor to 0.444
ElecMinimize: Iter:  35  F: -9710.484781297396694  |grad|_K:  3.822e-08  alpha:  1.504e-01  linmin: -3.544e-07  t[s]:   8038.85
	FillingsUpdate:  mu: +0.102935565  nElectrons: 922.000000  magneticMoment: [ Abs: 0.00001  Tot: +0.00000 ]
	SubspaceRotationAdjust: set factor to 0.424
ElecMinimize: Iter:  36  F: -9710.484781382898291  |grad|_K:  3.276e-08  alpha:  1.388e-01  linmin:  5.318e-07  t[s]:   8190.83
	FillingsUpdate:  mu: +0.102935950  nElectrons: 922.000000  magneticMoment: [ Abs: 0.00001  Tot: +0.00000 ]
	SubspaceRotationAdjust: set factor to 0.474
ElecMinimize: Iter:  37  F: -9710.484781453038522  |grad|_K:  2.682e-08  alpha:  1.576e-01  linmin:  3.563e-07  t[s]:   8342.73
ElecMinimize: Converged (|Delta F|<1.000000e-07 for 2 iters).
Setting wave functions to eigenvectors of Hamiltonian
Converging empty states (this may take a while): |deigs|: 1.445e-02
Vacuum energy after initial minimize, F = -9710.484781453038522


-------- Electronic minimization -----------
	Linear fluid (dielectric constant: 78.4, screening length: 8.12261 Bohr) occupying 0.478559 of unit cell:	Completed after 25 iterations at t[s]:   9278.89
	FillingsUpdate:  mu: -0.159655115  nElectrons: 922.000000  magneticMoment: [ Abs: 0.00000  Tot: +0.00000 ]
ElecMinimize: Iter:   0  F: -9710.485241353131642  |grad|_K:  1.199e-06  alpha:  1.000e+00
	Linear fluid (dielectric constant: 78.4, screening length: 8.12261 Bohr) occupying 0.480311 of unit cell:	Completed after 20 iterations at t[s]:   9406.92
	Linear fluid (dielectric constant: 78.4, screening length: 8.12261 Bohr) occupying 0.479581 of unit cell:	Completed after 17 iterations at t[s]:   9450.64
	FillingsUpdate:  mu: -0.154129668  nElectrons: 922.000000  magneticMoment: [ Abs: 0.00000  Tot: +0.00000 ]
	SubspaceRotationAdjust: set factor to 0.455
ElecMinimize: Iter:   1  F: -9710.485580066573675  |grad|_K:  1.564e-06  alpha:  5.728e-01  linmin:  2.637e-07  t[s]:   9507.62
	Linear fluid (dielectric constant: 78.4, screening length: 8.12261 Bohr) occupying 0.481374 of unit cell:	Completed after 18 iterations at t[s]:   9569.73
	Linear fluid (dielectric constant: 78.4, screening length: 8.12261 Bohr) occupying 0.480123 of unit cell:	Completed after 16 iterations at t[s]:   9614.33
	FillingsUpdate:  mu: -0.154898042  nElectrons: 922.000000  magneticMoment: [ Abs: 0.00000  Tot: +0.00000 ]
	SubspaceRotationAdjust: set factor to 0.559
ElecMinimize: Iter:   2  F: -9710.485749663956085  |grad|_K:  1.268e-06  alpha:  1.660e-01  linmin: -2.127e-09  t[s]:   9671.11
	Linear fluid (dielectric constant: 78.4, screening length: 8.12261 Bohr) occupying 0.480514 of unit cell:	Completed after 13 iterations at t[s]:   9732.13
	Linear fluid (dielectric constant: 78.4, screening length: 8.12261 Bohr) occupying 0.480510 of unit cell:	Completed after 1 iterations at t[s]:   9772.67
	FillingsUpdate:  mu: -0.155976500  nElectrons: 922.000000  magneticMoment: [ Abs: 0.00000  Tot: +0.00000 ]
	SubspaceRotationAdjust: set factor to 0.616
ElecMinimize: Iter:   3  F: -9710.485860617478465  |grad|_K:  8.384e-07  alpha:  1.642e-01  linmin:  7.612e-08  t[s]:   9829.85
	Linear fluid (dielectric constant: 78.4, screening length: 8.12261 Bohr) occupying 0.480739 of unit cell:	Completed after 11 iterations at t[s]:   9890.75
	Linear fluid (dielectric constant: 78.4, screening length: 8.12261 Bohr) occupying 0.480903 of unit cell:	Completed after 10 iterations at t[s]:   9932.97
	FillingsUpdate:  mu: -0.155060460  nElectrons: 922.000000  magneticMoment: [ Abs: 0.00000  Tot: +0.00000 ]
	SubspaceRotationAdjust: set factor to 0.661
ElecMinimize: Iter:   4  F: -9710.485944511379785  |grad|_K:  6.399e-07  alpha:  2.839e-01  linmin: -1.350e-07  t[s]:   9990.13
	Linear fluid (dielectric constant: 78.4, screening length: 8.12261 Bohr) occupying 0.481148 of unit cell:	Completed after 11 iterations at t[s]:  10050.88
	Linear fluid (dielectric constant: 78.4, screening length: 8.12261 Bohr) occupying 0.481022 of unit cell:	Completed after 9 iterations at t[s]:  10092.95
	FillingsUpdate:  mu: -0.154974743  nElectrons: 922.000000  magneticMoment: [ Abs: 0.00000  Tot: +0.00000 ]
	SubspaceRotationAdjust: set factor to 0.743
ElecMinimize: Iter:   5  F: -9710.485968090519236  |grad|_K:  4.248e-07  alpha:  1.365e-01  linmin:  1.511e-08  t[s]:  10150.19
	Linear fluid (dielectric constant: 78.4, screening length: 8.12261 Bohr) occupying 0.481078 of unit cell:	Completed after 7 iterations at t[s]:  10210.06
	Linear fluid (dielectric constant: 78.4, screening length: 8.12261 Bohr) occupying 0.481106 of unit cell:	Completed after 6 iterations at t[s]:  10251.69
	FillingsUpdate:  mu: -0.155078909  nElectrons: 922.000000  magneticMoment: [ Abs: 0.00000  Tot: +0.00000 ]
	SubspaceRotationAdjust: set factor to 0.798
ElecMinimize: Iter:   6  F: -9710.485983616687008  |grad|_K:  3.450e-07  alpha:  2.049e-01  linmin: -2.309e-08  t[s]:  10308.95
	Linear fluid (dielectric constant: 78.4, screening length: 8.12261 Bohr) occupying 0.481166 of unit cell:	Completed after 7 iterations at t[s]:  10368.69
	Linear fluid (dielectric constant: 78.4, screening length: 8.12261 Bohr) occupying 0.481155 of unit cell:	Completed after 2 iterations at t[s]:  10409.69
	FillingsUpdate:  mu: -0.155158672  nElectrons: 922.000000  magneticMoment: [ Abs: 0.00000  Tot: +0.00000 ]
	SubspaceRotationAdjust: set factor to 0.817
ElecMinimize: Iter:   7  F: -9710.485992094627363  |grad|_K:  2.659e-07  alpha:  1.694e-01  linmin:  4.108e-08  t[s]:  10466.75
	Linear fluid (dielectric constant: 78.4, screening length: 8.12261 Bohr) occupying 0.481187 of unit cell:	Completed after 7 iterations at t[s]:  10527.00
	Linear fluid (dielectric constant: 78.4, screening length: 8.12261 Bohr) occupying 0.481184 of unit cell:	Completed after 1 iterations at t[s]:  10567.47
	FillingsUpdate:  mu: -0.155037430  nElectrons: 922.000000  magneticMoment: [ Abs: 0.00000  Tot: +0.00000 ]
	SubspaceRotationAdjust: set factor to 0.801
ElecMinimize: Iter:   8  F: -9710.485996681412871  |grad|_K:  1.629e-07  alpha:  1.548e-01  linmin:  1.164e-07  t[s]:  10624.76
	Linear fluid (dielectric constant: 78.4, screening length: 8.12261 Bohr) occupying 0.481190 of unit cell:	Completed after 7 iterations at t[s]:  10684.87
	Linear fluid (dielectric constant: 78.4, screening length: 8.12261 Bohr) occupying 0.481189 of unit cell:	Completed after 2 iterations at t[s]:  10725.68
	FillingsUpdate:  mu: -0.155050524  nElectrons: 922.000000  magneticMoment: [ Abs: 0.00000  Tot: +0.00000 ]
	SubspaceRotationAdjust: set factor to 0.745
ElecMinimize: Iter:   9  F: -9710.485998173751796  |grad|_K:  1.288e-07  alpha:  1.344e-01  linmin: -4.404e-08  t[s]:  10782.54
	Linear fluid (dielectric constant: 78.4, screening length: 8.12261 Bohr) occupying 0.481190 of unit cell:	Completed after 2 iterations at t[s]:  10841.61
	Linear fluid (dielectric constant: 78.4, screening length: 8.12261 Bohr) occupying 0.481190 of unit cell:	Completed after 2 iterations at t[s]:  10882.36
	FillingsUpdate:  mu: -0.155114789  nElectrons: 922.000000  magneticMoment: [ Abs: 0.00000  Tot: +0.00000 ]
	SubspaceRotationAdjust: set factor to 0.671
ElecMinimize: Iter:  10  F: -9710.485999654549232  |grad|_K:  1.120e-07  alpha:  2.132e-01  linmin:  5.473e-07  t[s]:  10939.77
	Linear fluid (dielectric constant: 78.4, screening length: 8.12261 Bohr) occupying 0.481189 of unit cell:	Completed after 3 iterations at t[s]:  10998.70
	Linear fluid (dielectric constant: 78.4, screening length: 8.12261 Bohr) occupying 0.481189 of unit cell:	Completed after 2 iterations at t[s]:  11039.54
	FillingsUpdate:  mu: -0.155107794  nElectrons: 922.000000  magneticMoment: [ Abs: 0.00000  Tot: +0.00000 ]
	SubspaceRotationAdjust: set factor to 0.696
ElecMinimize: Iter:  11  F: -9710.486000282931855  |grad|_K:  6.019e-08  alpha:  1.203e-01  linmin:  8.031e-06  t[s]:  11096.76
	Linear fluid (dielectric constant: 78.4, screening length: 8.12261 Bohr) occupying 0.481189 of unit cell:	Completed after 2 iterations at t[s]:  11155.90
	Linear fluid (dielectric constant: 78.4, screening length: 8.12261 Bohr) occupying 0.481188 of unit cell:	Completed after 2 iterations at t[s]:  11196.57
	FillingsUpdate:  mu: -0.155066478  nElectrons: 922.000000  magneticMoment: [ Abs: 0.00000  Tot: +0.00000 ]
	SubspaceRotationAdjust: set factor to 0.709
ElecMinimize: Iter:  12  F: -9710.486000556256840  |grad|_K:  5.386e-08  alpha:  1.823e-01  linmin:  3.319e-07  t[s]:  11253.83
	Linear fluid (dielectric constant: 78.4, screening length: 8.12261 Bohr) occupying 0.481184 of unit cell:	Completed after 2 iterations at t[s]:  11312.65
	Linear fluid (dielectric constant: 78.4, screening length: 8.12261 Bohr) occupying 0.481184 of unit cell:	Completed after 0 iterations at t[s]:  11352.83
	FillingsUpdate:  mu: -0.155058607  nElectrons: 922.000000  magneticMoment: [ Abs: 0.00000  Tot: +0.00000 ]
	SubspaceRotationAdjust: set factor to 0.771
ElecMinimize: Iter:  13  F: -9710.486000754321140  |grad|_K:  3.953e-08  alpha:  1.640e-01  linmin:  9.587e-07  t[s]:  11410.04
	Linear fluid (dielectric constant: 78.4, screening length: 8.12261 Bohr) occupying 0.481179 of unit cell:	Completed after 2 iterations at t[s]:  11469.14
	Linear fluid (dielectric constant: 78.4, screening length: 8.12261 Bohr) occupying 0.481179 of unit cell:	Completed after 0 iterations at t[s]:  11509.36
	FillingsUpdate:  mu: -0.155086241  nElectrons: 922.000000  magneticMoment: [ Abs: 0.00000  Tot: +0.00000 ]
	SubspaceRotationAdjust: set factor to 0.782
ElecMinimize: Iter:  14  F: -9710.486000870942007  |grad|_K:  3.094e-08  alpha:  1.792e-01  linmin: -1.127e-06  t[s]:  11566.55
	Linear fluid (dielectric constant: 78.4, screening length: 8.12261 Bohr) occupying 0.481174 of unit cell:	Completed after 2 iterations at t[s]:  11625.36
	Linear fluid (dielectric constant: 78.4, screening length: 8.12261 Bohr) occupying 0.481175 of unit cell:	Completed after 0 iterations at t[s]:  11665.78
	FillingsUpdate:  mu: -0.155106822  nElectrons: 922.000000  magneticMoment: [ Abs: 0.00000  Tot: +0.00000 ]
	SubspaceRotationAdjust: set factor to 0.857
ElecMinimize: Iter:  15  F: -9710.486000936356504  |grad|_K:  2.538e-08  alpha:  1.610e-01  linmin:  2.798e-07  t[s]:  11722.96
	Linear fluid (dielectric constant: 78.4, screening length: 8.12261 Bohr) occupying 0.481172 of unit cell:	Completed after 2 iterations at t[s]:  11781.89
	Linear fluid (dielectric constant: 78.4, screening length: 8.12261 Bohr) occupying 0.481172 of unit cell:	Completed after 0 iterations at t[s]:  11822.11
	FillingsUpdate:  mu: -0.155098691  nElectrons: 922.000000  magneticMoment: [ Abs: 0.00000  Tot: +0.00000 ]
	SubspaceRotationAdjust: set factor to 0.918
ElecMinimize: Iter:  16  F: -9710.486000982618862  |grad|_K:  1.833e-08  alpha:  1.713e-01  linmin: -2.451e-06  t[s]:  11879.26
ElecMinimize: Converged (|Delta F|<1.000000e-07 for 2 iters).
Setting wave functions to eigenvectors of Hamiltonian
Converging empty states (this may take a while): |deigs|: 8.210e-05
Single-point solvation energy estimate, DeltaF = -0.001219529580339

Computing DFT-D3 correction:
# coordination-number Cu 5.566 5.570 5.571 5.639 6.865 6.865 6.865 6.865 9.103 9.103 9.103 9.103 9.045 9.045 9.045 9.045 9.020 9.019 9.023 9.019 7.578 7.549 8.512 7.549 7.549 7.549 7.549 7.549 9.019 9.019 9.019 9.019 9.046 9.045 9.046 9.045 9.104 9.105 9.104 9.105 7.623 6.866 7.625 6.866 5.565 5.565 5.565 5.565
# coordination-number C 3.564
# coordination-number O 1.054
# diagonal-C6 Cu 175.00 175.00 175.00 175.00 175.00 175.00 175.00 175.00 175.00 175.00 175.00 175.00 175.00 175.00 175.00 175.00 175.00 175.00 175.00 175.00 175.00 175.00 175.00 175.00 175.00 175.00 175.00 175.00 175.00 175.00 175.00 175.00 175.00 175.00 175.00 175.00 175.00 175.00 175.00 175.00 175.00 175.00 175.00 175.00 175.00 175.00 175.00 175.00
# diagonal-C6 C 20.74
# diagonal-C6 O 12.77
EvdW_6 =   -0.261228
EvdW_8 =   -0.399977

# Ionic positions in cartesian coordinates:
ion Cu   9.533169000000001   0.029049000000000  15.714320000000001 0
ion Cu   9.533169000000001  11.704867999999999  15.714320000000001 0
ion Cu   4.766546000000001   0.029049000000000  15.714320000000001 0
ion Cu   4.766546000000001  11.704867999999999  15.714320000000001 0
ion Cu   0.000000000000000   3.882763000000000   2.011863000000000 0
ion Cu   0.000000000000000  15.558558000000000   2.011863000000000 0
ion Cu   4.766623000000001   3.882763000000000   2.011863000000000 0
ion Cu   4.766623000000001  15.558558000000000   2.011863000000000 0
ion Cu   0.000048000000000   7.846205000000000   4.822845000000000 0
ion Cu   0.000048000000000  19.521999999999998   4.822845000000000 0
ion Cu   4.766661000000001   7.846205000000000   4.822845000000000 0
ion Cu   4.766661000000001  19.521999999999998   4.822845000000000 0
ion Cu   0.000019000000000   0.010648000000000   7.572401000000000 0
ion Cu   0.000019000000000  11.686444000000000   7.572401000000000 0
ion Cu   4.766642000000000   0.010648000000000   7.572401000000000 0
ion Cu   4.766642000000000  11.686444000000000   7.572401000000000 0
ion Cu   0.000048000000000   3.891052000000000  10.322502999999999 0
ion Cu   0.000048000000000  15.566848000000002  10.322502999999999 0
ion Cu   4.766661000000001   3.891052000000000  10.322502999999999 0
ion Cu   4.766661000000001  15.566848000000002  10.322502999999999 0
ion Cu   9.533188000000003   7.731151000000000  13.180692000000001 0
ion Cu   9.533188000000003  19.406946999999999  13.180692000000001 0
ion Cu   4.766565000000001   7.731151000000000  13.180692000000001 0
ion Cu   4.766565000000001  19.406946999999999  13.180692000000001 0
ion Cu   2.383292000000000   0.052658000000000   3.331310000000000 0
ion Cu   2.383292000000000  11.728453999999999   3.331310000000000 0
ion Cu   7.149905000000001   0.052658000000000   3.331310000000000 0
ion Cu   7.149905000000001  11.728453999999999   3.331310000000000 0
ion Cu   2.383321000000000   3.893061000000000   6.189945000000000 0
ion Cu   2.383321000000000  15.568833000000000   6.189945000000000 0
ion Cu   7.149943000000000   3.893061000000000   6.189945000000000 0
ion Cu   7.149943000000000  15.568833000000000   6.189945000000000 0
ion Cu   2.383359000000000   7.773301000000000   8.939650000000000 0
ion Cu   2.383359000000000  19.449120000000001   8.939650000000000 0
ion Cu   7.149981000000001   7.773301000000000   8.939650000000000 0
ion Cu   7.149981000000001  19.449120000000001   8.939650000000000 0
ion Cu   2.383292000000000  23.288868999999998  11.688513000000000 0
ion Cu   2.383292000000000  11.613097000000000  11.688513000000000 0
ion Cu   7.149905000000001  23.288868999999998  11.688513000000000 0
ion Cu   7.149905000000001  11.613097000000000  11.688513000000000 0
ion Cu   2.383302000000000   3.900837000000000  14.500237000000000 0
ion Cu   2.383302000000000  15.576631999999998  14.500237000000000 0
ion Cu   7.149924000000001   3.900837000000000  14.500237000000000 0
ion Cu   7.149924000000001  15.576631999999998  14.500237000000000 0
ion Cu   2.383321000000000   7.755134000000001   0.798177000000000 0
ion Cu   2.383321000000000  19.430952999999999   0.798177000000000 0
ion Cu   7.149943000000000   7.755134000000001   0.798177000000000 0
ion Cu   7.149943000000000  19.430952999999999   0.798177000000000 0
ion C   4.766594000000001   6.502180999999999  16.702914000000000 1  Linear 0 0 1
ion O   4.826682000000001   6.502180999999999  18.858284000000001 1  Linear 0 0 1

# Forces in Cartesian coordinates:
force Cu  -0.000003557647200  -0.000234136755992  -0.000729186921407 0
force Cu   0.000020485696960   0.001854033022563  -0.000752228258359 0
force Cu   0.000002092045810  -0.003055795471643  -0.000644848971643 0
force Cu  -0.000033811641073   0.002652682684816  -0.001023453423811 0
force Cu   0.000013324395760   0.000206896235279  -0.000743463071129 0
force Cu  -0.000000466416324   0.000201101807504   0.000759714023134 0
force Cu  -0.000022148319364  -0.000005981472006   0.000214784008486 0
force Cu  -0.000008342879693  -0.000008657032842  -0.000221841888734 0
force Cu   0.000008581707471  -0.000215550108876   0.001257301804154 0
force Cu  -0.000004681177057   0.000262199988634  -0.000410127989886 0
force Cu  -0.000014143085927   0.000237531931926  -0.000848801325004 0
force Cu  -0.000001058652450  -0.000375678689542  -0.000024179987303 0
force Cu  -0.000004152851452   0.000654881199268  -0.000511092781124 0
force Cu  -0.000008914570811   0.000843638945772  -0.001016604050927 0
force Cu   0.000019600272256  -0.000385239554246  -0.000493276059225 0
force Cu   0.000012211536616   0.000189087288353  -0.000227482171292 0
force Cu  -0.000000308701253   0.000632984036784   0.001311664913678 0
force Cu  -0.000008655803280  -0.000720412209650   0.000543299781596 0
force Cu  -0.000005782391380  -0.001176816360921  -0.005518941559166 0
force Cu  -0.000000357152511   0.000083994358682  -0.000228836076389 0
force Cu  -0.000138273574293   0.002908962199968  -0.005047820356813 0
force Cu  -0.000009777022945  -0.000308937873957  -0.000355898703640 0
force Cu  -0.000050074990455   0.003303370295628   0.005432466203478 0
force Cu   0.000011138843754  -0.000750052323780  -0.000286045032722 0
force Cu   0.000170323368667   0.000085350564428   0.000125330202782 0
force Cu   0.000284951034347   0.000164553123585  -0.000110350664456 0
force Cu  -0.000168255622151   0.000061124831229   0.000102638164445 0
force Cu  -0.000291545186427   0.000162342639602  -0.000110154550012 0
force Cu  -0.000178358587060   0.000013844277160  -0.000292212218459 0
force Cu  -0.000011616131862  -0.000160047451619  -0.000038270500982 0
force Cu   0.000175346769772   0.000003193934467  -0.000301880494632 0
force Cu   0.000017103484717  -0.000157904669273  -0.000051595621847 0
force Cu   0.001337844164643  -0.000666889443479   0.001606387919817 0
force Cu   0.000210589621766  -0.000189012019706   0.000655556793405 0
force Cu  -0.001355585853930  -0.000663749436477   0.001607047543849 0
force Cu  -0.000222223111318  -0.000179534934056   0.000647513618882 0
force Cu   0.000372979527444   0.000771711235712   0.000456842743808 0
force Cu  -0.000581950394460   0.000745098918848  -0.000388372584394 0
force Cu  -0.000390663411032   0.000709160050894   0.000423840346582 0
force Cu   0.000575659667029   0.000737965149645  -0.000356160462022 0
force Cu  -0.003182613945730  -0.003200098173394   0.001072429381494 0
force Cu  -0.000054672886155  -0.000442982308200  -0.000103326428429 0
force Cu   0.003507854944980  -0.003614159121775   0.000412330461883 0
force Cu   0.000056169697350  -0.000451823329079  -0.000099317488328 0
force Cu   0.000986099139590   0.000012920203990   0.000288018506466 0
force Cu   0.000052851015507   0.000341274995454   0.000229633101611 0
force Cu  -0.000998288091078   0.000021988616722   0.000289488923151 0
force Cu  -0.000050146896442   0.000356045462278   0.000239894532493 0
force C  -0.001505910596183  -0.005433400808170  -0.076470554344392 1  Linear 0 0 1
force O   0.001236436717302   0.004254667572996   0.078724624238591 1  Linear 0 0 1

# Energy components:
   A_diel =       -0.0022228487931309
   Eewald =    37710.3961692356606363
       EH =    46599.1221211228330503
     Eloc =   -95847.2334824080317048
      Enl =     1761.0463353741620267
     EvdW =       -0.6612044050504219
      Exc =     -936.7440150547079156
 Exc_core =        2.3531883801459279
       KE =     1001.2390874671398251
-------------------------------------
     Etot =    -9710.4840231366433727
       TS =        0.0019778459754663
-------------------------------------
        F =    -9710.4860009826188616


Dumping 'jdft.fillings' ... done
Dumping 'jdft.wfns' ... done
Dumping 'jdft.fluidState' ... done
Dumping 'jdft.ionpos' ... done
Dumping 'jdft.lattice' ... done
Dumping 'jdft.eigenvals' ... done
Dumping 'jdft.eigStats' ... 
	eMin: -4.315645 at state 0 ( [ +0.000000 +0.000000 +0.000000 ] spin 1 )
	HOMO: -0.155186 at state 8 ( [ +0.000000 +0.000000 +0.000000 ] spin -1 )
	mu  : -0.155099
	LUMO: -0.154952 at state 2 ( [ +0.166667 +0.000000 +0.000000 ] spin 1 )
	eMax: +0.183256 at state 4 ( [ +0.333333 +0.000000 +0.000000 ] spin 1 )
	HOMO-LUMO gap: +0.000233
	Optical gap  : +0.000683 at state 0 ( [ +0.000000 +0.000000 +0.000000 ] spin 1 )
Dumping 'jdft.Ecomponents' ... done
IonicMinimize: Iter:   0  F: -9710.486000982618862  |grad|_K:  7.761e-02  t[s]:  12640.59

#--- Lowdin population analysis ---
# oxidation-state Cu +0.183 +0.185 +0.192 +0.171 +0.094 +0.089 +0.087 +0.091 +0.040 +0.039 +0.037 +0.039 +0.070 +0.070 +0.073 +0.074 +0.068 +0.066 +0.068 +0.069 +0.082 +0.063 -0.022 +0.067 +0.064 +0.065 +0.064 +0.065 +0.068 +0.068 +0.068 +0.068 +0.070 +0.072 +0.071 +0.072 +0.039 +0.038 +0.039 +0.038 +0.045 +0.090 +0.046 +0.090 +0.186 +0.189 +0.186 +0.189
# magnetic-moments Cu +0.000 +0.000 +0.000 +0.000 +0.000 +0.000 -0.000 +0.000 +0.000 +0.000 +0.000 +0.000 +0.000 +0.000 +0.000 +0.000 +0.000 -0.000 +0.000 +0.000 +0.000 +0.000 -0.000 -0.000 -0.000 +0.000 +0.000 +0.000 +0.000 -0.000 +0.000 +0.000 +0.000 +0.000 +0.000 +0.000 -0.000 +0.000 +0.000 +0.000 -0.000 +0.000 +0.000 -0.000 +0.000 +0.000 -0.000 +0.000
# oxidation-state C +0.364
# magnetic-moments C +0.000
# oxidation-state O -0.129
# magnetic-moments O -0.000


Computing DFT-D3 correction:
# coordination-number Cu 5.566 5.570 5.571 5.641 6.865 6.865 6.865 6.865 9.103 9.103 9.103 9.103 9.045 9.045 9.045 9.045 9.020 9.019 9.023 9.019 7.580 7.549 8.525 7.549 7.549 7.549 7.549 7.549 9.019 9.019 9.019 9.019 9.046 9.045 9.046 9.045 9.104 9.105 9.104 9.105 7.652 6.866 7.653 6.866 5.565 5.565 5.565 5.565
# coordination-number C 3.644
# coordination-number O 1.048
# diagonal-C6 Cu 175.00 175.00 175.00 175.00 175.00 175.00 175.00 175.00 175.00 175.00 175.00 175.00 175.00 175.00 175.00 175.00 175.00 175.00 175.00 175.00 175.00 175.00 175.00 175.00 175.00 175.00 175.00 175.00 175.00 175.00 175.00 175.00 175.00 175.00 175.00 175.00 175.00 175.00 175.00 175.00 175.00 175.00 175.00 175.00 175.00 175.00 175.00 175.00
# diagonal-C6 C 19.80
# diagonal-C6 O 12.77
EvdW_6 =   -0.261109
EvdW_8 =   -0.399904

-------- Electronic minimization -----------
	Linear fluid (dielectric constant: 78.4, screening length: 8.12261 Bohr) occupying 0.481127 of unit cell:	Completed after 21 iterations at t[s]:  12703.63
	FillingsUpdate:  mu: -0.154014956  nElectrons: 922.000000  magneticMoment: [ Abs: 0.00000  Tot: +0.00000 ]
ElecMinimize: Iter:   0  F: -9710.405605780011683  |grad|_K:  1.860e-05  alpha:  1.000e+00
	Linear fluid (dielectric constant: 78.4, screening length: 8.12261 Bohr) occupying 0.480443 of unit cell:	Completed after 24 iterations at t[s]:  12832.32
	Linear fluid (dielectric constant: 78.4, screening length: 8.12261 Bohr) occupying 0.480800 of unit cell:	Completed after 20 iterations at t[s]:  12876.89
	FillingsUpdate:  mu: -0.150917466  nElectrons: 922.000000  magneticMoment: [ Abs: 0.00000  Tot: +0.00000 ]
	SubspaceRotationAdjust: set factor to 0.783
ElecMinimize: Iter:   1  F: -9710.475190998911785  |grad|_K:  1.115e-05  alpha:  4.803e-01  linmin:  4.786e-05  t[s]:  12935.02
	Linear fluid (dielectric constant: 78.4, screening length: 8.12261 Bohr) occupying 0.482677 of unit cell:	Completed after 26 iterations at t[s]:  12999.09
	Linear fluid (dielectric constant: 78.4, screening length: 8.12261 Bohr) occupying 0.480605 of unit cell:	Completed after 26 iterations at t[s]:  13044.99
	FillingsUpdate:  mu: -0.161245188  nElectrons: 922.000000  magneticMoment: [ Abs: 0.00000  Tot: +0.00000 ]
	SubspaceRotationAdjust: set factor to 0.601
ElecMinimize: Iter:   2  F: -9710.480955115162942  |grad|_K:  7.126e-06  alpha:  1.065e-01  linmin: -2.965e-04  t[s]:  13101.97
	Linear fluid (dielectric constant: 78.4, screening length: 8.12261 Bohr) occupying 0.480711 of unit cell:	Completed after 16 iterations at t[s]:  13164.07
	Linear fluid (dielectric constant: 78.4, screening length: 8.12261 Bohr) occupying 0.480745 of unit cell:	Completed after 12 iterations at t[s]:  13207.14
	FillingsUpdate:  mu: -0.160934424  nElectrons: 922.000000  magneticMoment: [ Abs: 0.00000  Tot: +0.00000 ]
	SubspaceRotationAdjust: set factor to 0.714
ElecMinimize: Iter:   3  F: -9710.483936887960226  |grad|_K:  4.588e-06  alpha:  1.354e-01  linmin:  5.588e-05  t[s]:  13264.65
	Linear fluid (dielectric constant: 78.4, screening length: 8.12261 Bohr) occupying 0.480926 of unit cell:	Completed after 17 iterations at t[s]:  13326.94
	Linear fluid (dielectric constant: 78.4, screening length: 8.12261 Bohr) occupying 0.480970 of unit cell:	Completed after 12 iterations at t[s]:  13369.87
	FillingsUpdate:  mu: -0.156791892  nElectrons: 922.000000  magneticMoment: [ Abs: 0.00000  Tot: +0.00000 ]
	SubspaceRotationAdjust: set factor to 0.733
ElecMinimize: Iter:   4  F: -9710.485403272905387  |grad|_K:  3.188e-06  alpha:  1.669e-01  linmin:  2.028e-06  t[s]:  13427.19
	Linear fluid (dielectric constant: 78.4, screening length: 8.12261 Bohr) occupying 0.481073 of unit cell:	Completed after 13 iterations at t[s]:  13488.94
	Linear fluid (dielectric constant: 78.4, screening length: 8.12261 Bohr) occupying 0.481074 of unit cell:	Completed after 2 iterations at t[s]:  13529.90
	FillingsUpdate:  mu: -0.156466072  nElectrons: 922.000000  magneticMoment: [ Abs: 0.00000  Tot: +0.00000 ]
	SubspaceRotationAdjust: set factor to 0.842
ElecMinimize: Iter:   5  F: -9710.486125435932991  |grad|_K:  2.021e-06  alpha:  1.692e-01  linmin:  7.882e-07  t[s]:  13587.22
	Linear fluid (dielectric constant: 78.4, screening length: 8.12261 Bohr) occupying 0.481114 of unit cell:	Completed after 17 iterations at t[s]:  13649.08
[...]
force Cu  -0.000004364893690  -0.001275222235624  -0.005810443540270 0
force Cu  -0.000000312618385   0.000100452251467  -0.000242939503223 0
force Cu  -0.000137966370437   0.003004626498250  -0.004871742929220 0
force Cu  -0.000009632237562  -0.000273583776269  -0.000372089401134 0
force Cu  -0.000041953805759   0.003974051305148   0.004779550143653 0
force Cu   0.000010985634484  -0.000737536934676  -0.000222597647278 0
force Cu   0.000184607171690   0.000075991192973   0.000177690935215 0
force Cu   0.000301241931108   0.000152053582742  -0.000097564560302 0
force Cu  -0.000181461315073   0.000051150622821   0.000153701544002 0
force Cu  -0.000307355177900   0.000149299173786  -0.000097236187515 0
force Cu  -0.000182782447491  -0.000007566727227  -0.000265725265732 0
force Cu  -0.000006821248183  -0.000168371065301  -0.000032836387611 0
force Cu   0.000180006520540  -0.000016389600520  -0.000276107758016 0
force Cu   0.000013564218024  -0.000165925143965  -0.000046377088545 0
force Cu   0.001363557453812  -0.000662064031468   0.001505105564897 0
force Cu   0.000163919543543  -0.000184024408641   0.000645957017055 0
force Cu  -0.001380902920873  -0.000658902975812   0.001504624941933 0
force Cu  -0.000175002801984  -0.000174051611290   0.000638672117274 0
force Cu   0.000284231077202   0.000758496560927   0.000434844036608 0
force Cu  -0.000630507370905   0.000844969624819  -0.000439258007645 0
force Cu  -0.000303325316421   0.000697615763632   0.000401602544050 0
force Cu   0.000625706801195   0.000840112098242  -0.000407802677832 0
force Cu  -0.002485156090666  -0.002459079996249   0.002222099112670 0
force Cu  -0.000033401492404  -0.000456100264857  -0.000080711691555 0
force Cu   0.002790076041948  -0.002828816531703   0.001620357501440 0
force Cu   0.000035233499895  -0.000466238095473  -0.000077287120484 0
force Cu   0.001027549508567   0.000058122581338   0.000344563176682 0
force Cu   0.000053070484977   0.000371622826030   0.000258237320003 0
force Cu  -0.001039997624974   0.000067434355244   0.000346156572162 0
force Cu  -0.000049579791484   0.000387455635182   0.000269029882136 0
force C   0.000620370364882  -0.006565020357176   0.000653640047518 1  Linear 0 0 1
force O  -0.000879216973144   0.004037934746768   0.000037615571168 1  Linear 0 0 1

# Energy components:
   A_diel =       -0.0030104899882766
   Eewald =    37708.8758281994087156
       EH =    46596.6434889753218158
     Eloc =   -95843.1547981590701966
      Enl =     1761.0205744837883231
     EvdW =       -0.6610975304187583
      Exc =     -936.7167980685120483
 Exc_core =        2.3531967230981907
       KE =     1001.1556992617890955
-------------------------------------
     Etot =    -9710.4869166045809834
       TS =        0.0019825835193267
-------------------------------------
        F =    -9710.4888991880998219


Dumping 'jdft.fillings' ... done
Dumping 'jdft.wfns' ... done
Dumping 'jdft.fluidState' ... done
Dumping 'jdft.ionpos' ... done
Dumping 'jdft.lattice' ... done
Dumping 'jdft.eigenvals' ... done
Dumping 'jdft.eigStats' ... 
	eMin: -4.317678 at state 0 ( [ +0.000000 +0.000000 +0.000000 ] spin 1 )
	HOMO: -0.156219 at state 2 ( [ +0.166667 +0.000000 +0.000000 ] spin 1 )
	mu  : -0.156179
	LUMO: -0.155655 at state 9 ( [ +0.000000 +0.500000 +0.000000 ] spin -1 )
	eMax: +0.182671 at state 12 ( [ +0.333333 +0.000000 +0.000000 ] spin -1 )
	HOMO-LUMO gap: +0.000564
	Optical gap  : +0.000876 at state 9 ( [ +0.000000 +0.500000 +0.000000 ] spin -1 )
Dumping 'jdft.Ecomponents' ... done
IonicMinimize: Iter:   5  F: -9710.488899188099822  |grad|_K:  4.630e-04  alpha:  1.000e+00  linmin: -1.498e-02  t[s]:  24490.85

#--- Lowdin population analysis ---
# oxidation-state Cu +0.187 +0.190 +0.196 +0.176 +0.095 +0.090 +0.088 +0.092 +0.040 +0.039 +0.037 +0.038 +0.070 +0.070 +0.073 +0.074 +0.068 +0.067 +0.068 +0.069 +0.084 +0.063 -0.025 +0.068 +0.065 +0.065 +0.065 +0.065 +0.068 +0.068 +0.068 +0.068 +0.070 +0.072 +0.070 +0.072 +0.040 +0.038 +0.040 +0.038 +0.048 +0.091 +0.050 +0.091 +0.189 +0.192 +0.189 +0.192
# magnetic-moments Cu -0.000 -0.000 +0.000 +0.000 +0.000 -0.000 +0.000 -0.000 +0.000 +0.000 -0.000 +0.000 -0.000 +0.000 -0.000 +0.000 -0.000 +0.000 -0.000 +0.000 +0.000 -0.000 +0.000 +0.000 -0.000 -0.000 -0.000 -0.000 +0.000 -0.000 +0.000 -0.000 -0.000 -0.000 +0.000 -0.000 -0.000 -0.000 +0.000 -0.000 +0.000 +0.000 -0.000 -0.000 -0.000 +0.000 -0.000 +0.000
# oxidation-state C +0.345
# magnetic-moments C -0.000
# oxidation-state O -0.169
# magnetic-moments O +0.000


Computing DFT-D3 correction:
# coordination-number Cu 5.566 5.570 5.571 5.640 6.865 6.865 6.865 6.865 9.103 9.103 9.103 9.103 9.045 9.045 9.045 9.045 9.020 9.019 9.023 9.019 7.579 7.549 8.519 7.549 7.549 7.549 7.549 7.549 9.019 9.019 9.019 9.019 9.046 9.045 9.046 9.045 9.104 9.105 9.104 9.105 7.637 6.866 7.639 6.866 5.565 5.565 5.565 5.565
# coordination-number C 3.604
# coordination-number O 1.051
# diagonal-C6 Cu 175.00 175.00 175.00 175.00 175.00 175.00 175.00 175.00 175.00 175.00 175.00 175.00 175.00 175.00 175.00 175.00 175.00 175.00 175.00 175.00 175.00 175.00 175.00 175.00 175.00 175.00 175.00 175.00 175.00 175.00 175.00 175.00 175.00 175.00 175.00 175.00 175.00 175.00 175.00 175.00 175.00 175.00 175.00 175.00 175.00 175.00 175.00 175.00
# diagonal-C6 C 20.23
# diagonal-C6 O 12.77
EvdW_6 =   -0.261164
EvdW_8 =   -0.399936

-------- Electronic minimization -----------
	Linear fluid (dielectric constant: 78.4, screening length: 8.12261 Bohr) occupying 0.481217 of unit cell:	Completed after 6 iterations at t[s]:  24559.84
	FillingsUpdate:  mu: -0.156161410  nElectrons: 922.000000  magneticMoment: [ Abs: 0.00000  Tot: +0.00000 ]
ElecMinimize: Iter:   0  F: -9710.488898355484707  |grad|_K:  1.780e-07  alpha:  1.000e+00
	Linear fluid (dielectric constant: 78.4, screening length: 8.12261 Bohr) occupying 0.481208 of unit cell:	Completed after 12 iterations at t[s]:  24687.25
	Linear fluid (dielectric constant: 78.4, screening length: 8.12261 Bohr) occupying 0.481217 of unit cell:	Completed after 12 iterations at t[s]:  24729.86
	FillingsUpdate:  mu: -0.156184578  nElectrons: 922.000000  magneticMoment: [ Abs: 0.00000  Tot: -0.00000 ]
	SubspaceRotationAdjust: set factor to 0.758
ElecMinimize: Iter:   1  F: -9710.488899219682935  |grad|_K:  6.038e-08  alpha:  6.486e-02  linmin:  2.641e-05  t[s]:  24787.42
	Linear fluid (dielectric constant: 78.4, screening length: 8.12261 Bohr) occupying 0.481217 of unit cell:	Completed after 2 iterations at t[s]:  24846.67
	Linear fluid (dielectric constant: 78.4, screening length: 8.12261 Bohr) occupying 0.481217 of unit cell:	Completed after 2 iterations at t[s]:  24887.54
	FillingsUpdate:  mu: -0.156183427  nElectrons: 922.000000  magneticMoment: [ Abs: 0.00000  Tot: -0.00000 ]
	SubspaceRotationAdjust: set factor to 0.915
ElecMinimize: Iter:   2  F: -9710.488899451587713  |grad|_K:  4.472e-08  alpha:  1.478e-01  linmin: -3.786e-04  t[s]:  24944.80
	Linear fluid (dielectric constant: 78.4, screening length: 8.12261 Bohr) occupying 0.481218 of unit cell:	Completed after 2 iterations at t[s]:  25004.23
	Linear fluid (dielectric constant: 78.4, screening length: 8.12261 Bohr) occupying 0.481218 of unit cell:	Completed after 2 iterations at t[s]:  25045.26
	FillingsUpdate:  mu: -0.156191241  nElectrons: 922.000000  magneticMoment: [ Abs: 0.00000  Tot: -0.00000 ]
	SubspaceRotationAdjust: set factor to 1.08
ElecMinimize: Iter:   3  F: -9710.488899630548985  |grad|_K:  2.954e-08  alpha:  2.071e-01  linmin: -5.537e-06  t[s]:  25102.38
	Linear fluid (dielectric constant: 78.4, screening length: 8.12261 Bohr) occupying 0.481219 of unit cell:	Completed after 2 iterations at t[s]:  25161.75
	Linear fluid (dielectric constant: 78.4, screening length: 8.12261 Bohr) occupying 0.481219 of unit cell:	Completed after 0 iterations at t[s]:  25202.23
	FillingsUpdate:  mu: -0.156182835  nElectrons: 922.000000  magneticMoment: [ Abs: 0.00000  Tot: -0.00000 ]
	SubspaceRotationAdjust: set factor to 0.817
ElecMinimize: Iter:   4  F: -9710.488899690844846  |grad|_K:  3.689e-08  alpha:  1.604e-01  linmin:  6.372e-04  t[s]:  25259.45
	Linear fluid (dielectric constant: 78.4, screening length: 8.12261 Bohr) occupying 0.481219 of unit cell:	Completed after 2 iterations at t[s]:  25318.93
	Linear fluid (dielectric constant: 78.4, screening length: 8.12261 Bohr) occupying 0.481219 of unit cell:	Completed after 2 iterations at t[s]:  25359.89
	FillingsUpdate:  mu: -0.156176903  nElectrons: 922.000000  magneticMoment: [ Abs: 0.00000  Tot: -0.00000 ]
	SubspaceRotationAdjust: set factor to 0.649
ElecMinimize: Iter:   5  F: -9710.488899729614786  |grad|_K:  1.862e-08  alpha:  8.590e-02  linmin:  2.017e-04  t[s]:  25417.47
ElecMinimize: Converged (|Delta F|<1.000000e-07 for 2 iters).
Setting wave functions to eigenvectors of Hamiltonian
Converging empty states (this may take a while): |deigs|: 7.719e-10

Computing DFT-D3 correction:
# coordination-number Cu 5.566 5.570 5.571 5.640 6.865 6.865 6.865 6.865 9.103 9.103 9.103 9.103 9.045 9.045 9.045 9.045 9.020 9.019 9.023 9.019 7.579 7.549 8.519 7.549 7.549 7.549 7.549 7.549 9.019 9.019 9.019 9.019 9.046 9.045 9.046 9.045 9.104 9.105 9.104 9.105 7.637 6.866 7.639 6.866 5.565 5.565 5.565 5.565
# coordination-number C 3.604
# coordination-number O 1.051
# diagonal-C6 Cu 175.00 175.00 175.00 175.00 175.00 175.00 175.00 175.00 175.00 175.00 175.00 175.00 175.00 175.00 175.00 175.00 175.00 175.00 175.00 175.00 175.00 175.00 175.00 175.00 175.00 175.00 175.00 175.00 175.00 175.00 175.00 175.00 175.00 175.00 175.00 175.00 175.00 175.00 175.00 175.00 175.00 175.00 175.00 175.00 175.00 175.00 175.00 175.00
# diagonal-C6 C 20.23
# diagonal-C6 O 12.77
EvdW_6 =   -0.261164
EvdW_8 =   -0.399936

# Ionic positions in cartesian coordinates:
ion Cu   9.533169000000001   0.029049000000000  15.714320000000001 0
ion Cu   9.533169000000001  11.704867999999999  15.714320000000001 0
ion Cu   4.766546000000001   0.029049000000000  15.714320000000001 0
ion Cu   4.766546000000001  11.704867999999999  15.714320000000001 0
ion Cu   0.000000000000000   3.882763000000000   2.011863000000000 0
ion Cu   0.000000000000000  15.558558000000000   2.011863000000000 0
ion Cu   4.766623000000001   3.882763000000000   2.011863000000000 0
ion Cu   4.766623000000001  15.558558000000000   2.011863000000000 0
ion Cu   0.000048000000000   7.846205000000000   4.822845000000000 0
ion Cu   0.000048000000000  19.521999999999998   4.822845000000000 0
ion Cu   4.766661000000001   7.846205000000000   4.822845000000000 0
ion Cu   4.766661000000001  19.521999999999998   4.822845000000000 0
ion Cu   0.000019000000000   0.010648000000000   7.572401000000000 0
ion Cu   0.000019000000000  11.686444000000000   7.572401000000000 0
ion Cu   4.766642000000000   0.010648000000000   7.572401000000000 0
ion Cu   4.766642000000000  11.686444000000000   7.572401000000000 0
ion Cu   0.000048000000000   3.891052000000000  10.322502999999999 0
ion Cu   0.000048000000000  15.566848000000002  10.322502999999999 0
ion Cu   4.766661000000001   3.891052000000000  10.322502999999999 0
ion Cu   4.766661000000001  15.566848000000002  10.322502999999999 0
ion Cu   9.533188000000003   7.731151000000000  13.180692000000001 0
ion Cu   9.533188000000003  19.406946999999999  13.180692000000001 0
ion Cu   4.766565000000001   7.731151000000000  13.180692000000001 0
ion Cu   4.766565000000001  19.406946999999999  13.180692000000001 0
ion Cu   2.383292000000000   0.052658000000000   3.331310000000000 0
ion Cu   2.383292000000000  11.728453999999999   3.331310000000000 0
ion Cu   7.149905000000001   0.052658000000000   3.331310000000000 0
ion Cu   7.149905000000001  11.728453999999999   3.331310000000000 0
ion Cu   2.383321000000000   3.893061000000000   6.189945000000000 0
ion Cu   2.383321000000000  15.568833000000000   6.189945000000000 0
ion Cu   7.149943000000000   3.893061000000000   6.189945000000000 0
ion Cu   7.149943000000000  15.568833000000000   6.189945000000000 0
ion Cu   2.383359000000000   7.773301000000000   8.939650000000000 0
ion Cu   2.383359000000000  19.449120000000001   8.939650000000000 0
ion Cu   7.149981000000001   7.773301000000000   8.939650000000000 0
ion Cu   7.149981000000001  19.449120000000001   8.939650000000000 0
ion Cu   2.383292000000000  23.288868999999998  11.688513000000000 0
ion Cu   2.383292000000000  11.613097000000000  11.688513000000000 0
ion Cu   7.149905000000001  23.288868999999998  11.688513000000000 0
ion Cu   7.149905000000001  11.613097000000000  11.688513000000000 0
ion Cu   2.383302000000000   3.900837000000000  14.500237000000000 0
ion Cu   2.383302000000000  15.576631999999998  14.500237000000000 0
ion Cu   7.149924000000001   3.900837000000000  14.500237000000000 0
ion Cu   7.149924000000001  15.576631999999998  14.500237000000000 0
ion Cu   2.383321000000000   7.755134000000001   0.798177000000000 0
ion Cu   2.383321000000000  19.430952999999999   0.798177000000000 0
ion Cu   7.149943000000000   7.755134000000001   0.798177000000000 0
ion Cu   7.149943000000000  19.430952999999999   0.798177000000000 0
ion C   4.766594000000001   6.502180999999999  16.665800546276866 1  Linear 0 0 1
ion O   4.826682000000001   6.502180999999999  18.900939061979994 1  Linear 0 0 1

# Forces in Cartesian coordinates:
force Cu  -0.000003266842403  -0.000312189348806  -0.000801036991315 0
force Cu   0.000020356573481   0.001850676013868  -0.000738749816716 0
force Cu   0.000001572009889  -0.003101524465696  -0.000629059127990 0
force Cu  -0.000031907506761   0.001815304166976  -0.000781278736388 0
force Cu   0.000013198483947   0.000189762334197  -0.000684794495099 0
force Cu  -0.000000346332343   0.000226558652106   0.000923169758994 0
force Cu  -0.000022155498953  -0.000036384856515   0.000252831184857 0
force Cu  -0.000009541598401   0.000013471957220  -0.000104681872686 0
force Cu   0.000008928253729  -0.000221044642679   0.001200217293412 0
force Cu  -0.000006206964182   0.000283426606543  -0.000413937255523 0
force Cu  -0.000014242404377   0.000262356880894  -0.000950772517545 0
force Cu  -0.000001628649862  -0.000429972769092  -0.000018814327470 0
force Cu  -0.000004165415602   0.000552410138770  -0.000593032770425 0
force Cu  -0.000008666269603   0.000900420646171  -0.001031336191681 0
force Cu   0.000019553959074  -0.000447980456840  -0.000497737777445 0
force Cu   0.000011799429363   0.000209381022312  -0.000209208224751 0
force Cu   0.000000961545596   0.000559234604636   0.001246866141343 0
force Cu  -0.000008355149946  -0.000717312463763   0.000463051562659 0
force Cu  -0.000004524074907  -0.001213453979108  -0.005745941668203 0
force Cu  -0.000000338608447   0.000111690061209  -0.000331572531179 0
force Cu  -0.000137133969540   0.002970183674048  -0.004849978124690 0
force Cu  -0.000009659886623  -0.000280157342950  -0.000463897672398 0
force Cu  -0.000042387759069   0.003949624906815   0.004787011714300 0
force Cu   0.000011007072396  -0.000745012772007  -0.000317782790055 0
force Cu   0.000184663163741   0.000023573332971   0.000177680315731 0
force Cu   0.000303700273630   0.000181180610143  -0.000098022028648 0
force Cu  -0.000181519558907  -0.000001345510467   0.000153692622563 0
force Cu  -0.000309839755114   0.000178322190491  -0.000097893762852 0
force Cu  -0.000180788880194  -0.000018395467632  -0.000300802677808 0
force Cu  -0.000003297726869  -0.000104598286221  -0.000057945190062 0
force Cu   0.000178054006548  -0.000027356968874  -0.000311255143535 0
force Cu   0.000009791618239  -0.000102062721617  -0.000071247626327 0
force Cu   0.001365308571393  -0.000653257975753   0.001575067677761 0
force Cu   0.000166307639056  -0.000213674312294   0.000553733435647 0
force Cu  -0.001382603619250  -0.000650213517998   0.001574566229345 0
force Cu  -0.000177556661182  -0.000203986046450   0.000546392792579 0
force Cu   0.000285023739799   0.000780277042045   0.000381142113114 0
force Cu  -0.000624598769381   0.000775394509076  -0.000451187413887 0
force Cu  -0.000304285294380   0.000719192232558   0.000347816775473 0
force Cu   0.000619843596015   0.000770731462182  -0.000419685481406 0
force Cu  -0.002483381259909  -0.002358873974346   0.002203378535999 0
force Cu  -0.000032194485967  -0.000499427534631  -0.000122111155812 0
force Cu   0.002787826558636  -0.002728404248420   0.001602221390289 0
force Cu   0.000033935699357  -0.000509499153679  -0.000118785158463 0
force Cu   0.001025764808027   0.000043132650740   0.000372497862141 0
force Cu   0.000055649959854   0.000368963826719   0.000342911539136 0
force Cu  -0.001038197985768   0.000052300067365   0.000374191561680 0
force Cu  -0.000052283333088   0.000384868634945   0.000353871153977 0
force C   0.000623546888959  -0.006534550670524   0.000983829948002 1  Linear 0 0 1
force O  -0.000898226496415   0.004041906789403  -0.000540951814421 1  Linear 0 0 1

# Energy components:
   A_diel =       -0.0030145613983956
   Eewald =    37708.6637816976799513
       EH =    46596.4347657678154064
     Eloc =   -95842.7334144037158694
      Enl =     1761.0202577051502431
     EvdW =       -0.6610995566793973
      Exc =     -936.7165197780926746
 Exc_core =        2.3531970551482524
       KE =     1001.1551289603373789
-------------------------------------
     Etot =    -9710.4869171137634112
       TS =        0.0019826158522623
-------------------------------------
        F =    -9710.4888997296147863


Dumping 'jdft.fillings' ... done
Dumping 'jdft.wfns' ... done
Dumping 'jdft.fluidState' ... done
Dumping 'jdft.ionpos' ... done
Dumping 'jdft.lattice' ... done
Dumping 'jdft.eigenvals' ... done
Dumping 'jdft.eigStats' ... 
	eMin: -4.317615 at state 0 ( [ +0.000000 +0.000000 +0.000000 ] spin 1 )
	HOMO: -0.156216 at state 2 ( [ +0.166667 +0.000000 +0.000000 ] spin 1 )
	mu  : -0.156177
	LUMO: -0.155645 at state 9 ( [ +0.000000 +0.500000 +0.000000 ] spin -1 )
	eMax: +0.182672 at state 12 ( [ +0.333333 +0.000000 +0.000000 ] spin -1 )
	HOMO-LUMO gap: +0.000571
	Optical gap  : +0.000884 at state 9 ( [ +0.000000 +0.500000 +0.000000 ] spin -1 )
Dumping 'jdft.Ecomponents' ... done
IonicMinimize: Iter:   6  F: -9710.488899729614786  |grad|_K:  7.939e-04  alpha:  1.000e+00  linmin: -8.583e-03  t[s]:  25587.89
IonicMinimize: Converged (|Delta F|<1.000000e-06 for 2 iters).

#--- Lowdin population analysis ---
# oxidation-state Cu +0.187 +0.190 +0.196 +0.176 +0.095 +0.090 +0.088 +0.092 +0.040 +0.039 +0.037 +0.039 +0.070 +0.070 +0.073 +0.074 +0.068 +0.067 +0.068 +0.069 +0.085 +0.063 -0.024 +0.067 +0.065 +0.065 +0.065 +0.065 +0.068 +0.068 +0.068 +0.068 +0.070 +0.072 +0.070 +0.072 +0.039 +0.038 +0.039 +0.038 +0.048 +0.091 +0.050 +0.091 +0.189 +0.192 +0.189 +0.192
# magnetic-moments Cu +0.000 -0.000 -0.000 +0.000 -0.000 -0.000 +0.000 +0.000 +0.000 -0.000 -0.000 +0.000 +0.000 +0.000 -0.000 +0.000 -0.000 -0.000 +0.000 +0.000 +0.000 +0.000 +0.000 -0.000 -0.000 -0.000 -0.000 -0.000 -0.000 -0.000 -0.000 -0.000 -0.000 +0.000 -0.000 +0.000 +0.000 -0.000 +0.000 -0.000 -0.000 +0.000 -0.000 -0.000 +0.000 +0.000 -0.000 +0.000
# oxidation-state C +0.345
# magnetic-moments C +0.000
# oxidation-state O -0.169
# magnetic-moments O -0.000


Dumping 'jdft.n_up' ... done
Dumping 'jdft.n_dn' ... done
Dumping 'jdft.tau_up' ... done
Dumping 'jdft.tau_dn' ... done
Dumping 'jdft.eigenvals' ... done
Dumping 'jdft.eigStats' ... 
	eMin: -4.317615 at state 0 ( [ +0.000000 +0.000000 +0.000000 ] spin 1 )
	HOMO: -0.156216 at state 2 ( [ +0.166667 +0.000000 +0.000000 ] spin 1 )
	mu  : -0.156177
	LUMO: -0.155645 at state 9 ( [ +0.000000 +0.500000 +0.000000 ] spin -1 )
	eMax: +0.182672 at state 12 ( [ +0.333333 +0.000000 +0.000000 ] spin -1 )
	HOMO-LUMO gap: +0.000571
	Optical gap  : +0.000884 at state 9 ( [ +0.000000 +0.500000 +0.000000 ] spin -1 )
Dumping 'jdft.kPts' ... done
Dumping 'jdft.kMap' ... done
Dumping 'jdft.dosUp' ... done.
Dumping 'jdft.dosDn' ... done.
End date and time: Wed Feb 16 21:21:03 2022  (Duration: 0-7:07:58.11)
Done!
