
*************** JDFTx 1.7.0 (git hash 5f12716a) ***************

Start date and time: Thu Sep  8 22:41:42 2022
Executable /home/nisi6161/jdftx_alpine/build/jdftx with command-line: -i in
Running on hosts (process indices):  c3cpu-a2-u13-4.rc.int.colorado.edu (0-17)
Divided in process groups (process indices):  0 (0)  1 (1)  2 (2)  3 (3)  4 (4)  5 (5)  6 (6)  7 (7)  8 (8)  9 (9)  10 (10)  11 (11)  12 (12)  13 (13)  14 (14)  15 (15)  16 (16)  17 (17)
Resource initialization completed at t[s]:      0.00
Run totals: 18 processes, 64 threads, 0 GPUs


Input parsed successfully to the following command list (including defaults):

basis kpoint-dependent
converge-empty-states yes
coords-type Cartesian
core-overlap-check none
coulomb-interaction Periodic
davidson-band-ratio 1.1
density-of-states Etol 1.000000e-06 Esigma 1.000000e-03 \
		Complete \
	Total \
	OrthoOrbital Pt 1   s \
	OrthoOrbital Pt 1   p \
	OrthoOrbital Pt 1   px \
	OrthoOrbital Pt 1   py \
	OrthoOrbital Pt 1   pz \
	OrthoOrbital Pt 1   d \
	OrthoOrbital Pt 1   dxy \
	OrthoOrbital Pt 1   dyz \
	OrthoOrbital Pt 1   dz2 \
	OrthoOrbital Pt 1   dxz \
	OrthoOrbital Pt 1   dx2-y2 \
	OrthoOrbital Pt 2   s \
	OrthoOrbital Pt 2   p \
	OrthoOrbital Pt 2   px \
	OrthoOrbital Pt 2   py \
	OrthoOrbital Pt 2   pz \
	OrthoOrbital Pt 2   d \
	OrthoOrbital Pt 2   dxy \
	OrthoOrbital Pt 2   dyz \
	OrthoOrbital Pt 2   dz2 \
	OrthoOrbital Pt 2   dxz \
	OrthoOrbital Pt 2   dx2-y2 \
	OrthoOrbital Pt 3   s \
	OrthoOrbital Pt 3   p \
	OrthoOrbital Pt 3   px \
	OrthoOrbital Pt 3   py \
	OrthoOrbital Pt 3   pz \
	OrthoOrbital Pt 3   d \
	OrthoOrbital Pt 3   dxy \
	OrthoOrbital Pt 3   dyz \
	OrthoOrbital Pt 3   dz2 \
	OrthoOrbital Pt 3   dxz \
	OrthoOrbital Pt 3   dx2-y2 \
	OrthoOrbital Pt 4   s \
	OrthoOrbital Pt 4   p \
	OrthoOrbital Pt 4   px \
	OrthoOrbital Pt 4   py \
	OrthoOrbital Pt 4   pz \
	OrthoOrbital Pt 4   d \
	OrthoOrbital Pt 4   dxy \
	OrthoOrbital Pt 4   dyz \
	OrthoOrbital Pt 4   dz2 \
	OrthoOrbital Pt 4   dxz \
	OrthoOrbital Pt 4   dx2-y2 \
	OrthoOrbital Pt 5   s \
	OrthoOrbital Pt 5   p \
	OrthoOrbital Pt 5   px \
	OrthoOrbital Pt 5   py \
	OrthoOrbital Pt 5   pz \
	OrthoOrbital Pt 5   d \
	OrthoOrbital Pt 5   dxy \
	OrthoOrbital Pt 5   dyz \
	OrthoOrbital Pt 5   dz2 \
	OrthoOrbital Pt 5   dxz \
	OrthoOrbital Pt 5   dx2-y2 \
	OrthoOrbital Pt 6   s \
	OrthoOrbital Pt 6   p \
	OrthoOrbital Pt 6   px \
	OrthoOrbital Pt 6   py \
	OrthoOrbital Pt 6   pz \
	OrthoOrbital Pt 6   d \
	OrthoOrbital Pt 6   dxy \
	OrthoOrbital Pt 6   dyz \
	OrthoOrbital Pt 6   dz2 \
	OrthoOrbital Pt 6   dxz \
	OrthoOrbital Pt 6   dx2-y2 \
	OrthoOrbital Pt 7   s \
	OrthoOrbital Pt 7   p \
	OrthoOrbital Pt 7   px \
	OrthoOrbital Pt 7   py \
	OrthoOrbital Pt 7   pz \
	OrthoOrbital Pt 7   d \
	OrthoOrbital Pt 7   dxy \
	OrthoOrbital Pt 7   dyz \
	OrthoOrbital Pt 7   dz2 \
	OrthoOrbital Pt 7   dxz \
	OrthoOrbital Pt 7   dx2-y2 \
	OrthoOrbital Pt 8   s \
	OrthoOrbital Pt 8   p \
	OrthoOrbital Pt 8   px \
	OrthoOrbital Pt 8   py \
	OrthoOrbital Pt 8   pz \
	OrthoOrbital Pt 8   d \
	OrthoOrbital Pt 8   dxy \
	OrthoOrbital Pt 8   dyz \
	OrthoOrbital Pt 8   dz2 \
	OrthoOrbital Pt 8   dxz \
	OrthoOrbital Pt 8   dx2-y2
dump End ElecDensity KEdensity BandEigs EigStats RhoAtom DOS Kpoints
dump Ionic State IonicPositions Lattice EigStats Ecomponents
dump 
dump 
dump 
dump 
dump 
dump 
dump 
dump 
dump-name jdft.$VAR
elec-cutoff 20
elec-eigen-algo Davidson
elec-ex-corr gga-PBE
elec-initial-magnetization 0.000000 no
elec-n-bands 77
elec-smearing Fermi 0.001
electronic-minimize  \
	dirUpdateScheme      FletcherReeves \
	linminMethod         DirUpdateRecommended \
	nIterations          100 \
	history              15 \
	knormThreshold       0 \
	energyDiffThreshold  1e-07 \
	nEnergyDiff          2 \
	alphaTstart          1 \
	alphaTmin            1e-10 \
	updateTestStepSize   yes \
	alphaTreduceFactor   0.1 \
	alphaTincreaseFactor 3 \
	nAlphaAdjustMax      3 \
	wolfeEnergy          0.0001 \
	wolfeGradient        0.9 \
	fdTest               no
exchange-regularization WignerSeitzTruncated
fluid LinearPCM 298.000000 1.013250
fluid-anion F- 0.5 MeanFieldLJ \
	epsBulk 1 \
	pMol 0 \
	epsInf 1 \
	Pvap 0 \
	sigmaBulk 0 \
	Rvdw 2.24877 \
	Res 0 \
	tauNuc 343133
fluid-cation Na+ 0.5 MeanFieldLJ \
	epsBulk 1 \
	pMol 0 \
	epsInf 1 \
	Pvap 0 \
	sigmaBulk 0 \
	Rvdw 2.19208 \
	Res 0 \
	tauNuc 343133
fluid-ex-corr lda-TF lda-PZ
fluid-gummel-loop 10 1.000000e-05
fluid-minimize  \
	dirUpdateScheme      PolakRibiere \
	linminMethod         DirUpdateRecommended \
	nIterations          400 \
	history              15 \
	knormThreshold       1e-11 \
	energyDiffThreshold  0 \
	nEnergyDiff          2 \
	alphaTstart          1 \
	alphaTmin            1e-10 \
	updateTestStepSize   yes \
	alphaTreduceFactor   0.1 \
	alphaTincreaseFactor 3 \
	nAlphaAdjustMax      6 \
	wolfeEnergy          0.0001 \
	wolfeGradient        0.9 \
	fdTest               no
fluid-solvent H2O 55.338 ScalarEOS \
	epsBulk 78.4 \
	pMol 0.92466 \
	epsInf 1.77 \
	Pvap 1.06736e-10 \
	sigmaBulk 4.62e-05 \
	Rvdw 2.61727 \
	Res 1.42 \
	tauNuc 343133 \
	poleEl 15 7 1
forces-output-coords Positions
ion Pt   0.000021000000000   7.399062000000000  48.567878999999991 1
ion Pt  -0.000010000000000   0.000052000000000  43.168615999999993 1
ion Pt   2.615982000000000   3.699357000000000  50.884186999999997 1
ion Pt   2.616029000000000   3.699668000000000  45.750554000000001 1
ion Pt   5.231932999999999  -0.000015000000000  37.961996999999990 1
ion Pt   0.000058000000000   0.000111000000000  32.827997000000003 1
ion Pt   2.615934999999999   3.699594000000000  40.542468999999997 1
ion Pt   2.616040000000000   3.699653000000000  35.143991999999997 1
ion-species /projects/musgravc/apps/jdftx-1.6.0/build/pseudopotentials/GBRV_v1.5/$ID_pbe_v1.uspp
ion-species /projects/musgravc/apps/jdftx-1.6.0/build/pseudopotentials/GBRV_v1.5/$ID_pbe_v1.2.uspp
ion-species /projects/musgravc/apps/jdftx-1.6.0/build/pseudopotentials/GBRV_v1.5/$ID_pbe_v1.4.uspp
ion-species /projects/musgravc/apps/jdftx-1.6.0/build/pseudopotentials/GBRV_v1.5/$ID_pbe_v1.5.uspp
ion-width Ecut
ionic-minimize  \
	dirUpdateScheme      L-BFGS \
	linminMethod         DirUpdateRecommended \
	nIterations          100 \
	history              15 \
	knormThreshold       0.0001 \
	energyDiffThreshold  0.0001 \
	nEnergyDiff          2 \
	alphaTstart          1 \
	alphaTmin            1e-10 \
	updateTestStepSize   yes \
	alphaTreduceFactor   0.1 \
	alphaTincreaseFactor 3 \
	nAlphaAdjustMax      3 \
	wolfeEnergy          0.0001 \
	wolfeGradient        0.9 \
	fdTest               no
kpoint   0.000000000000   0.000000000000   0.000000000000  1.00000000000000
kpoint-folding 12 8 1 
latt-move-scale 0 0 0
latt-scale 1 1 1 
lattice  \
	   5.231996000000000    0.000000000000000    0.000000000000000  \
	   0.000000000000000    7.399158000000000    0.000000000000000  \
	  -0.000000000000000    0.000000000000000   52.319952000000001 
lattice-minimize  \
	dirUpdateScheme      L-BFGS \
	linminMethod         DirUpdateRecommended \
	nIterations          0 \
	history              15 \
	knormThreshold       0 \
	energyDiffThreshold  1e-06 \
	nEnergyDiff          2 \
	alphaTstart          1 \
	alphaTmin            1e-10 \
	updateTestStepSize   yes \
	alphaTreduceFactor   0.1 \
	alphaTincreaseFactor 3 \
	nAlphaAdjustMax      3 \
	wolfeEnergy          0.0001 \
	wolfeGradient        0.9 \
	fdTest               no
lcao-params 30 1e-06 0.001
pcm-variant CANDLE
spintype z-spin
subspace-rotation-factor 1 yes
symmetries automatic
symmetry-threshold 0.0001
target-mu -0.24475 no

van-der-waals D3



---------- Setting up symmetries ----------

Found 8 point-group symmetries of the bravais lattice
Found 1 space-group symmetries with basis
Applied RMS atom displacement 0 bohrs to make symmetries exact.

---------- Initializing the Grid ----------
R = 
[        5.232            0            0  ]
[            0      7.39916            0  ]
[            0            0        52.32  ]
unit cell volume = 2025.43
G =
[    1.20092          0          0  ]
[         -0   0.849176          0  ]
[          0         -0   0.120092  ]
Minimum fftbox size, Smin = [  24  32  212  ]
Chosen fftbox size, S = [  24  32  216  ]

---------- Exchange Correlation functional ----------
Initalized PBE GGA exchange.
Initalized PBE GGA correlation.

---------- Setting up pseudopotentials ----------
Width of ionic core gaussian charges (only for fluid interactions / plotting) set to 0.397384

Reading pseudopotential file '/projects/musgravc/apps/jdftx-1.6.0/build/pseudopotentials/GBRV_v1.5/pt_pbe_v1.4.uspp':
  Title: Pt.  Created by USPP 7.3.6 on 31-3-15
  Reference state energy: -105.002503.  16 valence electrons in orbitals:
    |510>  occupation: 6  eigenvalue: -2.158104
    |520>  occupation: 9.5  eigenvalue: -0.335376
    |600>  occupation: 0  eigenvalue: -0.319640
    |610>  occupation: 0  eigenvalue: -0.122947
  lMax: 2  lLocal: 3  QijEcut: 5.5
  6 projectors sampled on a log grid with 745 points:
    l: 0  eig: -0.319640  rCut: 2.45
    l: 0  eig: 1.500000  rCut: 2.45
    l: 1  eig: -2.158104  rCut: 1.6
    l: 1  eig: -0.122947  rCut: 1.6
    l: 2  eig: -0.500000  rCut: 1.6
    l: 2  eig: -0.335375  rCut: 1.6
  Partial core density with radius 1.1
  Transforming core density to a uniform radial grid of dG=0.02 with 1189 points.
  Transforming local potential to a uniform radial grid of dG=0.02 with 1189 points.
  Transforming nonlocal projectors to a uniform radial grid of dG=0.02 with 432 points.
  Transforming density augmentations to a uniform radial grid of dG=0.02 with 1189 points.
  Transforming atomic orbitals to a uniform radial grid of dG=0.02 with 432 points.
  Core radius for overlap checks: 2.45 bohrs.

Initialized 1 species with 8 total atoms.

Folded 1 k-points by 12x8x1 to 96 k-points.

---------- Setting up k-points, bands, fillings ----------
Adding inversion symmetry to k-mesh for non-inversion-symmetric unit cell.
Reduced to 50 k-points under symmetry. 
Computing the number of bands and number of electrons
Calculating initial fillings.
nElectrons: 128.000000   nBands: 77   nStates: 100

----- Setting up reduced wavefunction bases (one per k-point) -----
average nbasis = 8653.510 , ideal nbasis = 8652.787

----- Initializing Supercell corresponding to k-point mesh -----
Lattice vector linear combinations in supercell:
[  12   0   0  ]
[   0   8   0  ]
[   0   0   1  ]
Supercell lattice vectors:
[  62.784  0  0  ]
[  0  59.1933  0  ]
[  0  0  52.32  ]

Initializing DFT-D3 calculator:
	Parameters set for gga-PBE functional
	s6:  1.000  s_r6:  1.217
	s8:  0.722  s_r8:  1.000
	Per-atom parameters loaded for:
	Pt:  sqrtQ[a0]:  5.888  Rcov[a0]:  2.116  CN: [ 0.00 1.92 6.67 ]

Initializing DFT-D2 calculator for fluid / solvation:
	Pt:  C6:  815.23 Eh-a0^6  R0: 3.326 a0 (WARNING: beyond Grimme's data set)

---------- Setting up ewald sum ----------
Optimum gaussian width for ewald sums = 3.569171 bohr.
Real space sum over 1105 unit cells with max indices [  8  6  2  ]
Reciprocal space sum over 4851 terms with max indices [  4  5  24  ]

Computing DFT-D3 correction:
# coordination-number Pt 8.640 9.487 5.939 9.406 9.408 5.939 9.489 8.640
# diagonal-C6 Pt 336.87 336.87 336.87 336.87 336.87 336.87 336.87 336.87
EvdW_6 =   -0.066553
EvdW_8 =   -0.109909

---------- Allocating electronic variables ----------
Initializing wave functions:  linear combination of atomic orbitals
Pt pseudo-atom occupations:   s ( 0 )  p ( 6 0 )  d ( 10 )
	FillingsUpdate:  mu: -0.244750000  nElectrons: 128.000000  magneticMoment: [ Abs: 0.00238  Tot: -0.00037 ]
LCAOMinimize: Iter:   0  G: -677.0151142977214249  |grad|_K:  1.373e-02  alpha:  1.000e+00
LCAOMinimize: 	Step increased G by 5.593000e+01, reducing alpha to 2.033471e-02.
	FillingsUpdate:  mu: -0.244750000  nElectrons: 128.000000  magneticMoment: [ Abs: 0.00186  Tot: -0.00002 ]
LCAOMinimize: Iter:   1  G: -679.3002136905549833  |grad|_K:  3.360e-03  alpha:  2.033e-02  linmin: -5.524e-02  cgtest:  1.599e-01  t[s]:     76.07
LCAOMinimize: 	Predicted alpha/alphaT>3.000000, increasing alphaT to 6.100412e-02.
	FillingsUpdate:  mu: -0.244750000  nElectrons: 128.000000  magneticMoment: [ Abs: 0.00130  Tot: +0.00001 ]
LCAOMinimize: Iter:   2  G: -679.9396468885394142  |grad|_K:  2.059e-03  alpha:  1.296e-01  linmin:  3.297e-02  cgtest: -1.482e-01  t[s]:    106.49
	FillingsUpdate:  mu: -0.244750000  nElectrons: 128.000000  magneticMoment: [ Abs: 0.00121  Tot: -0.00002 ]
LCAOMinimize: Iter:   3  G: -680.0059271644200862  |grad|_K:  3.093e-03  alpha:  4.593e-02  linmin:  9.334e-03  cgtest:  2.597e-02  t[s]:    129.98
	FillingsUpdate:  mu: -0.244750000  nElectrons: 128.000000  magneticMoment: [ Abs: 0.00112  Tot: +0.00001 ]
LCAOMinimize: Iter:   4  G: -680.0924449058848040  |grad|_K:  3.761e-03  alpha:  2.222e-02  linmin: -4.106e-04  cgtest: -4.352e-03  t[s]:    154.18
	FillingsUpdate:  mu: -0.244750000  nElectrons: 128.000000  magneticMoment: [ Abs: 0.00104  Tot: -0.00010 ]
LCAOMinimize: Iter:   5  G: -680.2216108989780423  |grad|_K:  9.508e-04  alpha:  1.928e-02  linmin: -9.964e-04  cgtest: -5.789e-01  t[s]:    177.89
	FillingsUpdate:  mu: -0.244750000  nElectrons: 128.000000  magneticMoment: [ Abs: 0.00103  Tot: -0.00008 ]
LCAOMinimize: Iter:   6  G: -680.2273389754187747  |grad|_K:  7.668e-04  alpha:  1.306e-02  linmin: -5.861e-05  cgtest: -6.960e-02  t[s]:    201.35
LCAOMinimize: 	Predicted alpha/alphaT>3.000000, increasing alphaT to 3.919423e-02.
	FillingsUpdate:  mu: -0.244750000  nElectrons: 128.000000  magneticMoment: [ Abs: 0.00096  Tot: -0.00000 ]
LCAOMinimize: Iter:   7  G: -680.2431877737222976  |grad|_K:  8.450e-04  alpha:  5.852e-02  linmin:  2.318e-03  cgtest:  9.410e-02  t[s]:    231.72
	FillingsUpdate:  mu: -0.244750000  nElectrons: 128.000000  magneticMoment: [ Abs: 0.00095  Tot: +0.00002 ]
LCAOMinimize: Iter:   8  G: -680.2474751180404837  |grad|_K:  8.575e-04  alpha:  1.436e-02  linmin:  2.139e-03  cgtest: -9.760e-03  t[s]:    255.53
	FillingsUpdate:  mu: -0.244750000  nElectrons: 128.000000  magneticMoment: [ Abs: 0.00092  Tot: +0.00002 ]
LCAOMinimize: Iter:   9  G: -680.2549050410073050  |grad|_K:  6.637e-04  alpha:  2.271e-02  linmin:  7.427e-05  cgtest:  9.917e-02  t[s]:    280.04
	FillingsUpdate:  mu: -0.244750000  nElectrons: 128.000000  magneticMoment: [ Abs: 0.00087  Tot: +0.00006 ]
LCAOMinimize: Iter:  10  G: -680.2654130694907053  |grad|_K:  9.331e-04  alpha:  5.280e-02  linmin:  2.358e-03  cgtest: -1.121e-01  t[s]:    303.19
	FillingsUpdate:  mu: -0.244750000  nElectrons: 128.000000  magneticMoment: [ Abs: 0.00086  Tot: +0.00007 ]
LCAOMinimize: Iter:  11  G: -680.2680469341017897  |grad|_K:  3.984e-04  alpha:  6.310e-03  linmin: -8.334e-03  cgtest:  5.032e-01  t[s]:    327.31
LCAOMinimize: Encountered beta<0, resetting CG.
LCAOMinimize: 	Predicted alpha/alphaT>3.000000, increasing alphaT to 1.893093e-02.
	FillingsUpdate:  mu: -0.244750000  nElectrons: 128.000000  magneticMoment: [ Abs: 0.00086  Tot: +0.00007 ]
LCAOMinimize: Iter:  12  G: -680.2714742852683685  |grad|_K:  6.344e-04  alpha:  4.569e-02  linmin: -4.731e-04  cgtest: -4.253e-03  t[s]:    356.86
	FillingsUpdate:  mu: -0.244750000  nElectrons: 128.000000  magneticMoment: [ Abs: 0.00086  Tot: +0.00007 ]
LCAOMinimize: Iter:  13  G: -680.2738518993005528  |grad|_K:  5.955e-04  alpha:  1.279e-02  linmin:  1.386e-03  cgtest: -2.033e-02  t[s]:    381.30
	FillingsUpdate:  mu: -0.244750000  nElectrons: 128.000000  magneticMoment: [ Abs: 0.00085  Tot: +0.00006 ]
LCAOMinimize: Iter:  14  G: -680.2780505941163938  |grad|_K:  1.670e-04  alpha:  2.570e-02  linmin:  1.714e-04  cgtest:  2.906e-01  t[s]:    405.21
LCAOMinimize: Encountered beta<0, resetting CG.
	FillingsUpdate:  mu: -0.244750000  nElectrons: 128.000000  magneticMoment: [ Abs: 0.00084  Tot: +0.00006 ]
LCAOMinimize: Iter:  15  G: -680.2787103590910647  |grad|_K:  4.091e-04  alpha:  4.956e-02  linmin: -1.405e-03  cgtest:  8.525e-03  t[s]:    428.81
	FillingsUpdate:  mu: -0.244750000  nElectrons: 128.000000  magneticMoment: [ Abs: 0.00085  Tot: +0.00002 ]
LCAOMinimize: Iter:  16  G: -680.2800087572067014  |grad|_K:  8.228e-05  alpha:  1.511e-02  linmin: -2.240e-02  cgtest:  3.956e-02  t[s]:    453.32
LCAOMinimize: 	Predicted alpha/alphaT>3.000000, increasing alphaT to 4.533191e-02.
	FillingsUpdate:  mu: -0.244750000  nElectrons: 128.000000  magneticMoment: [ Abs: 0.00086  Tot: +0.00001 ]
LCAOMinimize: Iter:  17  G: -680.2801964220539048  |grad|_K:  1.104e-04  alpha:  5.536e-02  linmin: -3.133e-03  cgtest: -4.254e-03  t[s]:    483.15
	FillingsUpdate:  mu: -0.244750000  nElectrons: 128.000000  magneticMoment: [ Abs: 0.00087  Tot: -0.00004 ]
LCAOMinimize: Iter:  18  G: -680.2806241406442496  |grad|_K:  2.592e-05  alpha:  7.121e-02  linmin: -6.726e-03  cgtest:  5.103e-01  t[s]:    507.57
LCAOMinimize: Encountered beta<0, resetting CG.
	FillingsUpdate:  mu: -0.244750000  nElectrons: 128.000000  magneticMoment: [ Abs: 0.00087  Tot: -0.00004 ]
LCAOMinimize: Iter:  19  G: -680.2806275871430444  |grad|_K:  2.294e-05  alpha:  1.052e-02  linmin:  6.629e-04  cgtest: -4.440e-03  t[s]:    530.59
	FillingsUpdate:  mu: -0.244750000  nElectrons: 128.000000  magneticMoment: [ Abs: 0.00088  Tot: -0.00004 ]
LCAOMinimize: Iter:  20  G: -680.2806324756770664  |grad|_K:  2.037e-05  alpha:  2.138e-02  linmin:  1.547e-02  cgtest: -1.497e-01  t[s]:    554.99
	FillingsUpdate:  mu: -0.244750000  nElectrons: 128.000000  magneticMoment: [ Abs: 0.00088  Tot: -0.00004 ]
LCAOMinimize: Iter:  21  G: -680.2806411755019553  |grad|_K:  2.046e-05  alpha:  5.702e-02  linmin:  5.770e-03  cgtest:  4.863e-01  t[s]:    578.43
	FillingsUpdate:  mu: -0.244750000  nElectrons: 128.000000  magneticMoment: [ Abs: 0.00088  Tot: -0.00005 ]
LCAOMinimize: Iter:  22  G: -680.2806440631895839  |grad|_K:  2.049e-05  alpha:  1.732e-02  linmin: -3.777e-03  cgtest:  8.408e-02  t[s]:    602.93
	FillingsUpdate:  mu: -0.244750000  nElectrons: 128.000000  magneticMoment: [ Abs: 0.00088  Tot: -0.00005 ]
LCAOMinimize: Iter:  23  G: -680.2806460691201664  |grad|_K:  1.504e-05  alpha:  1.086e-02  linmin: -1.711e-02  cgtest:  1.236e-01  t[s]:    626.91
	FillingsUpdate:  mu: -0.244750000  nElectrons: 128.000000  magneticMoment: [ Abs: 0.00088  Tot: -0.00005 ]
LCAOMinimize: Iter:  24  G: -680.2806488597055932  |grad|_K:  9.091e-06  alpha:  1.799e-02  linmin: -9.836e-02  cgtest:  8.771e-01  t[s]:    650.59
LCAOMinimize: Encountered beta<0, resetting CG.
	FillingsUpdate:  mu: -0.244750000  nElectrons: 128.000000  magneticMoment: [ Abs: 0.00089  Tot: -0.00005 ]
LCAOMinimize: Iter:  25  G: -680.2806496634842688  |grad|_K:  6.702e-06  alpha:  1.972e-02  linmin: -1.045e-01  cgtest:  7.409e-01  t[s]:    674.95
LCAOMinimize: Encountered beta<0, resetting CG.
	FillingsUpdate:  mu: -0.244750000  nElectrons: 128.000000  magneticMoment: [ Abs: 0.00089  Tot: -0.00005 ]
LCAOMinimize: Iter:  26  G: -680.2806500678070734  |grad|_K:  5.993e-06  alpha:  1.941e-02  linmin: -1.189e-01  cgtest:  9.737e-01  t[s]:    698.70
LCAOMinimize: Encountered beta<0, resetting CG.
LCAOMinimize: Converged (|Delta G|<1.000000e-06 for 2 iters).
----- createFluidSolver() ----- (Fluid-side solver setup)
   Initializing fluid molecule 'H2O'
     Initializing site 'O'
       Electron density: proportional to exp(-r/0.36935)*erfc((r-0.51523)/0.36823) with norm 6.826
       Charge density: gaussian nuclear width 0.478731 with net site charge 0.826
       Polarizability: cuspless exponential with width 0.32 and norm 3.73
       Hard sphere radius: 2.57003 bohrs
       Positions in reference frame:
         [ +0.000000 +0.000000 +0.000000 ]
     Initializing site 'H'
       Electron density: proportional to exp(-r/0.34641)*erfc((r-0)/0.390882) with norm 0.587
       Charge density: gaussian nuclear width 0.377945 with net site charge -0.413
       Polarizability: cuspless exponential with width 0.39 and norm 3.3
       Positions in reference frame:
         [ +0.000000 -1.441945 +1.122523 ]
         [ +0.000000 +1.441945 +1.122523 ]
     Net charge: 0   dipole magnitude: 0.927204
     Initializing spherical shell mfKernel with radius 2.61727 Bohr
     deltaS corrections:
       site 'O': -7.54299
       site 'H': -6.83917
   Initializing fluid molecule 'Na+'
     Initializing site 'Na'
       Electron density: proportional to exp(-r/0.19682)*erfc((r-0.71491)/0.41314) with norm 8.1383
       Charge density: gaussian nuclear width 0.365347 with net site charge -1
       Hard sphere radius: 1.86327 bohrs
       Positions in reference frame:
         [ +0.000000 +0.000000 +0.000000 ]
     Net charge: -1   dipole magnitude: 0
     Initializing gaussian mfKernel with width: 1.55004 Bohr
     deltaS corrections:
       site 'Na': -22.3555
   Initializing fluid molecule 'F-'
     Initializing site 'F'
       Electron density: proportional to exp(-r/0.38886)*erfc((r-0)/0.438782) with norm 8
       Charge density: gaussian nuclear width 0.374796 with net site charge 1
       Hard sphere radius: 2.39995 bohrs
       Positions in reference frame:
         [ +0.000000 +0.000000 +0.000000 ]
     Net charge: 1   dipole magnitude: 0
     Initializing gaussian mfKernel with width: 1.59012 Bohr
     deltaS corrections:
       site 'F': -9.04335

Correction to mu due to finite nuclear width = -0.0627036
   Cavity determined by nc: 0.00142 and sigma: 0.707107
   Nonlocal vdW cavity from gaussian model electron density with norm = 8 and sigma = 0.993594 bohr
   Charge asymmetry in cavity with sensitivity pCavity = 36.5 e-bohr/Eh
   Electrostatic cavity expanded by eta = 1.46 bohrs
   Weighted density cavitation model constrained by Nbulk: 0.0049383 bohr^-3, Pvap: 3.14029 kPa, Rvdw: 2.61727 bohr and sigmaBulk: 4.62e-05 Eh/bohr^2 at T: 298 K.
   Weighted density dispersion model using vdW pair potentials with single solvent site with sqrtC6eff: 0.77 SI.


---- Citations for features of the code used in this run ----

   Software package:
      R. Sundararaman, K. Letchworth-Weaver, K.A. Schwarz, D. Gunceler, Y. Ozhabes and T.A. Arias, 'JDFTx: software for joint density-functional theory', SoftwareX 6, 278 (2017)

   gga-PBE exchange-correlation functional:
      J.P. Perdew, K. Burke and M. Ernzerhof, Phys. Rev. Lett. 77, 3865 (1996)

   Pseudopotentials:
      KF Garrity, JW Bennett, KM Rabe and D Vanderbilt, Comput. Mater. Sci. 81, 446 (2014)

   DFT-D3 dispersion correction:
      S. Grimme, J. Antony, S. Ehrlich and H. Krieg, J. Chem. Phys. 132, 154104 (2010)

   DFT-D2 dispersion correction:
      S. Grimme, J. Comput. Chem. 27, 1787 (2006)

   Charge-asymmetric nonlocally-determined local-electric (CANDLE) solvation model:
      R. Sundararaman and W.A. Goddard III, J. Chem. Phys. 142, 064107 (2015)

   Total energy minimization with Auxiliary Hamiltonian:
      C. Freysoldt, S. Boeck, and J. Neugebauer, Phys. Rev. B 79, 241103(R) (2009)

   Grand-canonical (fixed-potential) DFT:
      R. Sundararaman, W. A. Goddard III and T. A. Arias, J. Chem. Phys. 146, 114104 (2017)

   Linear-tetrahedron sampling for density of states:
      G. Lehmann and M. Taut, Phys. status solidi (b) 54, 469 (1972)

This list may not be complete. Please suggest additional citations or
report any other bugs at https://github.com/shankar1729/jdftx/issues

Initialization completed successfully at t[s]:    702.84


Computing DFT-D3 correction:
# coordination-number Pt 8.640 9.487 5.939 9.406 9.408 5.939 9.489 8.640
# diagonal-C6 Pt 336.87 336.87 336.87 336.87 336.87 336.87 336.87 336.87
EvdW_6 =   -0.066553
EvdW_8 =   -0.109909
Fluid solver invoked on fresh (random / LCAO) wavefunctions
Running a vacuum solve first:

-------- Initial electronic minimization -----------
	FillingsUpdate:  mu: +0.205762276  nElectrons: 128.000000  magneticMoment: [ Abs: 0.00089  Tot: -0.00005 ]
ElecMinimize: Iter:   0  G: -680.282360487046617  |grad|_K:  5.466e-05  alpha:  1.000e+00
	FillingsUpdate:  mu: +0.235734951  nElectrons: 128.000000  magneticMoment: [ Abs: 0.00072  Tot: -0.00008 ]
	SubspaceRotationAdjust: set factor to 1
ElecMinimize: Iter:   1  G: -680.370273204779210  |grad|_K:  3.066e-05  alpha:  4.410e-01  linmin:  2.250e-05  t[s]:    744.47
	FillingsUpdate:  mu: +0.225221356  nElectrons: 128.000000  magneticMoment: [ Abs: 0.00068  Tot: -0.00006 ]
	SubspaceRotationAdjust: set factor to 0.537
ElecMinimize: Iter:   2  G: -680.376346374069954  |grad|_K:  8.723e-05  alpha:  1.008e-01  linmin:  1.822e-04  t[s]:    769.16
	FillingsUpdate:  mu: +0.203645982  nElectrons: 128.000000  magneticMoment: [ Abs: 0.00062  Tot: +0.00001 ]
	SubspaceRotationAdjust: set factor to 0.295
ElecMinimize: Iter:   3  G: -680.382494472745407  |grad|_K:  6.199e-05  alpha:  1.406e-02  linmin:  5.220e-04  t[s]:    793.86
	FillingsUpdate:  mu: +0.195936690  nElectrons: 128.000000  magneticMoment: [ Abs: 0.00058  Tot: +0.00005 ]
	SubspaceRotationAdjust: set factor to 0.389
ElecMinimize: Iter:   4  G: -680.391786624486713  |grad|_K:  1.850e-05  alpha:  4.013e-02  linmin:  4.146e-05  t[s]:    818.83
	FillingsUpdate:  mu: +0.210090613  nElectrons: 128.000000  magneticMoment: [ Abs: 0.00056  Tot: +0.00004 ]
	SubspaceRotationAdjust: set factor to 0.25
ElecMinimize: Iter:   5  G: -680.393040611948891  |grad|_K:  2.765e-05  alpha:  5.518e-02  linmin:  2.485e-05  t[s]:    843.87
	FillingsUpdate:  mu: +0.224332694  nElectrons: 128.000000  magneticMoment: [ Abs: 0.00053  Tot: +0.00003 ]
	SubspaceRotationAdjust: set factor to 0.166
ElecMinimize: Iter:   6  G: -680.395697290909993  |grad|_K:  1.873e-05  alpha:  5.217e-02  linmin:  7.143e-06  t[s]:    869.12
	FillingsUpdate:  mu: +0.214320927  nElectrons: 128.000000  magneticMoment: [ Abs: 0.00049  Tot: +0.00003 ]
	SubspaceRotationAdjust: set factor to 0.23
ElecMinimize: Iter:   7  G: -680.397862903811074  |grad|_K:  7.364e-06  alpha:  9.232e-02  linmin: -5.917e-06  t[s]:    893.08
	FillingsUpdate:  mu: +0.207520041  nElectrons: 128.000000  magneticMoment: [ Abs: 0.00045  Tot: +0.00003 ]
	SubspaceRotationAdjust: set factor to 0.159
ElecMinimize: Iter:   8  G: -680.398746656619892  |grad|_K:  9.427e-06  alpha:  2.434e-01  linmin:  4.536e-06  t[s]:    918.27
	FillingsUpdate:  mu: +0.211887914  nElectrons: 128.000000  magneticMoment: [ Abs: 0.00042  Tot: +0.00003 ]
	SubspaceRotationAdjust: set factor to 0.135
	SubspaceRotationAdjust: resetting CG because factor has changed by 0.134802
ElecMinimize: 	State modified externally: resetting search direction.
ElecMinimize: Iter:   9  G: -680.399393999812446  |grad|_K:  5.827e-06  alpha:  1.088e-01
	FillingsUpdate:  mu: +0.212378126  nElectrons: 128.000000  magneticMoment: [ Abs: 0.00042  Tot: +0.00003 ]
	SubspaceRotationAdjust: set factor to 0.14
ElecMinimize: Iter:  10  G: -680.399534287596452  |grad|_K:  4.497e-06  alpha:  6.169e-02  linmin: -1.816e-05  t[s]:    983.44
ElecMinimize: 	Predicted alpha/alphaT>3.000000, increasing alphaT to 1.850791e-01.
	FillingsUpdate:  mu: +0.214594774  nElectrons: 128.000000  magneticMoment: [ Abs: 0.00040  Tot: +0.00003 ]
	SubspaceRotationAdjust: set factor to 0.123
ElecMinimize: Iter:  11  G: -680.399803493621903  |grad|_K:  2.684e-06  alpha:  1.989e-01  linmin:  2.921e-05  t[s]:   1014.14
	FillingsUpdate:  mu: +0.210923459  nElectrons: 128.000000  magneticMoment: [ Abs: 0.00038  Tot: +0.00003 ]
	SubspaceRotationAdjust: set factor to 0.0885
ElecMinimize: Iter:  12  G: -680.399927050255087  |grad|_K:  2.417e-06  alpha:  2.564e-01  linmin:  4.256e-05  t[s]:   1039.31
	FillingsUpdate:  mu: +0.213098430  nElectrons: 128.000000  magneticMoment: [ Abs: 0.00035  Tot: +0.00003 ]
	SubspaceRotationAdjust: set factor to 0.0977
ElecMinimize: Iter:  13  G: -680.400070074614860  |grad|_K:  1.532e-06  alpha:  3.665e-01  linmin:  8.508e-05  t[s]:   1064.86
	FillingsUpdate:  mu: +0.215135598  nElectrons: 128.000000  magneticMoment: [ Abs: 0.00034  Tot: +0.00002 ]
	SubspaceRotationAdjust: set factor to 0.0936
ElecMinimize: Iter:  14  G: -680.400153395095344  |grad|_K:  1.446e-06  alpha:  5.331e-01  linmin:  1.078e-04  t[s]:   1089.96
	FillingsUpdate:  mu: +0.214541048  nElectrons: 128.000000  magneticMoment: [ Abs: 0.00034  Tot: +0.00002 ]
	SubspaceRotationAdjust: set factor to 0.0697
ElecMinimize: Iter:  15  G: -680.400173540279297  |grad|_K:  1.492e-06  alpha:  1.451e-01  linmin:  3.893e-05  t[s]:   1113.69
	FillingsUpdate:  mu: +0.213725248  nElectrons: 128.000000  magneticMoment: [ Abs: 0.00034  Tot: +0.00002 ]
	SubspaceRotationAdjust: set factor to 0.0539
ElecMinimize: Iter:  16  G: -680.400195442393738  |grad|_K:  9.775e-07  alpha:  1.474e-01  linmin:  6.479e-05  t[s]:   1138.50
	FillingsUpdate:  mu: +0.214757795  nElectrons: 128.000000  magneticMoment: [ Abs: 0.00034  Tot: +0.00002 ]
	SubspaceRotationAdjust: set factor to 0.0684
ElecMinimize: Iter:  17  G: -680.400219508751661  |grad|_K:  7.467e-07  alpha:  3.782e-01  linmin:  7.135e-05  t[s]:   1163.98
	FillingsUpdate:  mu: +0.215167384  nElectrons: 128.000000  magneticMoment: [ Abs: 0.00033  Tot: +0.00002 ]
	SubspaceRotationAdjust: set factor to 0.0483
ElecMinimize: Iter:  18  G: -680.400231411244363  |grad|_K:  8.903e-07  alpha:  3.211e-01  linmin:  3.459e-05  t[s]:   1188.89
	FillingsUpdate:  mu: +0.215025349  nElectrons: 128.000000  magneticMoment: [ Abs: 0.00032  Tot: +0.00002 ]
	SubspaceRotationAdjust: set factor to 0.0383
ElecMinimize: Iter:  19  G: -680.400239521226126  |grad|_K:  5.915e-07  alpha:  1.534e-01  linmin:  1.637e-05  t[s]:   1213.58
ElecMinimize: 	Predicted alpha/alphaT>3.000000, increasing alphaT to 4.602865e-01.
	FillingsUpdate:  mu: +0.214134464  nElectrons: 128.000000  magneticMoment: [ Abs: 0.00030  Tot: +0.00002 ]
	SubspaceRotationAdjust: set factor to 0.0414
ElecMinimize: Iter:  20  G: -680.400252443771819  |grad|_K:  6.533e-07  alpha:  5.528e-01  linmin:  1.162e-05  t[s]:   1245.37
	FillingsUpdate:  mu: +0.214461892  nElectrons: 128.000000  magneticMoment: [ Abs: 0.00027  Tot: +0.00002 ]
	SubspaceRotationAdjust: set factor to 0.0391
ElecMinimize: Iter:  21  G: -680.400263537245110  |grad|_K:  6.918e-07  alpha:  3.895e-01  linmin: -1.998e-05  t[s]:   1270.41
	FillingsUpdate:  mu: +0.214981956  nElectrons: 128.000000  magneticMoment: [ Abs: 0.00025  Tot: +0.00002 ]
	SubspaceRotationAdjust: set factor to 0.0301
ElecMinimize: Iter:  22  G: -680.400271129820453  |grad|_K:  4.858e-07  alpha:  2.368e-01  linmin: -2.349e-05  t[s]:   1294.41
	FillingsUpdate:  mu: +0.215030302  nElectrons: 128.000000  magneticMoment: [ Abs: 0.00021  Tot: +0.00001 ]
	SubspaceRotationAdjust: set factor to 0.036
ElecMinimize: Iter:  23  G: -680.400277977840460  |grad|_K:  4.324e-07  alpha:  4.317e-01  linmin: -5.006e-05  t[s]:   1319.73
	FillingsUpdate:  mu: +0.214863281  nElectrons: 128.000000  magneticMoment: [ Abs: 0.00018  Tot: +0.00001 ]
	SubspaceRotationAdjust: set factor to 0.0318
ElecMinimize: Iter:  24  G: -680.400283430210152  |grad|_K:  4.442e-07  alpha:  4.328e-01  linmin: -4.558e-05  t[s]:   1345.01
	FillingsUpdate:  mu: +0.214968897  nElectrons: 128.000000  magneticMoment: [ Abs: 0.00015  Tot: +0.00001 ]
	SubspaceRotationAdjust: set factor to 0.0258
ElecMinimize: Iter:  25  G: -680.400287387804838  |grad|_K:  3.519e-07  alpha:  2.980e-01  linmin: -3.420e-05  t[s]:   1369.31
	FillingsUpdate:  mu: +0.215323953  nElectrons: 128.000000  magneticMoment: [ Abs: 0.00012  Tot: +0.00001 ]
	SubspaceRotationAdjust: set factor to 0.0282
ElecMinimize: Iter:  26  G: -680.400291025775118  |grad|_K:  2.643e-07  alpha:  4.365e-01  linmin: -5.596e-05  t[s]:   1394.85
	FillingsUpdate:  mu: +0.215227373  nElectrons: 128.000000  magneticMoment: [ Abs: 0.00010  Tot: +0.00001 ]
	SubspaceRotationAdjust: set factor to 0.0268
ElecMinimize: Iter:  27  G: -680.400292864748053  |grad|_K:  2.275e-07  alpha:  3.909e-01  linmin: -2.310e-05  t[s]:   1419.97
	FillingsUpdate:  mu: +0.215082888  nElectrons: 128.000000  magneticMoment: [ Abs: 0.00009  Tot: +0.00001 ]
	SubspaceRotationAdjust: set factor to 0.0229
ElecMinimize: Iter:  28  G: -680.400294047402895  |grad|_K:  1.655e-07  alpha:  3.404e-01  linmin: -2.055e-05  t[s]:   1444.41
	FillingsUpdate:  mu: +0.215123016  nElectrons: 128.000000  magneticMoment: [ Abs: 0.00009  Tot: +0.00001 ]
	SubspaceRotationAdjust: set factor to 0.0253
ElecMinimize: Iter:  29  G: -680.400294767499531  |grad|_K:  1.284e-07  alpha:  3.920e-01  linmin: -1.939e-05  t[s]:   1469.21
	FillingsUpdate:  mu: +0.215181576  nElectrons: 128.000000  magneticMoment: [ Abs: 0.00009  Tot: +0.00001 ]
	SubspaceRotationAdjust: set factor to 0.0254
ElecMinimize: Iter:  30  G: -680.400295275097847  |grad|_K:  1.161e-07  alpha:  4.591e-01  linmin: -1.660e-05  t[s]:   1494.52
	FillingsUpdate:  mu: +0.215150037  nElectrons: 128.000000  magneticMoment: [ Abs: 0.00008  Tot: +0.00001 ]
	SubspaceRotationAdjust: set factor to 0.0236
ElecMinimize: Iter:  31  G: -680.400295626176217  |grad|_K:  9.604e-08  alpha:  3.881e-01  linmin: -1.342e-05  t[s]:   1519.05
	FillingsUpdate:  mu: +0.215109047  nElectrons: 128.000000  magneticMoment: [ Abs: 0.00008  Tot: +0.00001 ]
	SubspaceRotationAdjust: set factor to 0.0273
ElecMinimize: Iter:  32  G: -680.400295885432115  |grad|_K:  7.523e-08  alpha:  4.191e-01  linmin: -1.086e-05  t[s]:   1544.47
	FillingsUpdate:  mu: +0.215122940  nElectrons: 128.000000  magneticMoment: [ Abs: 0.00008  Tot: +0.00001 ]
	SubspaceRotationAdjust: set factor to 0.0288
ElecMinimize: Iter:  33  G: -680.400296074211155  |grad|_K:  7.445e-08  alpha:  4.977e-01  linmin: -7.577e-06  t[s]:   1569.40
	FillingsUpdate:  mu: +0.215121911  nElectrons: 128.000000  magneticMoment: [ Abs: 0.00008  Tot: +0.00001 ]
	SubspaceRotationAdjust: set factor to 0.0271
ElecMinimize: Iter:  34  G: -680.400296229430296  |grad|_K:  7.341e-08  alpha:  4.178e-01  linmin: -5.310e-06  t[s]:   1593.51
	FillingsUpdate:  mu: +0.215088770  nElectrons: 128.000000  magneticMoment: [ Abs: 0.00008  Tot: +0.00001 ]
	SubspaceRotationAdjust: set factor to 0.0287
ElecMinimize: Iter:  35  G: -680.400296422412225  |grad|_K:  7.286e-08  alpha:  5.343e-01  linmin: -3.932e-06  t[s]:   1618.85
	FillingsUpdate:  mu: +0.215083283  nElectrons: 128.000000  magneticMoment: [ Abs: 0.00008  Tot: +0.00001 ]
	SubspaceRotationAdjust: set factor to 0.0311
ElecMinimize: Iter:  36  G: -680.400296619573965  |grad|_K:  7.602e-08  alpha:  5.542e-01  linmin: -2.556e-06  t[s]:   1643.82
	FillingsUpdate:  mu: +0.215085210  nElectrons: 128.000000  magneticMoment: [ Abs: 0.00007  Tot: +0.00001 ]
	SubspaceRotationAdjust: set factor to 0.0283
ElecMinimize: Iter:  37  G: -680.400296800711317  |grad|_K:  7.736e-08  alpha:  4.679e-01  linmin: -1.779e-06  t[s]:   1668.61
	FillingsUpdate:  mu: +0.215071170  nElectrons: 128.000000  magneticMoment: [ Abs: 0.00007  Tot: +0.00001 ]
	SubspaceRotationAdjust: set factor to 0.0252
ElecMinimize: Iter:  38  G: -680.400296959341631  |grad|_K:  6.929e-08  alpha:  3.957e-01  linmin: -1.164e-06  t[s]:   1693.88
	FillingsUpdate:  mu: +0.215050185  nElectrons: 128.000000  magneticMoment: [ Abs: 0.00006  Tot: +0.00000 ]
	SubspaceRotationAdjust: set factor to 0.027
ElecMinimize: Iter:  39  G: -680.400297120691675  |grad|_K:  6.135e-08  alpha:  5.019e-01  linmin: -5.171e-08  t[s]:   1718.16
	FillingsUpdate:  mu: +0.215036393  nElectrons: 128.000000  magneticMoment: [ Abs: 0.00006  Tot: +0.00000 ]
	SubspaceRotationAdjust: set factor to 0.0264
ElecMinimize: Iter:  40  G: -680.400297243017121  |grad|_K:  5.643e-08  alpha:  4.854e-01  linmin: -6.085e-07  t[s]:   1742.94
	FillingsUpdate:  mu: +0.215019157  nElectrons: 128.000000  magneticMoment: [ Abs: 0.00005  Tot: +0.00000 ]
	SubspaceRotationAdjust: set factor to 0.0228
ElecMinimize: Iter:  41  G: -680.400297322083929  |grad|_K:  4.438e-08  alpha:  3.709e-01  linmin: -7.882e-08  t[s]:   1768.30
	FillingsUpdate:  mu: +0.215012323  nElectrons: 128.000000  magneticMoment: [ Abs: 0.00005  Tot: +0.00000 ]
	SubspaceRotationAdjust: set factor to 0.0234
ElecMinimize: Iter:  42  G: -680.400297375577225  |grad|_K:  3.325e-08  alpha:  4.064e-01  linmin:  3.915e-06  t[s]:   1792.54
ElecMinimize: Converged (|Delta G|<1.000000e-07 for 2 iters).
Setting wave functions to eigenvectors of Hamiltonian
Converging empty states (this may take a while): |deigs|: 3.256e-03
Vacuum energy after initial minimize, F = -680.400297375577225

Shifting auxilliary hamiltonian by -0.459762 to set nElectrons=128.000000

-------- Electronic minimization -----------
	Linear fluid (dielectric constant: 78.4, screening length: 8.12261 Bohr) occupying 0.436783 of unit cell:	Completed after 20 iterations at t[s]:   1848.07
	FillingsUpdate:  mu: -0.244750000  nElectrons: 128.000000  magneticMoment: [ Abs: 0.00003  Tot: +0.00000 ]
ElecMinimize: Iter:   0  G: -680.402131755368487  |grad|_K:  1.640e-05  alpha:  1.000e+00
	Linear fluid (dielectric constant: 78.4, screening length: 8.12261 Bohr) occupying 0.438289 of unit cell:	Completed after 22 iterations at t[s]:   1869.20
	Linear fluid (dielectric constant: 78.4, screening length: 8.12261 Bohr) occupying 0.436922 of unit cell:	Completed after 23 iterations at t[s]:   1877.21
	FillingsUpdate:  mu: -0.244750000  nElectrons: 127.936999  magneticMoment: [ Abs: 0.00003  Tot: +0.00000 ]
	SubspaceRotationAdjust: set factor to 0.0214
ElecMinimize: Iter:   1  G: -680.403841023815971  |grad|_K:  6.140e-06  alpha:  9.588e-02  linmin:  7.394e-03  t[s]:   1888.95
	Linear fluid (dielectric constant: 78.4, screening length: 8.12261 Bohr) occupying 0.437059 of unit cell:	Completed after 12 iterations at t[s]:   1897.44
ElecMinimize: 	Predicted alpha/alphaT>3.000000, increasing alphaT to 2.876489e-01.
	Linear fluid (dielectric constant: 78.4, screening length: 8.12261 Bohr) occupying 0.437332 of unit cell:	Completed after 14 iterations at t[s]:   1904.85
	Linear fluid (dielectric constant: 78.4, screening length: 8.12261 Bohr) occupying 0.437730 of unit cell:	Completed after 15 iterations at t[s]:   1912.12
	FillingsUpdate:  mu: -0.244750000  nElectrons: 127.889086  magneticMoment: [ Abs: 0.00009  Tot: +0.00000 ]
	SubspaceRotationAdjust: set factor to 0.0249
ElecMinimize: Iter:   2  G: -680.405258761441019  |grad|_K:  4.242e-06  alpha:  5.676e-01  linmin: -8.886e-04  t[s]:   1923.50
	Linear fluid (dielectric constant: 78.4, screening length: 8.12261 Bohr) occupying 0.438962 of unit cell:	Completed after 17 iterations at t[s]:   1932.33
	Linear fluid (dielectric constant: 78.4, screening length: 8.12261 Bohr) occupying 0.439077 of unit cell:	Completed after 12 iterations at t[s]:   1939.86
	FillingsUpdate:  mu: -0.244750000  nElectrons: 127.849100  magneticMoment: [ Abs: 0.00017  Tot: +0.00000 ]
	SubspaceRotationAdjust: set factor to 0.0183
ElecMinimize: Iter:   3  G: -680.406008132925990  |grad|_K:  5.294e-06  alpha:  6.206e-01  linmin: -4.661e-04  t[s]:   1951.40
	Linear fluid (dielectric constant: 78.4, screening length: 8.12261 Bohr) occupying 0.442010 of unit cell:	Completed after 15 iterations at t[s]:   1960.25
	Linear fluid (dielectric constant: 78.4, screening length: 8.12261 Bohr) occupying 0.439874 of unit cell:	Completed after 15 iterations at t[s]:   1967.50
	FillingsUpdate:  mu: -0.244750000  nElectrons: 127.858904  magneticMoment: [ Abs: 0.00021  Tot: +0.00000 ]
	SubspaceRotationAdjust: set factor to 0.0116
ElecMinimize: Iter:   4  G: -680.406317013242074  |grad|_K:  4.016e-06  alpha:  1.678e-01  linmin:  1.450e-03  t[s]:   1978.58
	Linear fluid (dielectric constant: 78.4, screening length: 8.12261 Bohr) occupying 0.440531 of unit cell:	Completed after 13 iterations at t[s]:   1986.86
	Linear fluid (dielectric constant: 78.4, screening length: 8.12261 Bohr) occupying 0.441792 of unit cell:	Completed after 15 iterations at t[s]:   1994.49
	FillingsUpdate:  mu: -0.244750000  nElectrons: 127.837666  magneticMoment: [ Abs: 0.00030  Tot: +0.00000 ]
	SubspaceRotationAdjust: set factor to 0.0155
ElecMinimize: Iter:   5  G: -680.406839207946859  |grad|_K:  3.230e-06  alpha:  4.917e-01  linmin: -8.623e-04  t[s]:   2006.19
	Linear fluid (dielectric constant: 78.4, screening length: 8.12261 Bohr) occupying 0.443315 of unit cell:	Completed after 14 iterations at t[s]:   2014.86
	Linear fluid (dielectric constant: 78.4, screening length: 8.12261 Bohr) occupying 0.443122 of unit cell:	Completed after 12 iterations at t[s]:   2022.21
	FillingsUpdate:  mu: -0.244750000  nElectrons: 127.815723  magneticMoment: [ Abs: 0.00035  Tot: +0.00000 ]
	SubspaceRotationAdjust: set factor to 0.0122
ElecMinimize: Iter:   6  G: -680.407141321291078  |grad|_K:  3.392e-06  alpha:  4.285e-01  linmin: -6.370e-04  t[s]:   2033.21
	Linear fluid (dielectric constant: 78.4, screening length: 8.12261 Bohr) occupying 0.444671 of unit cell:	Completed after 15 iterations at t[s]:   2041.86
	Linear fluid (dielectric constant: 78.4, screening length: 8.12261 Bohr) occupying 0.444167 of unit cell:	Completed after 13 iterations at t[s]:   2049.38
	FillingsUpdate:  mu: -0.244750000  nElectrons: 127.821101  magneticMoment: [ Abs: 0.00039  Tot: +0.00000 ]
	SubspaceRotationAdjust: set factor to 0.0103
ElecMinimize: Iter:   7  G: -680.407363778998388  |grad|_K:  2.608e-06  alpha:  2.868e-01  linmin: -7.031e-04  t[s]:   2061.15
	Linear fluid (dielectric constant: 78.4, screening length: 8.12261 Bohr) occupying 0.444756 of unit cell:	Completed after 13 iterations at t[s]:   2069.67
	Linear fluid (dielectric constant: 78.4, screening length: 8.12261 Bohr) occupying 0.445467 of unit cell:	Completed after 8 iterations at t[s]:   2076.80
	FillingsUpdate:  mu: -0.244750000  nElectrons: 127.812599  magneticMoment: [ Abs: 0.00044  Tot: +0.00000 ]
	SubspaceRotationAdjust: set factor to 0.0127
ElecMinimize: Iter:   8  G: -680.407661973595623  |grad|_K:  2.605e-06  alpha:  6.473e-01  linmin: -1.025e-03  t[s]:   2088.36
	Linear fluid (dielectric constant: 78.4, screening length: 8.12261 Bohr) occupying 0.446445 of unit cell:	Completed after 15 iterations at t[s]:   2096.73
	Linear fluid (dielectric constant: 78.4, screening length: 8.12261 Bohr) occupying 0.446223 of unit cell:	Completed after 12 iterations at t[s]:   2103.81
	FillingsUpdate:  mu: -0.244750000  nElectrons: 127.795242  magneticMoment: [ Abs: 0.00048  Tot: -0.00000 ]
	SubspaceRotationAdjust: set factor to 0.0117
ElecMinimize: Iter:   9  G: -680.407890815133896  |grad|_K:  3.039e-06  alpha:  4.933e-01  linmin: -4.064e-04  t[s]:   2114.93
	Linear fluid (dielectric constant: 78.4, screening length: 8.12261 Bohr) occupying 0.447011 of unit cell:	Completed after 14 iterations at t[s]:   2123.52
	Linear fluid (dielectric constant: 78.4, screening length: 8.12261 Bohr) occupying 0.446944 of unit cell:	Completed after 12 iterations at t[s]:   2131.12
	FillingsUpdate:  mu: -0.244750000  nElectrons: 127.798801  magneticMoment: [ Abs: 0.00051  Tot: -0.00000 ]
	SubspaceRotationAdjust: set factor to 0.0104
ElecMinimize: Iter:  10  G: -680.408170300981055  |grad|_K:  2.794e-06  alpha:  4.476e-01  linmin: -9.196e-04  t[s]:   2142.82
	Linear fluid (dielectric constant: 78.4, screening length: 8.12261 Bohr) occupying 0.447411 of unit cell:	Completed after 8 iterations at t[s]:   2150.99
	Linear fluid (dielectric constant: 78.4, screening length: 8.12261 Bohr) occupying 0.447665 of unit cell:	Completed after 13 iterations at t[s]:   2158.12
	FillingsUpdate:  mu: -0.244750000  nElectrons: 127.787076  magneticMoment: [ Abs: 0.00053  Tot: -0.00000 ]
	SubspaceRotationAdjust: set factor to 0.0122
ElecMinimize: Iter:  11  G: -680.408552850914589  |grad|_K:  2.972e-06  alpha:  7.164e-01  linmin: -5.077e-04  t[s]:   2169.61
	Linear fluid (dielectric constant: 78.4, screening length: 8.12261 Bohr) occupying 0.448467 of unit cell:	Completed after 14 iterations at t[s]:   2178.32
	Linear fluid (dielectric constant: 78.4, screening length: 8.12261 Bohr) occupying 0.448333 of unit cell:	Completed after 13 iterations at t[s]:   2185.82
	FillingsUpdate:  mu: -0.244750000  nElectrons: 127.761873  magneticMoment: [ Abs: 0.00054  Tot: -0.00000 ]
	SubspaceRotationAdjust: set factor to 0.011
ElecMinimize: Iter:  12  G: -680.408905509777810  |grad|_K:  3.542e-06  alpha:  5.870e-01  linmin: -1.513e-04  t[s]:   2197.64
	Linear fluid (dielectric constant: 78.4, screening length: 8.12261 Bohr) occupying 0.449418 of unit cell:	Completed after 15 iterations at t[s]:   2205.79
	Linear fluid (dielectric constant: 78.4, screening length: 8.12261 Bohr) occupying 0.449067 of unit cell:	Completed after 13 iterations at t[s]:   2213.15
	FillingsUpdate:  mu: -0.244750000  nElectrons: 127.764076  magneticMoment: [ Abs: 0.00052  Tot: -0.00000 ]
	SubspaceRotationAdjust: set factor to 0.00868
ElecMinimize: Iter:  13  G: -680.409235267513509  |grad|_K:  2.954e-06  alpha:  3.840e-01  linmin: -3.626e-04  t[s]:   2224.16
	Linear fluid (dielectric constant: 78.4, screening length: 8.12261 Bohr) occupying 0.449698 of unit cell:	Completed after 14 iterations at t[s]:   2232.82
	Linear fluid (dielectric constant: 78.4, screening length: 8.12261 Bohr) occupying 0.450038 of unit cell:	Completed after 12 iterations at t[s]:   2240.29
	FillingsUpdate:  mu: -0.244750000  nElectrons: 127.752995  magneticMoment: [ Abs: 0.00049  Tot: -0.00000 ]
	SubspaceRotationAdjust: set factor to 0.0111
ElecMinimize: Iter:  14  G: -680.409593013819631  |grad|_K:  2.738e-06  alpha:  6.064e-01  linmin: -8.904e-05  t[s]:   2252.02
	Linear fluid (dielectric constant: 78.4, screening length: 8.12261 Bohr) occupying 0.450946 of unit cell:	Completed after 15 iterations at t[s]:   2260.58
	Linear fluid (dielectric constant: 78.4, screening length: 8.12261 Bohr) occupying 0.450791 of unit cell:	Completed after 12 iterations at t[s]:   2267.74
	FillingsUpdate:  mu: -0.244750000  nElectrons: 127.735396  magneticMoment: [ Abs: 0.00045  Tot: -0.00000 ]
	SubspaceRotationAdjust: set factor to 0.00952
ElecMinimize: Iter:  15  G: -680.409840705237229  |grad|_K:  2.482e-06  alpha:  4.978e-01  linmin: -5.726e-04  t[s]:   2278.83
	Linear fluid (dielectric constant: 78.4, screening length: 8.12261 Bohr) occupying 0.451477 of unit cell:	Completed after 14 iterations at t[s]:   2287.42
	Linear fluid (dielectric constant: 78.4, screening length: 8.12261 Bohr) occupying 0.451376 of unit cell:	Completed after 12 iterations at t[s]:   2294.96
	FillingsUpdate:  mu: -0.244750000  nElectrons: 127.738391  magneticMoment: [ Abs: 0.00041  Tot: +0.00000 ]
	SubspaceRotationAdjust: set factor to 0.00769
ElecMinimize: Iter:  16  G: -680.410018510477812  |grad|_K:  1.971e-06  alpha:  4.225e-01  linmin:  2.356e-04  t[s]:   2306.52
	Linear fluid (dielectric constant: 78.4, screening length: 8.12261 Bohr) occupying 0.451730 of unit cell:	Completed after 14 iterations at t[s]:   2315.43
	Linear fluid (dielectric constant: 78.4, screening length: 8.12261 Bohr) occupying 0.451858 of unit cell:	Completed after 13 iterations at t[s]:   2322.64
	FillingsUpdate:  mu: -0.244750000  nElectrons: 127.729730  magneticMoment: [ Abs: 0.00036  Tot: +0.00000 ]
	SubspaceRotationAdjust: set factor to 0.00887
ElecMinimize: Iter:  17  G: -680.410169183434505  |grad|_K:  1.568e-06  alpha:  5.812e-01  linmin: -4.398e-04  t[s]:   2333.77
	Linear fluid (dielectric constant: 78.4, screening length: 8.12261 Bohr) occupying 0.452132 of unit cell:	Completed after 14 iterations at t[s]:   2342.00
	Linear fluid (dielectric constant: 78.4, screening length: 8.12261 Bohr) occupying 0.452130 of unit cell:	Completed after 2 iterations at t[s]:   2349.16
	FillingsUpdate:  mu: -0.244750000  nElectrons: 127.723120  magneticMoment: [ Abs: 0.00033  Tot: +0.00000 ]
	SubspaceRotationAdjust: set factor to 0.00927
ElecMinimize: Iter:  18  G: -680.410264777865564  |grad|_K:  1.391e-06  alpha:  5.768e-01  linmin: -5.164e-05  t[s]:   2361.14
	Linear fluid (dielectric constant: 78.4, screening length: 8.12261 Bohr) occupying 0.452331 of unit cell:	Completed after 12 iterations at t[s]:   2369.92
	Linear fluid (dielectric constant: 78.4, screening length: 8.12261 Bohr) occupying 0.452309 of unit cell:	Completed after 11 iterations at t[s]:   2377.32
	FillingsUpdate:  mu: -0.244750000  nElectrons: 127.725394  magneticMoment: [ Abs: 0.00031  Tot: +0.00000 ]
	SubspaceRotationAdjust: set factor to 0.00864
ElecMinimize: Iter:  19  G: -680.410331178517367  |grad|_K:  1.254e-06  alpha:  5.121e-01  linmin:  7.823e-05  t[s]:   2388.52
	Linear fluid (dielectric constant: 78.4, screening length: 8.12261 Bohr) occupying 0.452418 of unit cell:	Completed after 13 iterations at t[s]:   2396.73
	Linear fluid (dielectric constant: 78.4, screening length: 8.12261 Bohr) occupying 0.452432 of unit cell:	Completed after 11 iterations at t[s]:   2404.18
	FillingsUpdate:  mu: -0.244750000  nElectrons: 127.720123  magneticMoment: [ Abs: 0.00030  Tot: +0.00000 ]
	SubspaceRotationAdjust: set factor to 0.00851
ElecMinimize: Iter:  20  G: -680.410391973732430  |grad|_K:  1.169e-06  alpha:  5.786e-01  linmin: -7.415e-05  t[s]:   2415.93
	Linear fluid (dielectric constant: 78.4, screening length: 8.12261 Bohr) occupying 0.452520 of unit cell:	Completed after 11 iterations at t[s]:   2424.36
	Linear fluid (dielectric constant: 78.4, screening length: 8.12261 Bohr) occupying 0.452535 of unit cell:	Completed after 9 iterations at t[s]:   2431.96
	FillingsUpdate:  mu: -0.244750000  nElectrons: 127.720214  magneticMoment: [ Abs: 0.00030  Tot: +0.00000 ]
	SubspaceRotationAdjust: set factor to 0.00967
ElecMinimize: Iter:  21  G: -680.410454048461020  |grad|_K:  1.189e-06  alpha:  6.780e-01  linmin: -1.778e-05  t[s]:   2443.05
	Linear fluid (dielectric constant: 78.4, screening length: 8.12261 Bohr) occupying 0.452615 of unit cell:	Completed after 13 iterations at t[s]:   2451.28
	Linear fluid (dielectric constant: 78.4, screening length: 8.12261 Bohr) occupying 0.452618 of unit cell:	Completed after 8 iterations at t[s]:   2458.13
	FillingsUpdate:  mu: -0.244750000  nElectrons: 127.722305  magneticMoment: [ Abs: 0.00030  Tot: +0.00000 ]
	SubspaceRotationAdjust: set factor to 0.0101
ElecMinimize: Iter:  22  G: -680.410520879028013  |grad|_K:  1.314e-06  alpha:  7.056e-01  linmin: -5.045e-05  t[s]:   2469.75
	Linear fluid (dielectric constant: 78.4, screening length: 8.12261 Bohr) occupying 0.452680 of unit cell:	Completed after 14 iterations at t[s]:   2478.47
	Linear fluid (dielectric constant: 78.4, screening length: 8.12261 Bohr) occupying 0.452674 of unit cell:	Completed after 10 iterations at t[s]:   2485.95
	FillingsUpdate:  mu: -0.244750000  nElectrons: 127.717920  magneticMoment: [ Abs: 0.00029  Tot: +0.00000 ]
	SubspaceRotationAdjust: set factor to 0.00936
ElecMinimize: Iter:  23  G: -680.410594445546167  |grad|_K:  1.440e-06  alpha:  6.361e-01  linmin: -1.536e-04  t[s]:   2497.40
	Linear fluid (dielectric constant: 78.4, screening length: 8.12261 Bohr) occupying 0.452750 of unit cell:	Completed after 13 iterations at t[s]:   2505.49
	Linear fluid (dielectric constant: 78.4, screening length: 8.12261 Bohr) occupying 0.452743 of unit cell:	Completed after 10 iterations at t[s]:   2512.81
	FillingsUpdate:  mu: -0.244750000  nElectrons: 127.722893  magneticMoment: [ Abs: 0.00028  Tot: +0.00000 ]
	SubspaceRotationAdjust: set factor to 0.00833
ElecMinimize: Iter:  24  G: -680.410676153307918  |grad|_K:  1.448e-06  alpha:  5.843e-01  linmin: -5.295e-05  t[s]:   2524.40
	Linear fluid (dielectric constant: 78.4, screening length: 8.12261 Bohr) occupying 0.452808 of unit cell:	Completed after 12 iterations at t[s]:   2532.88
	Linear fluid (dielectric constant: 78.4, screening length: 8.12261 Bohr) occupying 0.452813 of unit cell:	Completed after 9 iterations at t[s]:   2540.04
	FillingsUpdate:  mu: -0.244750000  nElectrons: 127.720124  magneticMoment: [ Abs: 0.00024  Tot: +0.00000 ]
	SubspaceRotationAdjust: set factor to 0.00887
ElecMinimize: Iter:  25  G: -680.410764554769116  |grad|_K:  1.316e-06  alpha:  6.281e-01  linmin: -1.895e-04  t[s]:   2551.57
	Linear fluid (dielectric constant: 78.4, screening length: 8.12261 Bohr) occupying 0.452899 of unit cell:	Completed after 13 iterations at t[s]:   2559.69
	Linear fluid (dielectric constant: 78.4, screening length: 8.12261 Bohr) occupying 0.452896 of unit cell:	Completed after 7 iterations at t[s]:   2566.68
	FillingsUpdate:  mu: -0.244750000  nElectrons: 127.716725  magneticMoment: [ Abs: 0.00020  Tot: -0.00000 ]
	SubspaceRotationAdjust: set factor to 0.00905
ElecMinimize: Iter:  26  G: -680.410835857222537  |grad|_K:  1.173e-06  alpha:  6.119e-01  linmin: -8.872e-05  t[s]:   2577.79
	Linear fluid (dielectric constant: 78.4, screening length: 8.12261 Bohr) occupying 0.453019 of unit cell:	Completed after 13 iterations at t[s]:   2586.32
	Linear fluid (dielectric constant: 78.4, screening length: 8.12261 Bohr) occupying 0.452999 of unit cell:	Completed after 11 iterations at t[s]:   2593.79
	FillingsUpdate:  mu: -0.244750000  nElectrons: 127.719083  magneticMoment: [ Abs: 0.00016  Tot: -0.00000 ]
	SubspaceRotationAdjust: set factor to 0.00787
ElecMinimize: Iter:  27  G: -680.410883252251438  |grad|_K:  9.823e-07  alpha:  5.129e-01  linmin: -8.670e-06  t[s]:   2605.36
	Linear fluid (dielectric constant: 78.4, screening length: 8.12261 Bohr) occupying 0.453103 of unit cell:	Completed after 14 iterations at t[s]:   2613.58
	Linear fluid (dielectric constant: 78.4, screening length: 8.12261 Bohr) occupying 0.453097 of unit cell:	Completed after 10 iterations at t[s]:   2620.73
	FillingsUpdate:  mu: -0.244750000  nElectrons: 127.715330  magneticMoment: [ Abs: 0.00013  Tot: -0.00000 ]
	SubspaceRotationAdjust: set factor to 0.00723
ElecMinimize: Iter:  28  G: -680.410914200629918  |grad|_K:  7.572e-07  alpha:  4.791e-01  linmin: -1.265e-05  t[s]:   2632.28
	Linear fluid (dielectric constant: 78.4, screening length: 8.12261 Bohr) occupying 0.453190 of unit cell:	Completed after 12 iterations at t[s]:   2640.85
	Linear fluid (dielectric constant: 78.4, screening length: 8.12261 Bohr) occupying 0.453198 of unit cell:	Completed after 6 iterations at t[s]:   2647.87
	FillingsUpdate:  mu: -0.244750000  nElectrons: 127.714587  magneticMoment: [ Abs: 0.00011  Tot: -0.00000 ]
	SubspaceRotationAdjust: set factor to 0.00779
ElecMinimize: Iter:  29  G: -680.410934041295036  |grad|_K:  5.820e-07  alpha:  5.168e-01  linmin: -5.550e-05  t[s]:   2659.58
	Linear fluid (dielectric constant: 78.4, screening length: 8.12261 Bohr) occupying 0.453286 of unit cell:	Completed after 12 iterations at t[s]:   2667.65
	Linear fluid (dielectric constant: 78.4, screening length: 8.12261 Bohr) occupying 0.453289 of unit cell:	Completed after 2 iterations at t[s]:   2674.24
	FillingsUpdate:  mu: -0.244750000  nElectrons: 127.714019  magneticMoment: [ Abs: 0.00010  Tot: -0.00000 ]
	SubspaceRotationAdjust: set factor to 0.00822
ElecMinimize: Iter:  30  G: -680.410946151661960  |grad|_K:  4.729e-07  alpha:  5.336e-01  linmin: -9.830e-05  t[s]:   2685.30
	Linear fluid (dielectric constant: 78.4, screening length: 8.12261 Bohr) occupying 0.453367 of unit cell:	Completed after 12 iterations at t[s]:   2693.79
	Linear fluid (dielectric constant: 78.4, screening length: 8.12261 Bohr) occupying 0.453364 of unit cell:	Completed after 7 iterations at t[s]:   2700.97
	FillingsUpdate:  mu: -0.244750000  nElectrons: 127.711757  magneticMoment: [ Abs: 0.00009  Tot: -0.00000 ]
	SubspaceRotationAdjust: set factor to 0.00772
ElecMinimize: Iter:  31  G: -680.410953879763952  |grad|_K:  3.917e-07  alpha:  5.149e-01  linmin: -5.302e-05  t[s]:   2712.72
	Linear fluid (dielectric constant: 78.4, screening length: 8.12261 Bohr) occupying 0.453432 of unit cell:	Completed after 10 iterations at t[s]:   2721.09
	Linear fluid (dielectric constant: 78.4, screening length: 8.12261 Bohr) occupying 0.453435 of unit cell:	Completed after 2 iterations at t[s]:   2727.72
	FillingsUpdate:  mu: -0.244750000  nElectrons: 127.711836  magneticMoment: [ Abs: 0.00009  Tot: -0.00000 ]
	SubspaceRotationAdjust: set factor to 0.00785
ElecMinimize: Iter:  32  G: -680.410959401851187  |grad|_K:  3.316e-07  alpha:  5.369e-01  linmin: -2.116e-04  t[s]:   2738.81
	Linear fluid (dielectric constant: 78.4, screening length: 8.12261 Bohr) occupying 0.453492 of unit cell:	Completed after 9 iterations at t[s]:   2747.13
	Linear fluid (dielectric constant: 78.4, screening length: 8.12261 Bohr) occupying 0.453498 of unit cell:	Completed after 2 iterations at t[s]:   2754.05
	FillingsUpdate:  mu: -0.244750000  nElectrons: 127.710959  magneticMoment: [ Abs: 0.00009  Tot: -0.00000 ]
	SubspaceRotationAdjust: set factor to 0.00887
ElecMinimize: Iter:  33  G: -680.410963761913422  |grad|_K:  2.989e-07  alpha:  5.884e-01  linmin: -1.465e-04  t[s]:   2765.53
	Linear fluid (dielectric constant: 78.4, screening length: 8.12261 Bohr) occupying 0.453550 of unit cell:	Completed after 12 iterations at t[s]:   2774.25
	Linear fluid (dielectric constant: 78.4, screening length: 8.12261 Bohr) occupying 0.453551 of unit cell:	Completed after 0 iterations at t[s]:   2780.62
	FillingsUpdate:  mu: -0.244750000  nElectrons: 127.709499  magneticMoment: [ Abs: 0.00009  Tot: -0.00000 ]
	SubspaceRotationAdjust: set factor to 0.00926
ElecMinimize: Iter:  34  G: -680.410967360221434  |grad|_K:  2.856e-07  alpha:  5.983e-01  linmin: -1.844e-04  t[s]:   2791.69
	Linear fluid (dielectric constant: 78.4, screening length: 8.12261 Bohr) occupying 0.453603 of unit cell:	Completed after 10 iterations at t[s]:   2799.62
	Linear fluid (dielectric constant: 78.4, screening length: 8.12261 Bohr) occupying 0.453601 of unit cell:	Completed after 2 iterations at t[s]:   2806.38
	FillingsUpdate:  mu: -0.244750000  nElectrons: 127.709551  magneticMoment: [ Abs: 0.00010  Tot: -0.00000 ]
	SubspaceRotationAdjust: set factor to 0.00889
ElecMinimize: Iter:  35  G: -680.410970568005723  |grad|_K:  2.893e-07  alpha:  5.821e-01  linmin: -1.512e-05  t[s]:   2817.94
	Linear fluid (dielectric constant: 78.4, screening length: 8.12261 Bohr) occupying 0.453651 of unit cell:	Completed after 12 iterations at t[s]:   2826.57
	Linear fluid (dielectric constant: 78.4, screening length: 8.12261 Bohr) occupying 0.453652 of unit cell:	Completed after 2 iterations at t[s]:   2833.31
	FillingsUpdate:  mu: -0.244750000  nElectrons: 127.707971  magneticMoment: [ Abs: 0.00010  Tot: -0.00000 ]
	SubspaceRotationAdjust: set factor to 0.0091
ElecMinimize: Iter:  36  G: -680.410973933857804  |grad|_K:  2.810e-07  alpha:  6.001e-01  linmin: -1.610e-04  t[s]:   2844.33
	Linear fluid (dielectric constant: 78.4, screening length: 8.12261 Bohr) occupying 0.453702 of unit cell:	Completed after 5 iterations at t[s]:   2852.34
	Linear fluid (dielectric constant: 78.4, screening length: 8.12261 Bohr) occupying 0.453710 of unit cell:	Completed after 3 iterations at t[s]:   2859.26
	FillingsUpdate:  mu: -0.244750000  nElectrons: 127.707111  magneticMoment: [ Abs: 0.00010  Tot: -0.00000 ]
	SubspaceRotationAdjust: set factor to 0.0101
ElecMinimize: Iter:  37  G: -680.410977710361749  |grad|_K:  3.005e-07  alpha:  7.081e-01  linmin: -8.797e-05  t[s]:   2870.92
	Linear fluid (dielectric constant: 78.4, screening length: 8.12261 Bohr) occupying 0.453778 of unit cell:	Completed after 10 iterations at t[s]:   2879.24
	Linear fluid (dielectric constant: 78.4, screening length: 8.12261 Bohr) occupying 0.453776 of unit cell:	Completed after 2 iterations at t[s]:   2886.33
	FillingsUpdate:  mu: -0.244750000  nElectrons: 127.706903  magneticMoment: [ Abs: 0.00010  Tot: +0.00000 ]
	SubspaceRotationAdjust: set factor to 0.0104
ElecMinimize: Iter:  38  G: -680.410981879408610  |grad|_K:  3.404e-07  alpha:  6.863e-01  linmin: -5.029e-05  t[s]:   2897.31
	Linear fluid (dielectric constant: 78.4, screening length: 8.12261 Bohr) occupying 0.453855 of unit cell:	Completed after 12 iterations at t[s]:   2905.99
	Linear fluid (dielectric constant: 78.4, screening length: 8.12261 Bohr) occupying 0.453844 of unit cell:	Completed after 10 iterations at t[s]:   2913.62
	FillingsUpdate:  mu: -0.244750000  nElectrons: 127.704673  magneticMoment: [ Abs: 0.00009  Tot: -0.00000 ]
	SubspaceRotationAdjust: set factor to 0.00939
ElecMinimize: Iter:  39  G: -680.410986418715197  |grad|_K:  3.749e-07  alpha:  5.833e-01  linmin: -5.364e-05  t[s]:   2924.64
	Linear fluid (dielectric constant: 78.4, screening length: 8.12261 Bohr) occupying 0.453927 of unit cell:	Completed after 12 iterations at t[s]:   2932.71
	Linear fluid (dielectric constant: 78.4, screening length: 8.12261 Bohr) occupying 0.453932 of unit cell:	Completed after 6 iterations at t[s]:   2939.54
	FillingsUpdate:  mu: -0.244750000  nElectrons: 127.704663  magneticMoment: [ Abs: 0.00009  Tot: -0.00000 ]
	SubspaceRotationAdjust: set factor to 0.00908
ElecMinimize: Iter:  40  G: -680.410992229719454  |grad|_K:  3.839e-07  alpha:  6.145e-01  linmin: -5.543e-05  t[s]:   2950.99
	Linear fluid (dielectric constant: 78.4, screening length: 8.12261 Bohr) occupying 0.454016 of unit cell:	Completed after 5 iterations at t[s]:   2959.25
	Linear fluid (dielectric constant: 78.4, screening length: 8.12261 Bohr) occupying 0.454029 of unit cell:	Completed after 2 iterations at t[s]:   2966.23
	FillingsUpdate:  mu: -0.244750000  nElectrons: 127.703446  magneticMoment: [ Abs: 0.00008  Tot: -0.00000 ]
	SubspaceRotationAdjust: set factor to 0.00998
ElecMinimize: Iter:  41  G: -680.410999294303679  |grad|_K:  4.071e-07  alpha:  7.129e-01  linmin: -4.166e-05  t[s]:   2977.58
	Linear fluid (dielectric constant: 78.4, screening length: 8.12261 Bohr) occupying 0.454125 of unit cell:	Completed after 12 iterations at t[s]:   2986.43
	Linear fluid (dielectric constant: 78.4, screening length: 8.12261 Bohr) occupying 0.454114 of unit cell:	Completed after 10 iterations at t[s]:   2993.81
	FillingsUpdate:  mu: -0.244750000  nElectrons: 127.701247  magneticMoment: [ Abs: 0.00007  Tot: -0.00000 ]
	SubspaceRotationAdjust: set factor to 0.00968
ElecMinimize: Iter:  42  G: -680.411006360078204  |grad|_K:  4.192e-07  alpha:  6.350e-01  linmin: -1.870e-05  t[s]:   3004.86
	Linear fluid (dielectric constant: 78.4, screening length: 8.12261 Bohr) occupying 0.454205 of unit cell:	Completed after 12 iterations at t[s]:   3013.09
	Linear fluid (dielectric constant: 78.4, screening length: 8.12261 Bohr) occupying 0.454188 of unit cell:	Completed after 10 iterations at t[s]:   3020.30
	FillingsUpdate:  mu: -0.244750000  nElectrons: 127.701801  magneticMoment: [ Abs: 0.00006  Tot: -0.00000 ]
	SubspaceRotationAdjust: set factor to 0.00834
ElecMinimize: Iter:  43  G: -680.411012478227804  |grad|_K:  3.924e-07  alpha:  5.194e-01  linmin: -7.722e-06  t[s]:   3031.69
	Linear fluid (dielectric constant: 78.4, screening length: 8.12261 Bohr) occupying 0.454247 of unit cell:	Completed after 12 iterations at t[s]:   3040.04
	Linear fluid (dielectric constant: 78.4, screening length: 8.12261 Bohr) occupying 0.454247 of unit cell:	Completed after 0 iterations at t[s]:   3046.46
	FillingsUpdate:  mu: -0.244750000  nElectrons: 127.700226  magneticMoment: [ Abs: 0.00005  Tot: -0.00000 ]
	SubspaceRotationAdjust: set factor to 0.00815
ElecMinimize: Iter:  44  G: -680.411017862327071  |grad|_K:  3.220e-07  alpha:  5.220e-01  linmin: -2.392e-05  t[s]:   3057.37
	Linear fluid (dielectric constant: 78.4, screening length: 8.12261 Bohr) occupying 0.454288 of unit cell:	Completed after 7 iterations at t[s]:   3065.71
	Linear fluid (dielectric constant: 78.4, screening length: 8.12261 Bohr) occupying 0.454290 of unit cell:	Completed after 2 iterations at t[s]:   3072.51
	FillingsUpdate:  mu: -0.244750000  nElectrons: 127.699715  magneticMoment: [ Abs: 0.00004  Tot: -0.00000 ]
	SubspaceRotationAdjust: set factor to 0.0087
ElecMinimize: Iter:  45  G: -680.411021731167239  |grad|_K:  2.622e-07  alpha:  5.568e-01  linmin: -1.010e-05  t[s]:   3083.96
	Linear fluid (dielectric constant: 78.4, screening length: 8.12261 Bohr) occupying 0.454322 of unit cell:	Completed after 11 iterations at t[s]:   3092.52
	Linear fluid (dielectric constant: 78.4, screening length: 8.12261 Bohr) occupying 0.454318 of unit cell:	Completed after 8 iterations at t[s]:   3099.92
	FillingsUpdate:  mu: -0.244750000  nElectrons: 127.700152  magneticMoment: [ Abs: 0.00003  Tot: +0.00000 ]
	SubspaceRotationAdjust: set factor to 0.00796
ElecMinimize: Iter:  46  G: -680.411024005930358  |grad|_K:  2.076e-07  alpha:  4.938e-01  linmin:  3.654e-05  t[s]:   3111.60
	Linear fluid (dielectric constant: 78.4, screening length: 8.12261 Bohr) occupying 0.454333 of unit cell:	Completed after 12 iterations at t[s]:   3120.15
	Linear fluid (dielectric constant: 78.4, screening length: 8.12261 Bohr) occupying 0.454332 of unit cell:	Completed after 5 iterations at t[s]:   3127.08
	FillingsUpdate:  mu: -0.244750000  nElectrons: 127.699461  magneticMoment: [ Abs: 0.00003  Tot: +0.00000 ]
	SubspaceRotationAdjust: set factor to 0.00685
ElecMinimize: Iter:  47  G: -680.411025324233378  |grad|_K:  1.538e-07  alpha:  4.578e-01  linmin:  3.225e-05  t[s]:   3138.83
	Linear fluid (dielectric constant: 78.4, screening length: 8.12261 Bohr) occupying 0.454341 of unit cell:	Completed after 9 iterations at t[s]:   3146.71
	Linear fluid (dielectric constant: 78.4, screening length: 8.12261 Bohr) occupying 0.454342 of unit cell:	Completed after 2 iterations at t[s]:   3153.33
	FillingsUpdate:  mu: -0.244750000  nElectrons: 127.699638  magneticMoment: [ Abs: 0.00003  Tot: -0.00000 ]
	SubspaceRotationAdjust: set factor to 0.00736
ElecMinimize: Iter:  48  G: -680.411026102688538  |grad|_K:  1.115e-07  alpha:  4.921e-01  linmin: -1.180e-04  t[s]:   3164.36
	Linear fluid (dielectric constant: 78.4, screening length: 8.12261 Bohr) occupying 0.454346 of unit cell:	Completed after 10 iterations at t[s]:   3172.43
	Linear fluid (dielectric constant: 78.4, screening length: 8.12261 Bohr) occupying 0.454346 of unit cell:	Completed after 0 iterations at t[s]:   3179.08
	FillingsUpdate:  mu: -0.244750000  nElectrons: 127.699824  magneticMoment: [ Abs: 0.00003  Tot: -0.00000 ]
	SubspaceRotationAdjust: set factor to 0.00751
ElecMinimize: Iter:  49  G: -680.411026507762244  |grad|_K:  8.421e-08  alpha:  4.842e-01  linmin: -4.608e-05  t[s]:   3190.73
	Linear fluid (dielectric constant: 78.4, screening length: 8.12261 Bohr) occupying 0.454347 of unit cell:	Completed after 9 iterations at t[s]:   3199.19
	Linear fluid (dielectric constant: 78.4, screening length: 8.12261 Bohr) occupying 0.454347 of unit cell:	Completed after 0 iterations at t[s]:   3205.99
	FillingsUpdate:  mu: -0.244750000  nElectrons: 127.699631  magneticMoment: [ Abs: 0.00003  Tot: -0.00000 ]
	SubspaceRotationAdjust: set factor to 0.0068
ElecMinimize: Iter:  50  G: -680.411026731151424  |grad|_K:  6.492e-08  alpha:  4.690e-01  linmin:  4.734e-05  t[s]:   3217.67
	Linear fluid (dielectric constant: 78.4, screening length: 8.12261 Bohr) occupying 0.454348 of unit cell:	Completed after 9 iterations at t[s]:   3226.01
	Linear fluid (dielectric constant: 78.4, screening length: 8.12261 Bohr) occupying 0.454348 of unit cell:	Completed after 0 iterations at t[s]:   3232.60
	FillingsUpdate:  mu: -0.244750000  nElectrons: 127.699768  magneticMoment: [ Abs: 0.00003  Tot: -0.00000 ]
	SubspaceRotationAdjust: set factor to 0.00717
ElecMinimize: Iter:  51  G: -680.411026867683518  |grad|_K:  4.929e-08  alpha:  4.862e-01  linmin: -1.457e-04  t[s]:   3243.63
	Linear fluid (dielectric constant: 78.4, screening length: 8.12261 Bohr) occupying 0.454347 of unit cell:	Completed after 2 iterations at t[s]:   3251.49
	Linear fluid (dielectric constant: 78.4, screening length: 8.12261 Bohr) occupying 0.454347 of unit cell:	Completed after 0 iterations at t[s]:   3258.11
	FillingsUpdate:  mu: -0.244750000  nElectrons: 127.699822  magneticMoment: [ Abs: 0.00003  Tot: -0.00000 ]
	SubspaceRotationAdjust: set factor to 0.00808
ElecMinimize: Iter:  52  G: -680.411026955460443  |grad|_K:  4.144e-08  alpha:  5.322e-01  linmin: -2.851e-05  t[s]:   3269.90
	Linear fluid (dielectric constant: 78.4, screening length: 8.12261 Bohr) occupying 0.454347 of unit cell:	Completed after 5 iterations at t[s]:   3278.11
	Linear fluid (dielectric constant: 78.4, screening length: 8.12261 Bohr) occupying 0.454347 of unit cell:	Completed after 0 iterations at t[s]:   3284.83
	FillingsUpdate:  mu: -0.244750000  nElectrons: 127.699798  magneticMoment: [ Abs: 0.00003  Tot: -0.00000 ]
	SubspaceRotationAdjust: set factor to 0.00894
ElecMinimize: Iter:  53  G: -680.411027023345468  |grad|_K:  3.646e-08  alpha:  5.873e-01  linmin: -4.532e-05  t[s]:   3296.72
ElecMinimize: Converged (|Delta G|<1.000000e-07 for 2 iters).
Setting wave functions to eigenvectors of Hamiltonian
Converging empty states (this may take a while): |deigs|: 7.880e-04
Single-point solvation energy estimate, DeltaG = -0.010729647768244

Computing DFT-D3 correction:
# coordination-number Pt 8.640 9.487 5.939 9.406 9.408 5.939 9.489 8.640
# diagonal-C6 Pt 336.87 336.87 336.87 336.87 336.87 336.87 336.87 336.87
EvdW_6 =   -0.066553
EvdW_8 =   -0.109909

# Ionic positions in cartesian coordinates:
ion Pt   0.000021000000000   7.399062000000000  48.567878999999991 1
ion Pt  -0.000010000000000   0.000052000000000  43.168615999999993 1
ion Pt   2.615982000000000   3.699357000000000  50.884186999999997 1
ion Pt   2.616029000000000   3.699668000000000  45.750554000000001 1
ion Pt   5.231932999999999  -0.000015000000000  37.961996999999990 1
ion Pt   0.000058000000000   0.000111000000000  32.827997000000003 1
ion Pt   2.615934999999999   3.699594000000000  40.542468999999997 1
ion Pt   2.616040000000000   3.699653000000000  35.143991999999997 1

# Forces in Cartesian coordinates:
force Pt  -0.000000537246190   0.000000183597926  -0.001099832826348 1
force Pt   0.000001641741009   0.000002987568623  -0.001317162298662 1
force Pt  -0.000000489116859  -0.000004351915820  -0.003284462967812 1
force Pt  -0.000001264892012  -0.000005185146150   0.004553541921910 1
force Pt   0.000003122224846   0.000004080739605  -0.004603321313622 1
force Pt  -0.000000154233954   0.000006698094781   0.003351176489277 1
force Pt  -0.000000256783045   0.000000840223621   0.001412038694929 1
force Pt   0.000000826874828   0.000000656662804   0.001125196078849 1

# Energy components:
   A_diel =        0.0913994795968390
   Eewald =     3594.7995253799072088
       EH =     4246.2975504060013918
     Eloc =    -8676.4215311631796794
      Enl =       -8.4602282299294345
     EvdW =       -0.1764617953629733
      Exc =     -227.5045119075909383
 Exc_core =      131.1310438943276040
       KE =      228.5604581950545366
  MuShift =        0.0188237354952828
-------------------------------------
     Etot =     -711.6639320056797260
       TS =        0.0016206279465461
-------------------------------------
        F =     -711.6655526336262483
      muN =      -31.2545256102807407
-------------------------------------
        G =     -680.4110270233454685


Dumping 'jdft.fillings' ... done
Dumping 'jdft.wfns' ... done
Dumping 'jdft.fluidState' ... done
Dumping 'jdft.ionpos' ... done
Dumping 'jdft.lattice' ... done
Dumping 'jdft.eigenvals' ... done
Dumping 'jdft.eigStats' ... 
	eMin: -2.194444 at state 49 ( [ +0.500000 +0.500000 +0.000000 ] spin 1 )
	HOMO: -0.244806 at state 30 ( [ +0.333333 +0.125000 +0.000000 ] spin 1 )
	mu  : -0.244750
	LUMO: -0.244675 at state 57 ( [ +0.083333 +0.250000 +0.000000 ] spin -1 )
	eMax: +0.138221 at state 95 ( [ +0.500000 +0.000000 +0.000000 ] spin -1 )
	HOMO-LUMO gap: +0.000131
	Optical gap  : +0.000398 at state 60 ( [ +0.083333 -0.375000 +0.000000 ] spin -1 )
Dumping 'jdft.Ecomponents' ... done
IonicMinimize: Iter:   0  G: -680.411027023345468  |grad|_K:  1.710e-03  t[s]:   3345.79

#--- Lowdin population analysis ---
# oxidation-state Pt -0.028 +0.006 +0.205 +0.013 +0.013 +0.204 +0.007 -0.028
# magnetic-moments Pt +0.000 -0.000 +0.000 -0.000 -0.000 +0.000 -0.000 +0.000


Computing DFT-D3 correction:
# coordination-number Pt 8.649 9.482 5.945 9.410 9.411 5.945 9.483 8.649
# diagonal-C6 Pt 336.87 336.87 336.87 336.87 336.87 336.87 336.87 336.87
EvdW_6 =   -0.066557
EvdW_8 =   -0.109914
Shifting auxilliary hamiltonian by 0.000029 to set nElectrons=127.699798

-------- Electronic minimization -----------
	Linear fluid (dielectric constant: 78.4, screening length: 8.12261 Bohr) occupying 0.454547 of unit cell:	Completed after 14 iterations at t[s]:   3355.20
	FillingsUpdate:  mu: -0.244750000  nElectrons: 127.699798  magneticMoment: [ Abs: 0.00074  Tot: -0.00068 ]
ElecMinimize: Iter:   0  G: -680.411082884275288  |grad|_K:  4.537e-07  alpha:  1.000e+00
	Linear fluid (dielectric constant: 78.4, screening length: 8.12261 Bohr) occupying 0.454536 of unit cell:	Completed after 13 iterations at t[s]:   3376.54
	Linear fluid (dielectric constant: 78.4, screening length: 8.12261 Bohr) occupying 0.454543 of unit cell:	Completed after 13 iterations at t[s]:   3384.08
	FillingsUpdate:  mu: -0.244750000  nElectrons: 127.700431  magneticMoment: [ Abs: 0.00073  Tot: -0.00068 ]
	SubspaceRotationAdjust: set factor to 0.00724
ElecMinimize: Iter:   1  G: -680.411087281240498  |grad|_K:  2.125e-07  alpha:  3.191e-01  linmin: -2.826e-05  t[s]:   3395.62
	Linear fluid (dielectric constant: 78.4, screening length: 8.12261 Bohr) occupying 0.454538 of unit cell:	Completed after 11 iterations at t[s]:   3403.77
	Linear fluid (dielectric constant: 78.4, screening length: 8.12261 Bohr) occupying 0.454538 of unit cell:	Completed after 8 iterations at t[s]:   3410.76
	FillingsUpdate:  mu: -0.244750000  nElectrons: 127.699464  magneticMoment: [ Abs: 0.00073  Tot: -0.00068 ]
	SubspaceRotationAdjust: set factor to 0.00547
ElecMinimize: Iter:   2  G: -680.411088327432481  |grad|_K:  1.128e-07  alpha:  3.460e-01  linmin: -2.229e-04  t[s]:   3422.37
	Linear fluid (dielectric constant: 78.4, screening length: 8.12261 Bohr) occupying 0.454537 of unit cell:	Completed after 8 iterations at t[s]:   3430.75
	Linear fluid (dielectric constant: 78.4, screening length: 8.12261 Bohr) occupying 0.454537 of unit cell:	Completed after 5 iterations at t[s]:   3438.01
	FillingsUpdate:  mu: -0.244750000  nElectrons: 127.699401  magneticMoment: [ Abs: 0.00072  Tot: -0.00068 ]
	SubspaceRotationAdjust: set factor to 0.0065
ElecMinimize: Iter:   3  G: -680.411088765008571  |grad|_K:  7.387e-08  alpha:  5.123e-01  linmin: -1.478e-03  t[s]:   3449.67
	Linear fluid (dielectric constant: 78.4, screening length: 8.12261 Bohr) occupying 0.454540 of unit cell:	Completed after 7 iterations at t[s]:   3457.89
	Linear fluid (dielectric constant: 78.4, screening length: 8.12261 Bohr) occupying 0.454540 of unit cell:	Completed after 2 iterations at t[s]:   3464.55
	FillingsUpdate:  mu: -0.244750000  nElectrons: 127.699349  magneticMoment: [ Abs: 0.00072  Tot: -0.00068 ]
	SubspaceRotationAdjust: set factor to 0.00752
ElecMinimize: Iter:   4  G: -680.411088978758471  |grad|_K:  5.963e-08  alpha:  5.817e-01  linmin: -4.734e-04  t[s]:   3475.96
	Linear fluid (dielectric constant: 78.4, screening length: 8.12261 Bohr) occupying 0.454546 of unit cell:	Completed after 10 iterations at t[s]:   3483.73
	Linear fluid (dielectric constant: 78.4, screening length: 8.12261 Bohr) occupying 0.454546 of unit cell:	Completed after 0 iterations at t[s]:   3489.99
	FillingsUpdate:  mu: -0.244750000  nElectrons: 127.699152  magneticMoment: [ Abs: 0.00072  Tot: -0.00068 ]
	SubspaceRotationAdjust: set factor to 0.00907
ElecMinimize: Iter:   5  G: -680.411089120666475  |grad|_K:  5.262e-08  alpha:  5.942e-01  linmin:  1.827e-05  t[s]:   3500.57
	Linear fluid (dielectric constant: 78.4, screening length: 8.12261 Bohr) occupying 0.454554 of unit cell:	Completed after 7 iterations at t[s]:   3508.66
	Linear fluid (dielectric constant: 78.4, screening length: 8.12261 Bohr) occupying 0.454557 of unit cell:	Completed after 2 iterations at t[s]:   3515.44
	FillingsUpdate:  mu: -0.244750000  nElectrons: 127.699059  magneticMoment: [ Abs: 0.00072  Tot: -0.00068 ]
	SubspaceRotationAdjust: set factor to 0.0107
ElecMinimize: Iter:   6  G: -680.411089272963522  |grad|_K:  5.780e-08  alpha:  8.219e-01  linmin: -2.396e-06  t[s]:   3527.31
	Linear fluid (dielectric constant: 78.4, screening length: 8.12261 Bohr) occupying 0.454570 of unit cell:	Completed after 8 iterations at t[s]:   3535.56
	Linear fluid (dielectric constant: 78.4, screening length: 8.12261 Bohr) occupying 0.454570 of unit cell:	Completed after 0 iterations at t[s]:   3542.14
	FillingsUpdate:  mu: -0.244750000  nElectrons: 127.698755  magneticMoment: [ Abs: 0.00072  Tot: -0.00068 ]
	SubspaceRotationAdjust: set factor to 0.0119
ElecMinimize: Iter:   7  G: -680.411089450739269  |grad|_K:  6.849e-08  alpha:  7.946e-01  linmin:  2.585e-04  t[s]:   3552.83
	Linear fluid (dielectric constant: 78.4, screening length: 8.12261 Bohr) occupying 0.454585 of unit cell:	Completed after 4 iterations at t[s]:   3560.56
	Linear fluid (dielectric constant: 78.4, screening length: 8.12261 Bohr) occupying 0.454586 of unit cell:	Completed after 0 iterations at t[s]:   3567.12
	FillingsUpdate:  mu: -0.244750000  nElectrons: 127.698485  magneticMoment: [ Abs: 0.00071  Tot: -0.00068 ]
	SubspaceRotationAdjust: set factor to 0.013
ElecMinimize: Iter:   8  G: -680.411089706157213  |grad|_K:  7.785e-08  alpha:  8.208e-01  linmin: -6.192e-05  t[s]:   3578.70
	Linear fluid (dielectric constant: 78.4, screening length: 8.12261 Bohr) occupying 0.454600 of unit cell:	Completed after 10 iterations at t[s]:   3587.06
	Linear fluid (dielectric constant: 78.4, screening length: 8.12261 Bohr) occupying 0.454599 of unit cell:	Completed after 1 iterations at t[s]:   3593.83
	FillingsUpdate:  mu: -0.244750000  nElectrons: 127.698097  magneticMoment: [ Abs: 0.00071  Tot: -0.00068 ]
	SubspaceRotationAdjust: set factor to 0.0145
ElecMinimize: Iter:   9  G: -680.411090015335731  |grad|_K:  8.030e-08  alpha:  7.603e-01  linmin: -1.392e-05  t[s]:   3605.12
	Linear fluid (dielectric constant: 78.4, screening length: 8.12261 Bohr) occupying 0.454608 of unit cell:	Completed after 7 iterations at t[s]:   3612.54
	Linear fluid (dielectric constant: 78.4, screening length: 8.12261 Bohr) occupying 0.454607 of unit cell:	Completed after 0 iterations at t[s]:   3618.91
	FillingsUpdate:  mu: -0.244750000  nElectrons: 127.697782  magneticMoment: [ Abs: 0.00070  Tot: -0.00067 ]
	SubspaceRotationAdjust: set factor to 0.0169
ElecMinimize: Iter:  10  G: -680.411090341063868  |grad|_K:  8.632e-08  alpha:  7.542e-01  linmin:  1.182e-05  t[s]:   3630.26
	Linear fluid (dielectric constant: 78.4, screening length: 8.12261 Bohr) occupying 0.454614 of unit cell:	Completed after 10 iterations at t[s]:   3638.63
	Linear fluid (dielectric constant: 78.4, screening length: 8.12261 Bohr) occupying 0.454613 of unit cell:	Completed after 0 iterations at t[s]:   3645.22
	FillingsUpdate:  mu: -0.244750000  nElectrons: 127.697855  magneticMoment: [ Abs: 0.00070  Tot: -0.00067 ]
	SubspaceRotationAdjust: set factor to 0.0183
ElecMinimize: Iter:  11  G: -680.411090696272822  |grad|_K:  1.046e-07  alpha:  7.123e-01  linmin:  1.048e-04  t[s]:   3656.67
	Linear fluid (dielectric constant: 78.4, screening length: 8.12261 Bohr) occupying 0.454618 of unit cell:	Completed after 11 iterations at t[s]:   3664.60
	Linear fluid (dielectric constant: 78.4, screening length: 8.12261 Bohr) occupying 0.454616 of unit cell:	Completed after 11 iterations at t[s]:   3671.30
	FillingsUpdate:  mu: -0.244750000  nElectrons: 127.697341  magneticMoment: [ Abs: 0.00069  Tot: -0.00067 ]
	SubspaceRotationAdjust: set factor to 0.0158
ElecMinimize: Iter:  12  G: -680.411090959307217  |grad|_K:  1.217e-07  alpha:  3.680e-01  linmin: -9.470e-06  t[s]:   3681.98
	Linear fluid (dielectric constant: 78.4, screening length: 8.12261 Bohr) occupying 0.454619 of unit cell:	Completed after 9 iterations at t[s]:   3689.81
	Linear fluid (dielectric constant: 78.4, screening length: 8.12261 Bohr) occupying 0.454619 of unit cell:	Completed after 6 iterations at t[s]:   3696.73
	FillingsUpdate:  mu: -0.244750000  nElectrons: 127.697717  magneticMoment: [ Abs: 0.00069  Tot: -0.00067 ]
	SubspaceRotationAdjust: set factor to 0.0144
[...]
	FillingsUpdate:  mu: -0.244750000  nElectrons: 127.691810  magneticMoment: [ Abs: 0.00153  Tot: +0.00059 ]
	SubspaceRotationAdjust: set factor to 0.0109
ElecMinimize: Iter:  11  G: -680.411307599618453  |grad|_K:  3.708e-07  alpha:  7.396e-01  linmin:  4.757e-05  t[s]:   8184.83
	Linear fluid (dielectric constant: 78.4, screening length: 8.12261 Bohr) occupying 0.456515 of unit cell:	Completed after 12 iterations at t[s]:   8192.87
	Linear fluid (dielectric constant: 78.4, screening length: 8.12261 Bohr) occupying 0.456515 of unit cell:	Completed after 0 iterations at t[s]:   8199.61
	FillingsUpdate:  mu: -0.244750000  nElectrons: 127.691306  magneticMoment: [ Abs: 0.00137  Tot: +0.00058 ]
	SubspaceRotationAdjust: set factor to 0.0113
ElecMinimize: Iter:  12  G: -680.411314470400498  |grad|_K:  3.547e-07  alpha:  7.476e-01  linmin: -6.896e-06  t[s]:   8211.24
	Linear fluid (dielectric constant: 78.4, screening length: 8.12261 Bohr) occupying 0.456538 of unit cell:	Completed after 13 iterations at t[s]:   8219.86
	Linear fluid (dielectric constant: 78.4, screening length: 8.12261 Bohr) occupying 0.456532 of unit cell:	Completed after 9 iterations at t[s]:   8227.09
	FillingsUpdate:  mu: -0.244750000  nElectrons: 127.692532  magneticMoment: [ Abs: 0.00141  Tot: +0.00057 ]
	SubspaceRotationAdjust: set factor to 0.0105
ElecMinimize: Iter:  13  G: -680.411319116066124  |grad|_K:  3.499e-07  alpha:  5.517e-01  linmin:  4.152e-06  t[s]:   8238.24
	Linear fluid (dielectric constant: 78.4, screening length: 8.12261 Bohr) occupying 0.456542 of unit cell:	Completed after 13 iterations at t[s]:   8246.48
	Linear fluid (dielectric constant: 78.4, screening length: 8.12261 Bohr) occupying 0.456540 of unit cell:	Completed after 9 iterations at t[s]:   8253.65
	FillingsUpdate:  mu: -0.244750000  nElectrons: 127.691405  magneticMoment: [ Abs: 0.00139  Tot: +0.00056 ]
	SubspaceRotationAdjust: set factor to 0.00937
ElecMinimize: Iter:  14  G: -680.411322438406842  |grad|_K:  2.678e-07  alpha:  4.051e-01  linmin:  2.036e-05  t[s]:   8265.36
	Linear fluid (dielectric constant: 78.4, screening length: 8.12261 Bohr) occupying 0.456542 of unit cell:	Completed after 10 iterations at t[s]:   8273.71
	Linear fluid (dielectric constant: 78.4, screening length: 8.12261 Bohr) occupying 0.456543 of unit cell:	Completed after 10 iterations at t[s]:   8280.98
	FillingsUpdate:  mu: -0.244750000  nElectrons: 127.692077  magneticMoment: [ Abs: 0.00127  Tot: +0.00055 ]
	SubspaceRotationAdjust: set factor to 0.0109
ElecMinimize: Iter:  15  G: -680.411325211836697  |grad|_K:  2.235e-07  alpha:  5.783e-01  linmin:  4.315e-06  t[s]:   8292.15
	Linear fluid (dielectric constant: 78.4, screening length: 8.12261 Bohr) occupying 0.456537 of unit cell:	Completed after 10 iterations at t[s]:   8300.08
	Linear fluid (dielectric constant: 78.4, screening length: 8.12261 Bohr) occupying 0.456536 of unit cell:	Completed after 2 iterations at t[s]:   8306.75
	FillingsUpdate:  mu: -0.244750000  nElectrons: 127.692454  magneticMoment: [ Abs: 0.00118  Tot: +0.00055 ]
	SubspaceRotationAdjust: set factor to 0.0132
ElecMinimize: Iter:  16  G: -680.411327436761553  |grad|_K:  2.136e-07  alpha:  6.656e-01  linmin: -2.291e-05  t[s]:   8317.78
	Linear fluid (dielectric constant: 78.4, screening length: 8.12261 Bohr) occupying 0.456520 of unit cell:	Completed after 10 iterations at t[s]:   8326.12
	Linear fluid (dielectric constant: 78.4, screening length: 8.12261 Bohr) occupying 0.456521 of unit cell:	Completed after 1 iterations at t[s]:   8333.03
	FillingsUpdate:  mu: -0.244750000  nElectrons: 127.692240  magneticMoment: [ Abs: 0.00111  Tot: +0.00054 ]
	SubspaceRotationAdjust: set factor to 0.0138
ElecMinimize: Iter:  17  G: -680.411329371925035  |grad|_K:  2.392e-07  alpha:  6.333e-01  linmin:  1.095e-04  t[s]:   8344.71
	Linear fluid (dielectric constant: 78.4, screening length: 8.12261 Bohr) occupying 0.456499 of unit cell:	Completed after 13 iterations at t[s]:   8353.00
	Linear fluid (dielectric constant: 78.4, screening length: 8.12261 Bohr) occupying 0.456507 of unit cell:	Completed after 10 iterations at t[s]:   8359.91
	FillingsUpdate:  mu: -0.244750000  nElectrons: 127.693685  magneticMoment: [ Abs: 0.00106  Tot: +0.00053 ]
	SubspaceRotationAdjust: set factor to 0.0119
ElecMinimize: Iter:  18  G: -680.411330991991008  |grad|_K:  2.408e-07  alpha:  4.264e-01  linmin: -3.828e-05  t[s]:   8371.51
	Linear fluid (dielectric constant: 78.4, screening length: 8.12261 Bohr) occupying 0.456486 of unit cell:	Completed after 10 iterations at t[s]:   8379.96
	Linear fluid (dielectric constant: 78.4, screening length: 8.12261 Bohr) occupying 0.456482 of unit cell:	Completed after 7 iterations at t[s]:   8387.18
	FillingsUpdate:  mu: -0.244750000  nElectrons: 127.693530  magneticMoment: [ Abs: 0.00100  Tot: +0.00052 ]
	SubspaceRotationAdjust: set factor to 0.0113
ElecMinimize: Iter:  19  G: -680.411332951950158  |grad|_K:  2.046e-07  alpha:  5.045e-01  linmin:  7.514e-05  t[s]:   8398.66
	Linear fluid (dielectric constant: 78.4, screening length: 8.12261 Bohr) occupying 0.456463 of unit cell:	Completed after 9 iterations at t[s]:   8407.11
	Linear fluid (dielectric constant: 78.4, screening length: 8.12261 Bohr) occupying 0.456458 of unit cell:	Completed after 8 iterations at t[s]:   8414.01
	FillingsUpdate:  mu: -0.244750000  nElectrons: 127.694216  magneticMoment: [ Abs: 0.00087  Tot: +0.00052 ]
	SubspaceRotationAdjust: set factor to 0.0128
ElecMinimize: Iter:  20  G: -680.411334718717285  |grad|_K:  1.787e-07  alpha:  6.321e-01  linmin: -6.726e-06  t[s]:   8425.00
	Linear fluid (dielectric constant: 78.4, screening length: 8.12261 Bohr) occupying 0.456440 of unit cell:	Completed after 9 iterations at t[s]:   8432.90
	Linear fluid (dielectric constant: 78.4, screening length: 8.12261 Bohr) occupying 0.456439 of unit cell:	Completed after 2 iterations at t[s]:   8439.83
	FillingsUpdate:  mu: -0.244750000  nElectrons: 127.694784  magneticMoment: [ Abs: 0.00076  Tot: +0.00051 ]
	SubspaceRotationAdjust: set factor to 0.0141
ElecMinimize: Iter:  21  G: -680.411336175230758  |grad|_K:  1.658e-07  alpha:  6.814e-01  linmin: -3.276e-05  t[s]:   8451.46
	Linear fluid (dielectric constant: 78.4, screening length: 8.12261 Bohr) occupying 0.456423 of unit cell:	Completed after 12 iterations at t[s]:   8460.05
	Linear fluid (dielectric constant: 78.4, screening length: 8.12261 Bohr) occupying 0.456427 of unit cell:	Completed after 10 iterations at t[s]:   8467.24
	FillingsUpdate:  mu: -0.244750000  nElectrons: 127.694341  magneticMoment: [ Abs: 0.00071  Tot: +0.00050 ]
	SubspaceRotationAdjust: set factor to 0.0137
ElecMinimize: Iter:  22  G: -680.411337142251682  |grad|_K:  1.674e-07  alpha:  5.239e-01  linmin:  5.815e-05  t[s]:   8478.28
	Linear fluid (dielectric constant: 78.4, screening length: 8.12261 Bohr) occupying 0.456421 of unit cell:	Completed after 12 iterations at t[s]:   8486.56
	Linear fluid (dielectric constant: 78.4, screening length: 8.12261 Bohr) occupying 0.456423 of unit cell:	Completed after 10 iterations at t[s]:   8493.83
	FillingsUpdate:  mu: -0.244750000  nElectrons: 127.695006  magneticMoment: [ Abs: 0.00068  Tot: +0.00050 ]
	SubspaceRotationAdjust: set factor to 0.0118
ElecMinimize: Iter:  23  G: -680.411337820606263  |grad|_K:  1.462e-07  alpha:  3.623e-01  linmin:  1.596e-05  t[s]:   8505.45
	Linear fluid (dielectric constant: 78.4, screening length: 8.12261 Bohr) occupying 0.456422 of unit cell:	Completed after 10 iterations at t[s]:   8513.67
	Linear fluid (dielectric constant: 78.4, screening length: 8.12261 Bohr) occupying 0.456422 of unit cell:	Completed after 8 iterations at t[s]:   8521.08
	FillingsUpdate:  mu: -0.244750000  nElectrons: 127.694521  magneticMoment: [ Abs: 0.00063  Tot: +0.00049 ]
	SubspaceRotationAdjust: set factor to 0.013
ElecMinimize: Iter:  24  G: -680.411338577134870  |grad|_K:  1.205e-07  alpha:  5.293e-01  linmin:  5.175e-05  t[s]:   8532.02
	Linear fluid (dielectric constant: 78.4, screening length: 8.12261 Bohr) occupying 0.456428 of unit cell:	Completed after 5 iterations at t[s]:   8539.78
	Linear fluid (dielectric constant: 78.4, screening length: 8.12261 Bohr) occupying 0.456430 of unit cell:	Completed after 2 iterations at t[s]:   8546.31
	FillingsUpdate:  mu: -0.244750000  nElectrons: 127.694275  magneticMoment: [ Abs: 0.00063  Tot: +0.00049 ]
	SubspaceRotationAdjust: set factor to 0.0153
ElecMinimize: Iter:  25  G: -680.411339207941182  |grad|_K:  1.064e-07  alpha:  6.500e-01  linmin: -9.908e-05  t[s]:   8557.88
	Linear fluid (dielectric constant: 78.4, screening length: 8.12261 Bohr) occupying 0.456444 of unit cell:	Completed after 9 iterations at t[s]:   8566.29
	Linear fluid (dielectric constant: 78.4, screening length: 8.12261 Bohr) occupying 0.456444 of unit cell:	Completed after 0 iterations at t[s]:   8573.04
	FillingsUpdate:  mu: -0.244750000  nElectrons: 127.694060  magneticMoment: [ Abs: 0.00062  Tot: +0.00049 ]
	SubspaceRotationAdjust: set factor to 0.0167
ElecMinimize: Iter:  26  G: -680.411339710500783  |grad|_K:  1.005e-07  alpha:  6.615e-01  linmin: -1.458e-04  t[s]:   8584.37
	Linear fluid (dielectric constant: 78.4, screening length: 8.12261 Bohr) occupying 0.456463 of unit cell:	Completed after 10 iterations at t[s]:   8592.31
	Linear fluid (dielectric constant: 78.4, screening length: 8.12261 Bohr) occupying 0.456457 of unit cell:	Completed after 10 iterations at t[s]:   8599.70
	FillingsUpdate:  mu: -0.244750000  nElectrons: 127.693346  magneticMoment: [ Abs: 0.00060  Tot: +0.00048 ]
	SubspaceRotationAdjust: set factor to 0.0147
ElecMinimize: Iter:  27  G: -680.411340028365544  |grad|_K:  1.059e-07  alpha:  4.678e-01  linmin:  7.321e-05  t[s]:   8611.29
	Linear fluid (dielectric constant: 78.4, screening length: 8.12261 Bohr) occupying 0.456477 of unit cell:	Completed after 10 iterations at t[s]:   8619.58
	Linear fluid (dielectric constant: 78.4, screening length: 8.12261 Bohr) occupying 0.456469 of unit cell:	Completed after 10 iterations at t[s]:   8626.87
	FillingsUpdate:  mu: -0.244750000  nElectrons: 127.693498  magneticMoment: [ Abs: 0.00059  Tot: +0.00048 ]
	SubspaceRotationAdjust: set factor to 0.0112
ElecMinimize: Iter:  28  G: -680.411340237767376  |grad|_K:  7.595e-08  alpha:  2.792e-01  linmin:  6.697e-05  t[s]:   8638.13
	Linear fluid (dielectric constant: 78.4, screening length: 8.12261 Bohr) occupying 0.456476 of unit cell:	Completed after 7 iterations at t[s]:   8645.94
	Linear fluid (dielectric constant: 78.4, screening length: 8.12261 Bohr) occupying 0.456482 of unit cell:	Completed after 7 iterations at t[s]:   8652.85
	FillingsUpdate:  mu: -0.244750000  nElectrons: 127.693133  magneticMoment: [ Abs: 0.00058  Tot: +0.00048 ]
	SubspaceRotationAdjust: set factor to 0.0128
ElecMinimize: Iter:  29  G: -680.411340442772826  |grad|_K:  5.752e-08  alpha:  5.329e-01  linmin:  2.043e-04  t[s]:   8663.90
	Linear fluid (dielectric constant: 78.4, screening length: 8.12261 Bohr) occupying 0.456490 of unit cell:	Completed after 8 iterations at t[s]:   8672.10
	Linear fluid (dielectric constant: 78.4, screening length: 8.12261 Bohr) occupying 0.456491 of unit cell:	Completed after 0 iterations at t[s]:   8678.82
	FillingsUpdate:  mu: -0.244750000  nElectrons: 127.692898  magneticMoment: [ Abs: 0.00057  Tot: +0.00048 ]
	SubspaceRotationAdjust: set factor to 0.0147
ElecMinimize: Iter:  30  G: -680.411340570357083  |grad|_K:  4.795e-08  alpha:  5.779e-01  linmin: -3.304e-04  t[s]:   8690.51
	Linear fluid (dielectric constant: 78.4, screening length: 8.12261 Bohr) occupying 0.456497 of unit cell:	Completed after 9 iterations at t[s]:   8698.61
	Linear fluid (dielectric constant: 78.4, screening length: 8.12261 Bohr) occupying 0.456497 of unit cell:	Completed after 0 iterations at t[s]:   8705.05
	FillingsUpdate:  mu: -0.244750000  nElectrons: 127.692946  magneticMoment: [ Abs: 0.00056  Tot: +0.00047 ]
	SubspaceRotationAdjust: set factor to 0.0142
ElecMinimize: Iter:  31  G: -680.411340652208992  |grad|_K:  5.124e-08  alpha:  5.271e-01  linmin:  1.347e-03  t[s]:   8716.31
	Linear fluid (dielectric constant: 78.4, screening length: 8.12261 Bohr) occupying 0.456502 of unit cell:	Completed after 10 iterations at t[s]:   8724.69
	Linear fluid (dielectric constant: 78.4, screening length: 8.12261 Bohr) occupying 0.456500 of unit cell:	Completed after 9 iterations at t[s]:   8731.99
	FillingsUpdate:  mu: -0.244750000  nElectrons: 127.692697  magneticMoment: [ Abs: 0.00055  Tot: +0.00047 ]
	SubspaceRotationAdjust: set factor to 0.0125
ElecMinimize: Iter:  32  G: -680.411340704397162  |grad|_K:  4.505e-08  alpha:  3.169e-01  linmin: -2.539e-04  t[s]:   8743.40
ElecMinimize: Converged (|Delta G|<1.000000e-07 for 2 iters).
Setting wave functions to eigenvectors of Hamiltonian
Converging empty states (this may take a while): |deigs|: 3.479e-07

Computing DFT-D3 correction:
# coordination-number Pt 8.719 9.531 5.982 9.474 9.449 5.973 9.516 8.700
# diagonal-C6 Pt 336.87 336.87 336.87 336.87 336.87 336.87 336.87 336.87
EvdW_6 =   -0.066743
EvdW_8 =   -0.110352

# Ionic positions in cartesian coordinates:
ion Pt  -0.000062833794567   7.399023047253038  48.534127609929435 1
ion Pt  -0.000001683333215   0.000057697563036  43.148274181403146 1
ion Pt   2.615811850921402   3.699160368987199  50.834977381486013 1
ion Pt   2.616116546278492   3.699562474800136  45.759109101936268 1
ion Pt   5.231995789238908   0.000061088606344  37.953762636049746 1
ion Pt   0.000053697484362   0.000235797535250  32.868730078656789 1
ion Pt   2.615982350757636   3.699613459370332  40.573865206227978 1
ion Pt   2.616092282446982   3.699768065884661  35.174844804310624 1

# Forces in Cartesian coordinates:
force Pt   0.000000106409090  -0.000019353268646  -0.000028711157511 1
force Pt   0.000005408538446  -0.000006110084128   0.000175208215470 1
force Pt  -0.000003455827720   0.000011080670831  -0.000365488574485 1
force Pt  -0.000006418950391   0.000007392171905   0.001443912670921 1
force Pt   0.000001302839014   0.000000568643162  -0.001142566385226 1
force Pt   0.000002137004648   0.000006376174935   0.000946955217755 1
force Pt  -0.000002109635431   0.000001221594997  -0.001400506668039 1
force Pt  -0.000002760500804  -0.000002860870760   0.000594952007809 1

# Energy components:
   A_diel =        0.0932004842886736
   Eewald =     3618.0657015026304180
       EH =     4269.3697913225751108
     Eloc =    -8722.7815747753702453
      Enl =       -8.4507807946952642
     EvdW =       -0.1770953900021018
      Exc =     -227.5218109115952814
 Exc_core =      131.1310468498475643
       KE =      228.5897355792403687
  MuShift =        0.0192690286870856
-------------------------------------
     Etot =     -711.6625171043939417
       TS =        0.0016111043951524
-------------------------------------
        F =     -711.6641282087890659
      muN =      -31.2527875043919252
-------------------------------------
        G =     -680.4113407043971620


Dumping 'jdft.fillings' ... done
Dumping 'jdft.wfns' ... done
Dumping 'jdft.fluidState' ... done
Dumping 'jdft.ionpos' ... done
Dumping 'jdft.lattice' ... done
Dumping 'jdft.eigenvals' ... done
Dumping 'jdft.eigStats' ... 
	eMin: -2.195195 at state 49 ( [ +0.500000 +0.500000 +0.000000 ] spin 1 )
	HOMO: -0.245014 at state 81 ( [ +0.333333 +0.250000 +0.000000 ] spin -1 )
	mu  : -0.244750
	LUMO: -0.244773 at state 39 ( [ +0.416667 +0.250000 +0.000000 ] spin 1 )
	eMax: +0.137999 at state 45 ( [ +0.500000 +0.000000 +0.000000 ] spin 1 )
	HOMO-LUMO gap: +0.000241
	Optical gap  : +0.000547 at state 39 ( [ +0.416667 +0.250000 +0.000000 ] spin 1 )
Dumping 'jdft.Ecomponents' ... done
IonicMinimize: Iter:   4  G: -680.411340704397162  |grad|_K:  5.308e-04  alpha:  4.124e-01  linmin:  2.132e-01  t[s]:   8769.21
IonicMinimize: Converged (|Delta G|<1.000000e-04 for 2 iters).

#--- Lowdin population analysis ---
# oxidation-state Pt -0.028 +0.005 +0.211 +0.011 +0.016 +0.206 +0.009 -0.029
# magnetic-moments Pt +0.000 +0.000 +0.000 +0.000 +0.000 +0.000 +0.000 +0.000


Dumping 'jdft.n_up' ... done
Dumping 'jdft.n_dn' ... done
Dumping 'jdft.tau_up' ... done
Dumping 'jdft.tau_dn' ... done
Dumping 'jdft.eigenvals' ... done
Dumping 'jdft.eigStats' ... 
	eMin: -2.195195 at state 49 ( [ +0.500000 +0.500000 +0.000000 ] spin 1 )
	HOMO: -0.245014 at state 81 ( [ +0.333333 +0.250000 +0.000000 ] spin -1 )
	mu  : -0.244750
	LUMO: -0.244773 at state 39 ( [ +0.416667 +0.250000 +0.000000 ] spin 1 )
	eMax: +0.137999 at state 45 ( [ +0.500000 +0.000000 +0.000000 ] spin 1 )
	HOMO-LUMO gap: +0.000241
	Optical gap  : +0.000547 at state 39 ( [ +0.416667 +0.250000 +0.000000 ] spin 1 )
Dumping 'jdft.kPts' ... done
Dumping 'jdft.kMap' ... done
Dumping 'jdft.dosUp' ... done.
Dumping 'jdft.dosDn' ... done.
End date and time: Fri Sep  9 01:08:09 2022  (Duration: 0-2:26:27.26)
Done!

PROFILER:             augmentDensityGrid     0.873068 +/-     0.087220 s,  652 calls,    569.240610 s total
PROFILER:         augmentDensityGridGrad     0.080331 +/-     0.016441 s,  334 calls,     26.830632 s total
PROFILER:        augmentDensitySpherical     0.000703 +/-     0.000053 s, 3260 calls,      2.291255 s total
PROFILER:    augmentDensitySphericalGrad     0.000758 +/-     0.000077 s, 1820 calls,      1.380363 s total
PROFILER:                 augmentOverlap     0.149824 +/-     0.013482 s, 6215 calls,    931.156441 s total
PROFILER:        ColumnBundle::randomize     0.000521 +/-     0.000016 s,    5 calls,      0.002604 s total
PROFILER:                     diagouterI     0.723391 +/-     0.066060 s, 3275 calls,   2369.104376 s total
PROFILER:              EdensityAndVscloc     0.901566 +/-     0.516341 s,  653 calls,    588.722663 s total
PROFILER:                     EnlAndGrad     0.001117 +/-     0.000133 s, 3155 calls,      3.523964 s total
PROFILER:            ExCorrCommunication     0.010139 +/-     0.022441 s, 3986 calls,     40.415511 s total
PROFILER:               ExCorrFunctional     0.002989 +/-     0.000308 s,  672 calls,      2.008596 s total
PROFILER:                    ExCorrTotal     0.084386 +/-     0.044720 s,  672 calls,     56.707586 s total
PROFILER:                   Idag_DiagV_I     1.386563 +/-     0.280935 s, 1790 calls,   2481.948530 s total
PROFILER:                    initWeights     2.053267 +/-     0.000000 s,    1 calls,      2.053267 s total
PROFILER:                    inv(matrix)     0.000482 +/-     0.000042 s, 2945 calls,      1.418063 s total
PROFILER:            matrix::diagonalize     0.002134 +/-     0.000785 s, 5040 calls,     10.755032 s total
PROFILER:                    matrix::set     0.000002 +/-     0.000004 s, 40744 calls,      0.088037 s total
PROFILER:            orthoMatrix(matrix)     0.000253 +/-     0.000135 s, 3080 calls,      0.778673 s total
PROFILER:     RadialFunctionR::transform     0.025452 +/-     0.103156 s,   56 calls,      1.425303 s total
PROFILER:                    reduceKmesh     0.001238 +/-     0.000000 s,    1 calls,      0.001238 s total
PROFILER:   VanDerWaalsD3::energyAndGrad     0.005478 +/-     0.000298 s,   13 calls,      0.071216 s total
PROFILER:               WavefunctionDrag     2.937220 +/-     0.603050 s,    6 calls,     17.623321 s total
PROFILER:                            Y*M     0.039667 +/-     0.013200 s, 20688 calls,    820.627824 s total
PROFILER:                          Y1^Y2     0.044843 +/-     0.014588 s, 12975 calls,    581.833884 s total

MEMUSAGE:                   ColumnBundle     0.227284 GB
MEMUSAGE:        complexScalarFieldTilde     0.007416 GB
MEMUSAGE:                    IndexArrays     0.012895 GB
MEMUSAGE:                         matrix     0.011128 GB
MEMUSAGE:                           misc     0.004988 GB
MEMUSAGE:                    ScalarField     0.035843 GB
MEMUSAGE:               ScalarFieldTilde     0.026196 GB
MEMUSAGE:                          Total     0.272164 GB
